Title
82252
    1SAPS     N    1   0.649   5.549  10.987 -0.3101 -0.4694  0.0904
    1SAPS   HN1    2   0.702   5.629  11.028 -0.4156  1.1000 -2.5759
    1SAPS   HN2    3   0.680   5.462  11.034  1.9608 -0.4998 -1.2847
    1SAPS   HN3    4   0.680   5.540  10.888 -0.8811 -0.5702 -0.0825
    1SAPS   C12    5   0.502   5.543  10.990  0.2792  0.2480  0.3950
    1SAPS  H12A    6   0.471   5.476  10.910  2.0080  1.2077 -1.1560
    1SAPS   C13    7   0.459   5.474  11.117 -0.4246  0.1837 -0.0682
    1SAPS  O13A    8   0.548   5.436  11.203  0.2478 -0.5269 -0.5974
    1SAPS  O13B    9   0.336   5.473  11.139 -0.3365  0.1446 -0.1274
    1SAPS   C11   10   0.433   5.682  10.968  0.0241  0.2740  0.3425
    1SAPS  H11A   11   0.493   5.757  11.023  0.0248  0.0353  0.6714
    1SAPS  H11B   12   0.330   5.671  11.009 -0.2726  0.7663 -0.2590
    1SAPS     P   13   0.361   5.857  10.793  0.2052  0.0270 -0.5598
    1SAPS   O13   14   0.226   5.857  10.862  0.4560 -0.4459 -0.0889
    1SAPS   O14   15   0.454   5.956  10.834  0.1914  0.0795 -0.2222
    1SAPS   O12   16   0.417   5.717  10.831 -0.4051  0.4129  0.1193
    1SAPS   O11   17   0.329   5.864  10.637  0.0092  0.1859 -0.1688
    1SAPS    C1   18   0.405   5.794  10.534 -0.4175 -0.6984  0.5294
    1SAPS    HA   19   0.511   5.827  10.526 -0.2623 -1.4912 -0.9992
    1SAPS    HB   20   0.413   5.685  10.556 -1.7124 -0.3300  3.1747
    1SAPS    C2   21   0.345   5.830  10.396  1.1259  0.1440 -0.3845
    1SAPS    HS   22   0.323   5.937  10.378 -3.7850 -0.8195 -1.7404
    1SAPS   O21   23   0.225   5.747  10.375  0.5211 -0.2079 -0.3268
    1SAPS   C21   24   0.142   5.804  10.283  0.0832  0.6932 -0.1206
    1SAPS   O22   25   0.163   5.913  10.231 -0.3900 -0.5108 -0.4237
    1SAPS   C22   26   0.013   5.717  10.251  0.2461  0.1487  0.3074
    1SAPS   H2R   27   0.032   5.608  10.247  0.4324  0.1796  0.3147
    1SAPS   H2S   28  -0.049   5.729  10.342 -2.9283 -2.4600 -1.3197
    1SAPS    C3   29   0.463   5.790  10.300  0.0211 -0.8935  0.3652
    1SAPS    HX   30   0.505   5.690  10.321 -0.3614 -1.5133 -1.6379
    1SAPS    HY   31   0.546   5.859  10.325  0.1131 -1.5868  2.0672
    1SAPS   O31   32   0.440   5.813  10.163  0.3169  0.7812  0.2995
    1SAPS   C31   33   0.431   5.710  10.078  0.1781 -0.3895 -0.1463
    1SAPS   O32   34   0.434   5.592  10.109 -0.0541 -0.0847  0.2811
    1SAPS   C32   35   0.413   5.759   9.941 -0.2600 -0.0120 -0.0914
    1SAPS   H2X   36   0.396   5.670   9.876  2.8304 -1.5002  0.9790
    1SAPS   H2Y   37   0.507   5.798   9.897 -1.2230  2.0032 -0.5138
    1SAPS   C23   38  -0.071   5.750  10.126  0.0198  0.6576 -0.5826
    1SAPS   H3R   39  -0.011   5.802  10.049  2.3178 -0.2342  0.5065
    1SAPS   H3S   40  -0.164   5.800  10.160 -0.3100 -0.0702 -0.3725
    1SAPS   C24   41  -0.103   5.615  10.054  0.9431  0.9209 -0.0690
    1SAPS   H4R   42  -0.016   5.549  10.037  1.4514  1.8162 -1.0688
    1SAPS   H4S   43  -0.140   5.642   9.952  1.2972  1.2504 -0.1136
    1SAPS   C25   44  -0.202   5.545  10.143 -0.0994 -0.2683  0.1277
    1SAPS   H5R   45  -0.152   5.474  10.212 -1.3312  0.1505  1.4991
    1SAPS   C26   46  -0.336   5.533  10.149 -0.2568  0.0667  0.6437
    1SAPS   H6R   47  -0.383   5.469  10.225 -0.3184 -0.2277  0.3605
    1SAPS   C27   48  -0.429   5.599  10.047 -0.0984 -0.0556 -0.1202
    1SAPS   H7R   49  -0.399   5.706  10.051 -1.5362  0.4164 -1.1542
    1SAPS   H7S   50  -0.534   5.596  10.084  0.3030 -0.3677  1.0499
    1SAPS   C28   51  -0.417   5.553   9.907 -0.6358  0.4888 -1.0173
    1SAPS   H8R   52  -0.359   5.460   9.894  0.0997  1.1263 -2.5584
    1SAPS   C29   53  -0.468   5.605   9.797  0.0020 -0.7238 -0.0473
    1SAPS   H9R   54  -0.454   5.557   9.699 -0.0839  1.4227 -1.1818
    1SAPS  C210   55  -0.553   5.727   9.793  0.3231  0.4055  0.1442
    1SAPS  H10R   56  -0.634   5.716   9.868  1.1978 -0.6355  0.9621
    1SAPS  H10S   57  -0.611   5.727   9.698  0.1500  0.6158  0.2495
    1SAPS  C211   58  -0.462   5.844   9.805 -0.2970 -0.7959  0.3226
    1SAPS  H11R   59  -0.370   5.851   9.864 -1.2605  0.8132  1.7587
    1SAPS  C212   60  -0.494   5.956   9.739 -0.4889 -0.0217  0.4914
    1SAPS  H12R   61  -0.427   6.043   9.744 -0.5937  0.0274  1.1051
    1SAPS  C213   62  -0.621   5.979   9.662  0.3261  0.1696 -0.2975
    1SAPS  H13R   63  -0.704   5.946   9.727  1.2997 -0.5900  0.6009
    1SAPS  H13S   64  -0.627   5.916   9.571 -0.0387  0.3673 -0.4104
    1SAPS  C214   65  -0.647   6.122   9.637 -0.0023 -0.0635 -0.8860
    1SAPS  H14R   66  -0.684   6.171   9.728  2.3189  0.3707 -0.1275
    1SAPS  C215   67  -0.645   6.190   9.522  0.4823 -0.1858 -0.4422
    1SAPS  H15R   68  -0.668   6.297   9.524 -0.4817 -0.3945  0.3471
    1SAPS  C216   69  -0.601   6.137   9.390  0.6225  0.1510  0.3389
    1SAPS  H16R   70  -0.547   6.040   9.401 -0.1407 -0.3808 -0.4567
    1SAPS  H16S   71  -0.532   6.210   9.342  0.6001 -0.1151 -0.1000
    1SAPS  C217   72  -0.723   6.126   9.301 -0.3169  0.4380 -0.3843
    1SAPS  H17R   73  -0.739   6.233   9.276  1.8175  1.6523  2.6632
    1SAPS  H17S   74  -0.813   6.085   9.351 -0.0993  1.3728  0.8384
    1SAPS  C218   75  -0.690   6.038   9.184 -0.0369  0.3591  0.1506
    1SAPS  H18R   76  -0.583   6.036   9.158 -0.0992 -0.3459 -0.0785
    1SAPS  H18S   77  -0.743   6.088   9.100 -0.4669  0.4487  0.4698
    1SAPS  C219   78  -0.745   5.895   9.204  0.5737  0.5659 -0.5355
    1SAPS  H19R   79  -0.762   5.842   9.108  3.5228 -0.3503 -0.6546
    1SAPS  H19S   80  -0.837   5.902   9.265 -0.2736 -0.7486 -1.6058
    1SAPS  C220   81  -0.647   5.806   9.275 -0.5271  0.2241 -0.0457
    1SAPS  H20R   82  -0.547   5.795   9.227 -1.5763  2.3416 -3.0379
    1SAPS  H20S   83  -0.686   5.706   9.303 -2.1048  1.2687  1.6812
    1SAPS  H20T   84  -0.621   5.846   9.375  4.2106  0.6978 -1.2068
    1SAPS   C33   85   0.295   5.859   9.949  0.8295 -0.4928  0.2538
    1SAPS   H3X   86   0.323   5.947  10.011 -2.0109  0.9895 -0.3685
    1SAPS   H3Y   87   0.205   5.808   9.988  0.9425  0.6911  2.1910
    1SAPS   C34   88   0.275   5.924   9.808  0.3778  0.5537 -0.3081
    1SAPS   H4X   89   0.185   5.987   9.817 -0.1361 -0.3806  1.7667
    1SAPS   H4Y   90   0.249   5.844   9.736  0.0745 -1.1397  1.5720
    1SAPS   C35   91   0.396   6.006   9.750 -0.0542  0.3854  0.2103
    1SAPS   H5X   92   0.488   5.945   9.737 -0.0202  0.7848 -1.6995
    1SAPS   H5Y   93   0.429   6.086   9.820  0.6914 -0.1152  0.4454
    1SAPS   C36   94   0.366   6.068   9.615 -0.3849 -0.3716 -0.0129
    1SAPS   H6X   95   0.445   6.141   9.588  0.8451 -2.0805 -1.2134
    1SAPS   H6Y   96   0.272   6.126   9.628 -0.3459 -0.4494  0.6635
    1SAPS   C37   97   0.347   5.975   9.495 -0.2950  0.2172  0.9880
    1SAPS   H7X   98   0.260   5.909   9.515  0.2175 -1.0325 -0.7387
    1SAPS   H7Y   99   0.431   5.903   9.490  0.2302  0.6559  2.7139
    1SAPS   C38  100   0.323   6.046   9.364  0.0277 -0.3066 -0.1664
    1SAPS   H8X  101   0.421   6.093   9.341  0.2191  0.3955  1.8604
    1SAPS   H8Y  102   0.246   6.125   9.373  2.5680  2.2312  0.6007
    1SAPS   C39  103   0.282   5.962   9.236 -0.0605 -0.6481  0.1674
    1SAPS   H9X  104   0.193   5.904   9.268  0.2053 -0.4482  1.3361
    1SAPS   H9Y  105   0.357   5.883   9.215 -0.3252 -0.6554 -0.7713
    1SAPS  C310  106   0.248   6.029   9.096  0.0248  0.5571 -0.3294
    1SAPS  H10X  107   0.185   6.116   9.126  0.1681  0.1234  1.3566
    1SAPS  H10Y  108   0.192   5.961   9.029  0.0977  0.8291 -0.6664
    1SAPS  C311  109   0.376   6.070   9.029  0.2683 -0.7726 -0.4710
    1SAPS  H11X  110   0.435   5.980   9.001  1.4266 -0.2882  0.3194
    1SAPS  H11Y  111   0.442   6.117   9.106 -0.6321  0.5510 -0.4756
    1SAPS  C312  112   0.369   6.151   8.898  0.4673 -0.0511 -0.4129
    1SAPS  H12X  113   0.320   6.077   8.831  0.6243  0.4026 -1.0409
    1SAPS  H12Y  114   0.469   6.174   8.856  0.1558  1.9649 -0.1633
    1SAPS  C313  115   0.284   6.283   8.907 -0.3832 -0.1882 -0.3144
    1SAPS  H13X  116   0.308   6.333   9.002 -0.4555 -0.6236 -0.0629
    1SAPS  H13Y  117   0.174   6.266   8.908 -0.1810 -1.6382  0.0597
    1SAPS  C314  118   0.304   6.388   8.795 -0.1518  0.4517 -0.5382
    1SAPS  H14X  119   0.398   6.446   8.808  1.5414 -2.2141  0.0412
    1SAPS  H14Y  120   0.211   6.449   8.797 -2.0543 -2.2668  0.3612
    1SAPS  C315  121   0.317   6.325   8.652  0.1625 -0.3569 -0.2188
    1SAPS  H15X  122   0.218   6.278   8.633 -0.1665  0.8993 -1.8467
    1SAPS  H15Y  123   0.396   6.246   8.650  1.7079  1.1288 -2.8533
    1SAPS  C316  124   0.323   6.430   8.545  0.3668 -0.4672 -0.4331
    1SAPS  H16X  125   0.426   6.429   8.504 -0.2846 -3.1388 -2.2671
    1SAPS  H16Y  126   0.298   6.526   8.595 -2.9118 -2.5680  2.4807
    1SAPS  C317  127   0.236   6.401   8.421  0.3369 -0.4253  0.7062
    1SAPS  H17X  128   0.127   6.397   8.441 -0.1230 -0.4785 -1.5271
    1SAPS  H17Y  129   0.271   6.314   8.362  1.2147 -0.5636  1.4103
    1SAPS  C318  130   0.243   6.517   8.324  0.5406 -0.1196 -0.0699
    1SAPS  H18X  131   0.347   6.527   8.287  1.4343  2.8507  2.6864
    1SAPS  H18Y  132   0.200   6.612   8.364 -1.4629 -0.1723 -1.9481
    1SAPS  H18Z  133   0.177   6.504   8.236  0.0157  1.3468  0.0776
    2SAPS     N  134   4.113   3.503  11.218 -0.0944  0.2382  0.2345
    2SAPS   HN1  135   4.031   3.560  11.249 -0.0747 -0.2314  1.1749
    2SAPS   HN2  136   4.100   3.483  11.117  0.3402  4.2379 -0.8106
    2SAPS   HN3  137   4.110   3.412  11.268  1.5679 -0.6242 -1.1261
    2SAPS   C12  138   4.261   3.542  11.223  0.6585 -0.1119 -0.3301
    2SAPS  H12A  139   4.271   3.627  11.288  0.4187  0.2849 -0.8003
    2SAPS   C13  140   4.338   3.429  11.292  0.3789  0.0650  0.8653
    2SAPS  O13A  141   4.266   3.335  11.338  0.1069  0.2142  0.7113
    2SAPS  O13B  142   4.462   3.415  11.281 -0.0944  0.1531 -0.5588
    2SAPS   C11  143   4.307   3.574  11.082 -0.6086 -0.9231  0.3144
    2SAPS  H11A  144   4.415   3.602  11.082 -1.3108  2.2059 -1.2677
    2SAPS  H11B  145   4.258   3.665  11.042 -1.4336 -0.2761  2.6838
    2SAPS     P  146   4.321   3.461  10.839  0.2268 -0.1352 -0.1593
    2SAPS   O13  147   4.424   3.359  10.806 -0.5974 -0.0458 -0.2152
    2SAPS   O14  148   4.186   3.438  10.779 -0.5423 -0.3818 -0.2087
    2SAPS   O12  149   4.298   3.467  10.992 -0.0964  1.0584  0.0697
    2SAPS   O11  150   4.375   3.598  10.794  0.0569  0.0381 -0.0517
    2SAPS    C1  151   4.337   3.652  10.666  0.1201 -0.0896 -0.7286
    2SAPS    HA  152   4.228   3.671  10.661  0.1353 -0.0878 -1.1054
    2SAPS    HB  153   4.380   3.753  10.649  0.7665 -0.0255  1.0251
    2SAPS    C2  154   4.381   3.573  10.540  0.0017  0.4131 -0.0409
    2SAPS    HS  155   4.310   3.488  10.549  1.0560 -0.3518  1.3798
    2SAPS   O21  156   4.518   3.523  10.572  0.5419  0.0155  0.0678
    2SAPS   C21  157   4.556   3.422  10.500  0.2224 -0.5083  0.4522
    2SAPS   O22  158   4.486   3.367  10.421  0.2752  0.4007 -0.3201
    2SAPS   C22  159   4.705   3.419  10.510 -0.2345  0.3502 -0.0189
    2SAPS   H2R  160   4.744   3.512  10.463  0.2502  0.7986  1.2245
    2SAPS   H2S  161   4.729   3.425  10.618 -1.1749 -4.2318  0.6776
    2SAPS    C3  162   4.367   3.659  10.416 -0.0310  0.5097 -0.2522
    2SAPS    HX  163   4.443   3.740  10.422 -1.7773  2.2111  0.1752
    2SAPS    HY  164   4.266   3.706  10.413  0.6116  2.1675  1.6288
    2SAPS   O31  165   4.398   3.590  10.291 -0.3507 -0.3493 -0.1765
    2SAPS   C31  166   4.301   3.527  10.235 -0.4545  0.0239  0.0976
    2SAPS   O32  167   4.186   3.535  10.269 -0.2897 -0.4174  0.5516
    2SAPS   C32  168   4.360   3.445  10.119  0.0301 -0.2524 -0.2333
    2SAPS   H2X  169   4.448   3.393  10.162  0.1113 -0.9290 -1.1761
    2SAPS   H2Y  170   4.410   3.520  10.054 -2.4800  1.5664 -0.2360
    2SAPS   C23  171   4.779   3.296  10.447  0.1412 -0.0166 -0.1881
    2SAPS   H3R  172   4.780   3.312  10.337  2.0248  1.5229 -0.0006
    2SAPS   H3S  173   4.730   3.202  10.481  0.2935 -0.3484 -0.8684
    2SAPS   C24  174   4.926   3.275  10.500 -0.8591  0.0190 -0.5509
    2SAPS   H4R  175   4.981   3.197  10.443  0.2814  0.1812  0.2804
    2SAPS   H4S  176   4.901   3.222  10.594 -3.0653  1.4161 -0.2751
    2SAPS   C25  177   5.016   3.399  10.517  0.0740  0.0296 -0.1966
    2SAPS   H5R  178   5.067   3.410  10.614 -2.0780  0.9124  0.9309
    2SAPS   C26  179   5.038   3.494  10.432 -0.4597  0.3208 -0.1417
    2SAPS   H6R  180   5.105   3.574  10.467 -2.6254  3.2247 -2.1332
    2SAPS   C27  181   4.988   3.516  10.291 -0.2011  0.0752 -0.2249
    2SAPS   H7R  182   4.946   3.420  10.252  1.8782 -0.8308 -0.3246
    2SAPS   H7S  183   5.077   3.548  10.233 -0.1218  0.1315 -0.0699
    2SAPS   C28  184   4.889   3.632  10.286 -0.1078 -0.4419 -0.5111
    2SAPS   H8R  185   4.892   3.719  10.354 -1.7496  0.4268 -1.4726
    2SAPS   C29  186   4.810   3.654  10.180  0.7752  1.0221 -0.5021
    2SAPS   H9R  187   4.755   3.749  10.175 -0.3308  0.3650 -1.2608
    2SAPS  C210  188   4.806   3.565  10.061 -0.5394 -0.2190 -0.4382
    2SAPS  H10R  189   4.908   3.546  10.020 -0.6333 -1.2922 -0.2059
    2SAPS  H10S  190   4.745   3.615   9.983 -0.4238 -0.0634 -0.4275
    2SAPS  C211  191   4.731   3.439  10.077  0.0933  0.3784  0.0945
    2SAPS  H11R  192   4.684   3.419  10.175  1.3907 -0.6008  0.5580
    2SAPS  C212  193   4.722   3.341   9.982  0.2828  0.0341 -0.1638
    2SAPS  H12R  194   4.672   3.245  10.003  1.3120 -0.3124  0.7787
    2SAPS  C213  195   4.775   3.337   9.842  0.1940  0.1413  0.1306
    2SAPS  H13R  196   4.826   3.240   9.826 -0.5462 -0.0817 -0.9421
    2SAPS  H13S  197   4.845   3.421   9.823  1.7419 -1.4113 -1.4082
    2SAPS  C214  198   4.667   3.344   9.738 -0.2365  0.3318  0.7081
    2SAPS  H14R  199   4.564   3.372   9.764 -0.3866  0.5865 -0.1193
    2SAPS  C215  200   4.691   3.322   9.606  0.9190  0.9977 -0.5603
    2SAPS  H15R  201   4.602   3.326   9.540 -0.2508  0.4405  0.9388
    2SAPS  C216  202   4.819   3.276   9.545 -0.0007 -0.4346 -1.2250
    2SAPS  H16R  203   4.903   3.279   9.618 -0.0196  0.2543 -1.2240
    2SAPS  H16S  204   4.833   3.350   9.464  0.4096 -0.2075 -0.9512
    2SAPS  C217  205   4.814   3.137   9.479  0.4602  0.0813 -0.2474
    2SAPS  H17R  206   4.821   3.055   9.554  0.7321  1.2781  1.0683
    2SAPS  H17S  207   4.916   3.131   9.437  1.9566  0.4386  3.0186
    2SAPS  C218  208   4.713   3.120   9.373 -0.2022  0.6686  1.2591
    2SAPS  H18R  209   4.613   3.105   9.418 -0.5118  1.7896  0.9677
    2SAPS  H18S  210   4.723   3.016   9.334  0.2537  1.1084  0.1856
    2SAPS  C219  211   4.723   3.230   9.258  0.4132 -0.3337 -1.5420
    2SAPS  H19R  212   4.830   3.252   9.239  1.1915 -2.0955  0.4556
    2SAPS  H19S  213   4.679   3.324   9.298 -0.7654 -1.5341  0.0863
    2SAPS  C220  214   4.658   3.184   9.130 -0.2489  0.2409  0.3424
    2SAPS  H20R  215   4.719   3.104   9.083  0.6000  1.6299 -1.0135
    2SAPS  H20S  216   4.647   3.256   9.046  0.7500 -1.0427 -0.9248
    2SAPS  H20T  217   4.555   3.149   9.154  0.2595 -0.6466  1.3069
    2SAPS   C33  218   4.257   3.365  10.036  0.2356 -0.6636 -0.0745
    2SAPS   H3X  219   4.163   3.421  10.018 -1.1288 -3.3747 -2.1427
    2SAPS   H3Y  220   4.236   3.274  10.096  0.1490  1.0807  2.7195
    2SAPS   C34  221   4.306   3.337   9.891  0.3363  0.4502  0.2926
    2SAPS   H4X  222   4.393   3.268   9.895 -1.5734 -2.2323 -1.4568
    2SAPS   H4Y  223   4.330   3.435   9.845  0.5511  0.3398  0.1669
    2SAPS   C35  224   4.202   3.258   9.811  0.1068 -0.2380 -0.1697
    2SAPS   H5X  225   4.106   3.311   9.827 -0.6178 -0.2448 -3.6104
    2SAPS   H5Y  226   4.186   3.161   9.863  1.2692  0.4513  1.5661
    2SAPS   C36  227   4.218   3.263   9.659  0.2467  0.2631  0.3452
    2SAPS   H6X  228   4.128   3.224   9.608  0.2067 -0.1374  0.7186
    2SAPS   H6Y  229   4.315   3.216   9.635  1.3090  2.4881  0.0058
    2SAPS   C37  230   4.244   3.401   9.601 -0.3533  0.6033  0.1601
    2SAPS   H7X  231   4.338   3.453   9.630  0.0240 -0.1635  0.3267
    2SAPS   H7Y  232   4.172   3.482   9.628  0.1604  1.2423 -0.3488
    2SAPS   C38  233   4.245   3.389   9.443 -0.3295 -0.0229  0.1463
    2SAPS   H8X  234   4.140   3.389   9.408 -0.7553  1.0734  1.3573
    2SAPS   H8Y  235   4.281   3.286   9.423  1.0310  0.3118  0.7398
    2SAPS   C39  236   4.346   3.476   9.370  0.3438 -0.5087 -0.3851
    2SAPS   H9X  237   4.449   3.445   9.398  1.3125  2.2377 -0.6537
    2SAPS   H9Y  238   4.329   3.579   9.406 -3.6746 -1.0349 -0.2723
    2SAPS  C310  239   4.344   3.451   9.219 -0.1751  0.1223  1.2008
    2SAPS  H10X  240   4.244   3.479   9.177  0.2548 -0.2434 -0.1135
    2SAPS  H10Y  241   4.353   3.341   9.204 -0.2031  0.1387  1.0576
    2SAPS  C311  242   4.457   3.511   9.133  0.6665 -0.1191 -0.4416
    2SAPS  H11X  243   4.551   3.493   9.190  2.5999  1.2193 -2.9761
    2SAPS  H11Y  244   4.441   3.620   9.152 -0.8898 -0.5939  1.2952
    2SAPS  C312  245   4.466   3.466   8.986  0.9321 -0.1834  0.0804
    2SAPS  H12X  246   4.364   3.494   8.950  0.4120 -2.1703 -0.1051
    2SAPS  H12Y  247   4.469   3.355   8.980 -0.8295 -0.2453 -0.4667
    2SAPS  C313  248   4.584   3.529   8.910 -0.4266  0.4287 -0.5315
    2SAPS  H13X  249   4.669   3.475   8.958  0.0471  1.3133 -0.3678
    2SAPS  H13Y  250   4.594   3.634   8.944 -2.7959  0.0562  1.6333
    2SAPS  C314  251   4.583   3.518   8.762 -0.9291 -0.4503 -0.5951
    2SAPS  H14X  252   4.599   3.410   8.741  1.4418 -0.2222 -0.2112
    2SAPS  H14Y  253   4.665   3.581   8.723 -0.4373  1.0842  2.5917
    2SAPS  C315  254   4.444   3.546   8.699 -0.7834  0.3380  0.0735
    2SAPS  H15X  255   4.409   3.644   8.738 -1.7385  1.3067 -2.9594
    2SAPS  H15Y  256   4.363   3.474   8.724 -0.4720  0.2849  0.9649
    2SAPS  C316  257   4.457   3.560   8.548  0.0125  0.3320  0.6189
    2SAPS  H16X  258   4.472   3.461   8.498  0.2806 -0.0664  1.4706
    2SAPS  H16Y  259   4.540   3.628   8.520 -0.7084  1.3562  0.9436
    2SAPS  C317  260   4.331   3.612   8.488 -0.5450 -0.0433  0.2401
    2SAPS  H17X  261   4.304   3.710   8.532  0.4936 -0.2062  1.2891
    2SAPS  H17Y  262   4.244   3.548   8.514 -0.1231 -0.7712 -0.1021
    2SAPS  C318  263   4.338   3.631   8.332 -1.0058 -0.3009  0.1662
    2SAPS  H18X  264   4.396   3.547   8.288 -0.6703  0.8109 -1.5989
    2SAPS  H18Y  265   4.402   3.719   8.311  0.1080 -0.4368  2.6556
    2SAPS  H18Z  266   4.233   3.641   8.297 -0.8588  0.8228 -0.0012
    3SAPS     N  267   5.362   5.578  10.896 -0.5397  0.1661  0.1933
    3SAPS   HN1  268   5.373   5.505  10.823 -0.1937 -1.1725  1.5342
    3SAPS   HN2  269   5.365   5.669  10.846  0.1987  0.2133  0.3130
    3SAPS   HN3  270   5.452   5.575  10.947 -0.9020  0.5550  0.8701
    3SAPS   C12  271   5.247   5.558  10.984  0.3006 -0.3018 -0.1920
    3SAPS  H12A  272   5.248   5.472  11.049 -1.5109 -0.7059 -0.6488
    3SAPS   C13  273   5.219   5.672  11.080  0.2771 -0.5323 -0.4184
    3SAPS  O13A  274   5.301   5.765  11.099  0.0585 -0.1929 -0.1453
    3SAPS  O13B  275   5.105   5.681  11.141 -0.2628 -0.0128 -0.1647
    3SAPS   C11  276   5.121   5.554  10.887 -0.2121 -0.4480  0.2413
    3SAPS  H11A  277   5.084   5.654  10.856  1.3831  0.5943  1.5027
    3SAPS  H11B  278   5.036   5.527  10.953  0.0945  1.8041  1.6484
    3SAPS     P  279   5.037   5.424  10.675  0.2986  0.1018  0.2915
    3SAPS   O13  280   5.096   5.316  10.599  0.4914  0.5126  0.3057
    3SAPS   O14  281   4.920   5.393  10.753  0.8805 -0.1329 -0.1941
    3SAPS   O12  282   5.145   5.477  10.770  0.1137  0.2671  0.1549
    3SAPS   O11  283   5.007   5.545  10.586 -0.2633 -0.3751 -0.8155
    3SAPS    C1  284   5.107   5.638  10.546 -0.2142 -0.6960 -0.6575
    3SAPS    HA  285   5.098   5.738  10.595  2.6765 -0.3640 -0.6171
    3SAPS    HB  286   5.211   5.617  10.579  0.8322  1.8224 -2.0492
    3SAPS    C2  287   5.109   5.652  10.391  0.1503  0.5834 -1.1513
    3SAPS    HS  288   5.004   5.650  10.358 -0.0762 -1.5102 -0.4762
    3SAPS   O21  289   5.193   5.549  10.335 -0.3381 -0.0552  0.3810
    3SAPS   C21  290   5.134   5.441  10.281 -0.3236  0.1171 -0.2997
    3SAPS   O22  291   5.013   5.435  10.262 -0.3740 -0.8593  0.6289
    3SAPS   C22  292   5.240   5.342  10.232  0.4272  0.1652 -0.3941
    3SAPS   H2R  293   5.272   5.368  10.129 -3.5314  2.0627 -1.3465
    3SAPS   H2S  294   5.323   5.369  10.299  0.3432  0.5177 -0.4325
    3SAPS    C3  295   5.163   5.784  10.344 -0.0182 -0.6090 -0.7253
    3SAPS    HX  296   5.265   5.781  10.386 -1.0141  0.7451  1.9826
    3SAPS    HY  297   5.110   5.871  10.388  1.7729  0.8355 -1.2925
    3SAPS   O31  298   5.166   5.795  10.197 -0.0280  0.2953  0.1453
    3SAPS   C31  299   5.049   5.814  10.137 -0.7324 -0.1889 -0.0519
    3SAPS   O32  300   4.945   5.834  10.199  0.5026  0.0696 -0.6032
    3SAPS   C32  301   5.077   5.813   9.989  0.1441  0.5201 -0.3673
    3SAPS   H2X  302   5.183   5.787   9.967 -0.1525 -1.7114  0.5836
    3SAPS   H2Y  303   5.050   5.912   9.947 -0.4729  0.2479 -0.6216
    3SAPS   C23  304   5.186   5.198  10.251 -0.1634  0.3118  0.4880
    3SAPS   H3R  305   5.119   5.184  10.164 -0.5503  0.2828  0.7898
    3SAPS   H3S  306   5.132   5.172  10.344 -0.1658  2.0522  1.0074
    3SAPS   C24  307   5.302   5.103  10.221  0.0088 -0.6630 -0.2463
    3SAPS   H4R  308   5.380   5.115  10.299 -0.7592  0.9852  0.3198
    3SAPS   H4S  309   5.332   5.129  10.118 -1.3932 -1.2603 -0.8355
    3SAPS   C25  310   5.261   4.959  10.223 -0.4646 -0.4135  0.9273
    3SAPS   H5R  311   5.238   4.935  10.328 -2.9400  1.2553  0.8461
    3SAPS   C26  312   5.251   4.865  10.125  0.4982  0.3438 -0.3407
    3SAPS   H6R  313   5.202   4.770  10.150  1.6802 -0.2935 -0.3951
    3SAPS   C27  314   5.277   4.890   9.981 -0.0340 -0.7921 -0.0969
    3SAPS   H7R  315   5.265   4.998   9.957 -1.4691 -1.0629 -0.6945
    3SAPS   H7S  316   5.194   4.833   9.934 -0.1804  1.1854 -2.4209
    3SAPS   C28  317   5.407   4.826   9.944  0.4377 -0.5690  0.1275
    3SAPS   H8R  318   5.460   4.771  10.024 -0.9839 -0.5450  1.1236
    3SAPS   C29  319   5.458   4.828   9.818 -0.6279  0.1171  0.5516
    3SAPS   H9R  320   5.556   4.782   9.798 -0.2464  1.0582  0.2227
    3SAPS  C210  321   5.385   4.891   9.702 -0.7144  0.0626 -0.8172
    3SAPS  H10R  322   5.464   4.936   9.637 -1.9979  2.3491 -0.9063
    3SAPS  H10S  323   5.335   4.982   9.741  3.6371  1.4774  2.2731
    3SAPS  C211  324   5.290   4.791   9.632 -0.3663  0.5483  0.7577
    3SAPS  H11R  325   5.205   4.763   9.696 -0.3797 -0.2993  0.3746
    3SAPS  C212  326   5.293   4.719   9.520  0.4944 -0.4735 -0.2310
    3SAPS  H12R  327   5.212   4.648   9.501  0.0538  0.5693 -2.6796
    3SAPS  C213  328   5.405   4.722   9.420  0.3904 -0.5822 -0.2114
    3SAPS  H13R  329   5.502   4.736   9.473 -0.7800 -1.5568  2.4104
    3SAPS  H13S  330   5.373   4.810   9.360 -0.3209 -0.5458  0.2031
    3SAPS  C214  331   5.418   4.600   9.331  0.4727 -0.8580 -0.8170
    3SAPS  H14R  332   5.431   4.508   9.389 -0.1017 -0.7320 -0.4740
    3SAPS  C215  333   5.412   4.592   9.196  0.5874  0.4507  0.2563
    3SAPS  H15R  334   5.425   4.500   9.137 -0.8192  0.9086 -0.8373
    3SAPS  C216  335   5.394   4.717   9.115  0.1149 -0.2407  0.0677
    3SAPS  H16R  336   5.433   4.815   9.150 -0.7086  1.0603 -2.3978
    3SAPS  H16S  337   5.286   4.741   9.109  0.2470  0.7178  1.1852
    3SAPS  C217  338   5.452   4.707   8.969  0.0738 -0.0813 -0.5765
    3SAPS  H17R  339   5.433   4.807   8.925 -0.6872 -0.4704 -1.1461
    3SAPS  H17S  340   5.388   4.633   8.917 -1.7953  1.9549 -1.2881
    3SAPS  C218  341   5.599   4.674   8.947 -1.2624  0.1103  0.0396
    3SAPS  H18R  342   5.631   4.585   9.005 -0.5195 -1.0078 -1.9883
    3SAPS  H18S  343   5.655   4.765   8.978  0.4552 -1.4620  1.8053
    3SAPS  C219  344   5.620   4.638   8.798 -0.2990  0.7450  0.2658
    3SAPS  H19R  345   5.577   4.712   8.728 -0.2796 -0.1872 -0.7505
    3SAPS  H19S  346   5.559   4.547   8.781  0.4426 -0.4242  3.2438
    3SAPS  C220  347   5.772   4.629   8.766  0.8625 -0.1765  0.1815
    3SAPS  H20R  348   5.803   4.591   8.667  4.6573 -2.2539  1.9625
    3SAPS  H20S  349   5.807   4.555   8.841 -0.3156 -0.2647  0.6677
    3SAPS  H20T  350   5.825   4.725   8.786  1.9988 -0.9481  0.9742
    3SAPS   C33  351   5.001   5.692   9.918  0.1766 -0.4991  0.0741
    3SAPS   H3X  352   4.902   5.669   9.962  0.1105 -6.1587 -2.1369
    3SAPS   H3Y  353   5.055   5.596   9.935  0.1765 -0.2204  1.7322
    3SAPS   C34  354   4.973   5.715   9.770 -0.3401  0.0306  0.3965
    3SAPS   H4X  355   5.066   5.716   9.710 -0.3414 -0.5267  0.3796
    3SAPS   H4Y  356   4.924   5.811   9.745  0.9502  0.5651 -0.1889
    3SAPS   C35  357   4.886   5.605   9.713 -1.1855  0.1020 -0.3842
    3SAPS   H5X  358   4.781   5.621   9.745 -0.6451  2.6260  0.3046
    3SAPS   H5Y  359   4.921   5.510   9.759 -2.6254  0.3569  1.3468
    3SAPS   C36  360   4.894   5.601   9.558 -0.1477  0.2516 -0.2067
    3SAPS   H6X  361   4.999   5.588   9.527 -0.1531 -1.9789  0.5290
    3SAPS   H6Y  362   4.864   5.700   9.518 -3.3099  0.5592  2.4560
    3SAPS   C37  363   4.818   5.492   9.478  0.2289 -0.9258 -0.2631
    3SAPS   H7X  364   4.708   5.505   9.480  0.1280 -1.6861 -0.4926
    3SAPS   H7Y  365   4.828   5.396   9.534 -0.0282 -1.2858 -0.8217
    3SAPS   C38  366   4.866   5.475   9.336  0.1848  0.1212 -0.1096
    3SAPS   H8X  367   4.947   5.398   9.338  1.3158  1.2380 -0.7573
    3SAPS   H8Y  368   4.918   5.567   9.303 -0.6811 -0.1301 -2.3704
    3SAPS   C39  369   4.760   5.429   9.237  0.0578  0.0352  0.3932
    3SAPS   H9X  370   4.688   5.514   9.242  1.5116  1.5163 -1.8014
    3SAPS   H9Y  371   4.706   5.334   9.258 -0.1717 -0.2596 -1.3306
    3SAPS  C310  372   4.809   5.413   9.094 -0.2838  0.4271 -0.3358
    3SAPS  H10X  373   4.908   5.363   9.098 -0.0425  0.9102 -0.1641
    3SAPS  H10Y  374   4.827   5.515   9.054  0.0564  0.5775  0.1910
    3SAPS  C311  375   4.715   5.341   8.999  0.6447  0.5807  0.3286
    3SAPS  H11X  376   4.628   5.409   8.988  0.1436 -0.1444 -0.3124
    3SAPS  H11Y  377   4.674   5.249   9.046 -0.5315  1.6689  1.5217
    3SAPS  C312  378   4.756   5.309   8.859 -0.4525 -0.0816  1.1529
    3SAPS  H12X  379   4.801   5.208   8.859  1.1420  0.5888 -0.2049
    3SAPS  H12Y  380   4.832   5.383   8.828 -1.2824 -0.2574 -1.5105
    3SAPS  C313  381   4.644   5.320   8.752  0.1356 -0.1553 -0.4024
    3SAPS  H13X  382   4.690   5.327   8.651 -1.6004  1.3471 -1.1428
    3SAPS  H13Y  383   4.580   5.409   8.763  0.4145  0.1356 -1.1012
    3SAPS  C314  384   4.556   5.198   8.757 -1.3109 -0.2836 -0.1729
    3SAPS  H14X  385   4.513   5.204   8.859  3.6691  1.9216  2.1761
    3SAPS  H14Y  386   4.609   5.101   8.746  1.1806  0.8056  1.2966
    3SAPS  C315  387   4.440   5.210   8.658  0.4082 -0.3586 -0.5290
    3SAPS  H15X  388   4.468   5.205   8.551 -1.6770  2.1653 -1.2993
    3SAPS  H15Y  389   4.397   5.312   8.658  1.3616  0.0710 -1.9216
    3SAPS  C316  390   4.319   5.113   8.670  0.0452 -0.2411  0.5682
    3SAPS  H16X  391   4.230   5.160   8.624  0.3916  0.2091  0.3464
    3SAPS  H16Y  392   4.295   5.095   8.777  1.1797 -0.8566  0.7396
    3SAPS  C317  393   4.338   4.978   8.604 -0.7472 -0.1651 -0.0748
    3SAPS  H17X  394   4.272   4.899   8.647 -0.4112  0.3554  1.4774
    3SAPS  H17Y  395   4.440   4.935   8.615 -0.0620  0.0659 -4.1146
    3SAPS  C318  396   4.314   4.998   8.457  1.3300 -0.4197 -0.1783
    3SAPS  H18X  397   4.314   4.898   8.409 -1.5423 -0.9604  0.7265
    3SAPS  H18Y  398   4.385   5.058   8.396  0.4285  0.7941 -0.0771
    3SAPS  H18Z  399   4.208   5.028   8.445  1.1257 -0.2582  1.7448
    4SAPS     N  400   2.742   0.838  10.869  0.4686 -0.2982  0.5716
    4SAPS   HN1  401   2.671   0.787  10.813  0.5428 -1.7110  1.6988
    4SAPS   HN2  402   2.738   0.940  10.848  0.7255 -0.8740 -2.8065
    4SAPS   HN3  403   2.836   0.803  10.842  1.7652  2.0084  1.7449
    4SAPS   C12  404   2.706   0.810  11.011 -0.2155 -0.2550  0.3452
    4SAPS  H12A  405   2.691   0.703  11.012  1.8769 -0.7191 -2.4545
    4SAPS   C13  406   2.816   0.854  11.112  0.0153 -0.0181  0.3270
    4SAPS  O13A  407   2.905   0.927  11.065 -0.3254 -0.1246  0.2192
    4SAPS  O13B  408   2.808   0.846  11.237 -0.2931 -0.4114  0.2394
    4SAPS   C11  409   2.575   0.893  11.046  0.3512  0.1792  0.2900
    4SAPS  H11A  410   2.603   1.000  11.042  0.5328  0.1878  1.3827
    4SAPS  H11B  411   2.547   0.863  11.149 -0.0303  2.5606  0.9400
    4SAPS     P  412   2.350   0.969  10.930 -0.0161 -0.1371 -0.5888
    4SAPS   O13  413   2.232   0.898  10.978  0.2033 -0.0664 -0.9361
    4SAPS   O14  414   2.381   1.099  10.996 -0.0484 -0.0723  0.6917
    4SAPS   O12  415   2.474   0.866  10.949 -0.2614  0.0334  0.0624
    4SAPS   O11  416   2.328   0.994  10.773 -0.6783  0.3832  0.1570
    4SAPS    C1  417   2.349   0.891  10.673  0.9207 -0.0679  0.8056
    4SAPS    HA  418   2.449   0.895  10.625  0.2054 -1.0476 -0.8485
    4SAPS    HB  419   2.333   0.790  10.718  1.1363  0.1633  1.4142
    4SAPS    C2  420   2.250   0.903  10.552  0.3733 -0.4105  0.6143
    4SAPS    HS  421   2.241   0.804  10.503 -1.1327 -0.3300  0.6647
    4SAPS   O21  422   2.311   1.007  10.470 -0.2479  0.3545  0.2448
    4SAPS   C21  423   2.403   0.952  10.389 -0.3763  0.1740  0.3516
    4SAPS   O22  424   2.432   0.834  10.388  0.1166 -0.0058  0.8308
    4SAPS   C22  425   2.461   1.065  10.307 -0.7413 -0.1668  0.6128
    4SAPS   H2R  426   2.501   1.140  10.379 -0.6646  1.7022 -1.2463
    4SAPS   H2S  427   2.553   1.024  10.261 -1.0658  1.5002 -1.7401
    4SAPS    C3  428   2.105   0.955  10.597 -0.7813 -0.4489 -0.4550
    4SAPS    HX  429   2.111   1.037  10.671  2.5444 -2.4068  1.7402
    4SAPS    HY  430   2.056   0.870  10.650 -0.4108 -1.2279 -1.3210
    4SAPS   O31  431   2.032   0.984  10.476 -0.0295  0.7008 -0.3243
    4SAPS   C31  432   2.012   1.109  10.454 -0.1984  0.5974 -0.2252
    4SAPS   O32  433   2.063   1.206  10.511  0.0506 -0.0248 -0.1207
    4SAPS   C32  434   1.915   1.119  10.342 -0.4112  0.0514 -0.3331
    4SAPS   H2X  435   1.808   1.125  10.371 -0.0723 -0.4122  1.0725
    4SAPS   H2Y  436   1.922   1.028  10.280  2.0536  0.4046 -0.6688
    4SAPS   C23  437   2.367   1.141  10.208 -0.2052  0.8208  0.1293
    4SAPS   H3R  438   2.272   1.166  10.260 -0.0774 -0.2679  0.9191
    4SAPS   H3S  439   2.339   1.060  10.138 -3.0245  0.9997  0.9165
    4SAPS   C24  440   2.431   1.253  10.121 -0.2348 -0.4587 -0.1639
    4SAPS   H4R  441   2.532   1.219  10.090  1.0903  1.0949  2.1749
    4SAPS   H4S  442   2.452   1.332  10.196 -0.8507 -1.8021  1.4610
    4SAPS   C25  443   2.361   1.299   9.995  0.2938 -0.3205  0.2452
    4SAPS   H5R  444   2.257   1.324  10.017 -0.3754 -2.9232  0.3626
    4SAPS   C26  445   2.415   1.317   9.875  0.0277 -0.4416  0.3754
    4SAPS   H6R  446   2.346   1.355   9.798 -2.7796 -1.4746  2.2015
    4SAPS   C27  447   2.556   1.286   9.842 -0.1761 -0.1064 -0.4969
    4SAPS   H7R  448   2.563   1.177   9.823  0.1771  0.2069 -2.3159
    4SAPS   H7S  449   2.644   1.299   9.910  1.2412 -2.4535 -1.7634
    4SAPS   C28  450   2.608   1.354   9.719  1.0274  0.0576 -0.0803
    4SAPS   H8R  451   2.663   1.448   9.736 -0.2909  1.1510 -1.5631
    4SAPS   C29  452   2.590   1.314   9.595 -0.3232  0.0718 -0.1937
    4SAPS   H9R  453   2.620   1.377   9.509 -1.4380  1.1783  0.1973
    4SAPS  C210  454   2.512   1.191   9.554 -0.7817 -0.4714  0.1170
    4SAPS  H10R  455   2.511   1.112   9.632 -2.0039 -1.4930 -0.8967
    4SAPS  H10S  456   2.558   1.148   9.462  2.9579  0.4273  1.3804
    4SAPS  C211  457   2.368   1.221   9.525  0.0620 -0.0331  0.2329
    4SAPS  H11R  458   2.328   1.299   9.591  1.2815  0.3434  0.5610
    4SAPS  C212  459   2.280   1.169   9.444  0.7454  1.1584  0.5824
    4SAPS  H12R  460   2.174   1.195   9.454  0.3776 -0.1161  0.1612
    4SAPS  C213  461   2.309   1.059   9.348  0.1663  0.8153 -0.0854
    4SAPS  H13R  462   2.296   0.958   9.391 -0.0300  0.1988 -1.5287
    4SAPS  H13S  463   2.418   1.062   9.326  0.3356  1.3884  0.7731
    4SAPS  C214  464   2.220   1.072   9.221  0.3563 -0.0996 -0.6759
    4SAPS  H14R  465   2.117   1.106   9.236  0.3982 -1.2730  3.8085
    4SAPS  C215  466   2.262   1.046   9.095  0.3548  0.3317 -0.6382
    4SAPS  H15R  467   2.192   1.042   9.010 -3.0864  0.1329  2.0215
    4SAPS  C216  468   2.395   0.988   9.062 -0.0115  0.2179  0.1682
    4SAPS  H16R  469   2.368   0.908   8.990 -0.6137 -0.1092  0.7419
    4SAPS  H16S  470   2.444   0.933   9.145 -2.8503 -2.5035  0.2345
    4SAPS  C217  471   2.495   1.074   8.984 -0.6625 -0.7350 -1.1294
    4SAPS  H17R  472   2.438   1.135   8.911 -1.1181  1.2732  0.8165
    4SAPS  H17S  473   2.571   1.006   8.940 -0.3600  0.0854 -1.8952
    4SAPS  C218  474   2.582   1.170   9.075  0.0205 -0.1441 -0.2888
    4SAPS  H18R  475   2.647   1.108   9.141 -0.7662 -0.0999  0.5479
    4SAPS  H18S  476   2.507   1.217   9.143 -0.0424 -0.7594  0.0756
    4SAPS  C219  477   2.659   1.270   8.996  0.9168 -0.4405  0.0715
    4SAPS  H19R  478   2.590   1.325   8.928  0.6281 -2.7148 -1.5727
    4SAPS  H19S  479   2.733   1.215   8.934  0.8219 -0.3697 -0.1036
    4SAPS  C220  480   2.742   1.369   9.082  0.4136 -0.4438 -0.2737
    4SAPS  H20R  481   2.773   1.465   9.034 -0.2679  0.2546  0.6490
    4SAPS  H20S  482   2.836   1.319   9.114  1.1701 -0.6333 -2.6436
    4SAPS  H20T  483   2.682   1.407   9.167  0.3697  1.3458 -1.0532
    4SAPS   C33  484   1.958   1.234  10.244  0.4809 -0.1424 -0.7673
    4SAPS   H3X  485   2.067   1.226  10.225  0.6802  1.7914 -0.5819
    4SAPS   H3Y  486   1.944   1.325  10.305 -0.0206 -0.9757  0.4071
    4SAPS   C34  487   1.872   1.238  10.118  0.0621  0.5503 -0.1127
    4SAPS   H4X  488   1.766   1.223  10.150  1.2494 -0.7574  3.7068
    4SAPS   H4Y  489   1.897   1.155  10.049  2.2925  1.8513 -0.9598
    4SAPS   C35  490   1.885   1.363  10.030  0.3970  0.1724  0.1109
    4SAPS   H5X  491   1.988   1.366   9.990  1.5166 -1.5286  2.6164
    4SAPS   H5Y  492   1.866   1.451  10.094  0.1324  0.2240 -0.0380
    4SAPS   C36  493   1.794   1.364   9.907 -0.1660 -0.0067 -0.3310
    4SAPS   H6X  494   1.727   1.451   9.922  0.6845  0.9970 -2.0726
    4SAPS   H6Y  495   1.749   1.263   9.891 -0.1732  0.0314 -0.5479
    4SAPS   C37  496   1.867   1.413   9.773  0.2833  0.2562 -0.8124
    4SAPS   H7X  497   1.948   1.338   9.757 -0.8384 -0.9848 -0.9002
    4SAPS   H7Y  498   1.902   1.516   9.793  0.3364 -0.0084  0.5265
    4SAPS   C38  499   1.785   1.405   9.645 -0.4287  0.6881  0.0157
    4SAPS   H8X  500   1.701   1.478   9.652 -0.3474  0.7194  0.6876
    4SAPS   H8Y  501   1.744   1.302   9.651  0.6817  0.2704  0.6673
    4SAPS   C39  502   1.865   1.444   9.525  0.4537 -0.2195  0.2786
    4SAPS   H9X  503   1.974   1.422   9.531  0.4992 -0.4125 -0.9327
    4SAPS   H9Y  504   1.850   1.554   9.517  1.1222 -0.2000 -1.1128
    4SAPS  C310  505   1.806   1.376   9.400 -0.4085 -0.6282  0.3988
    4SAPS  H10X  506   1.708   1.421   9.371 -0.2413 -0.2782  0.3779
    4SAPS  H10Y  507   1.792   1.268   9.423  0.3617 -0.6410  0.8407
    4SAPS  C311  508   1.897   1.386   9.281  0.2721  0.3189  0.1079
    4SAPS  H11X  509   1.989   1.325   9.294  0.1837  0.3157  0.7683
    4SAPS  H11Y  510   1.926   1.488   9.248 -1.7001  0.1014 -2.6905
    4SAPS  C312  511   1.832   1.329   9.152  0.2816 -0.6925 -0.1121
    4SAPS  H12X  512   1.761   1.250   9.186 -0.2658 -0.2915 -0.3186
    4SAPS  H12Y  513   1.905   1.274   9.088  0.0662 -1.3609  0.2109
    4SAPS  C313  514   1.744   1.428   9.071  0.0714 -0.4145  0.3336
    4SAPS  H13X  515   1.820   1.501   9.037 -0.0045 -1.3065 -1.8779
    4SAPS  H13Y  516   1.675   1.477   9.143  1.5550  2.4207 -0.0371
    4SAPS  C314  517   1.667   1.363   8.958 -0.5873  0.1171 -0.1048
    4SAPS  H14X  518   1.575   1.426   8.949 -1.2776 -0.7481  0.6144
    4SAPS  H14Y  519   1.636   1.261   8.991  0.8211 -1.5278 -3.4031
    4SAPS  C315  520   1.750   1.368   8.833 -0.0185 -0.0747  0.4761
    4SAPS  H15X  521   1.840   1.306   8.848  1.4317  1.7667 -0.1713
    4SAPS  H15Y  522   1.789   1.473   8.830 -0.8029  0.2520  1.1610
    4SAPS  C316  523   1.679   1.323   8.708  0.0284 -0.3842 -0.4797
    4SAPS  H16X  524   1.634   1.225   8.734  0.3826 -0.3055  0.4993
    4SAPS  H16Y  525   1.753   1.311   8.626 -1.8393 -1.0465 -2.1269
    4SAPS  C317  526   1.571   1.421   8.665 -0.4384 -0.4143 -0.2884
    4SAPS  H17X  527   1.619   1.518   8.638  0.6330 -0.9052 -0.2028
    4SAPS  H17Y  528   1.504   1.431   8.753  0.5083 -0.3519  0.4430
    4SAPS  C318  529   1.478   1.373   8.553  0.3268  0.1904  0.5652
    4SAPS  H18X  530   1.435   1.463   8.505 -1.8913 -0.8176  0.5156
    4SAPS  H18Y  531   1.396   1.306   8.589 -2.4467  1.4212 -2.8726
    4SAPS  H18Z  532   1.542   1.335   8.471  1.2441  2.7351  0.0294
    5SAPS     N  533   6.105   4.504  10.917 -0.0866 -0.1673  0.6187
    5SAPS   HN1  534   6.008   4.541  10.913  0.3266  0.8546 -0.6548
    5SAPS   HN2  535   6.170   4.577  10.950  1.8243 -0.2742 -2.4705
    5SAPS   HN3  536   6.132   4.477  10.820 -0.5773 -4.2876  1.4296
    5SAPS   C12  537   6.119   4.382  11.009 -0.2534  0.4227 -0.5112
    5SAPS  H12A  538   6.226   4.367  11.005 -0.1362  0.3520  1.7715
    5SAPS   C13  539   6.074   4.422  11.150 -0.3259  0.9301  0.4504
    5SAPS  O13A  540   6.057   4.545  11.179  0.4586  0.3275  0.3069
    5SAPS  O13B  541   6.061   4.332  11.239  0.0971  0.2166  0.7830
    5SAPS   C11  542   6.027   4.269  10.954  0.6278 -0.0671 -0.0017
    5SAPS  H11A  543   5.926   4.313  10.941 -0.6178 -3.0697 -1.5168
    5SAPS  H11B  544   6.010   4.187  11.028  0.8255  1.5004  1.8446
    5SAPS     P  545   6.050   4.070  10.780 -0.0138 -0.2629 -0.6060
    5SAPS   O13  546   6.010   3.989  10.894 -0.3015 -0.0450 -0.3593
    5SAPS   O14  547   5.956   4.062  10.667 -0.1507  0.1359  0.0724
    5SAPS   O12  548   6.081   4.216  10.834  0.0979  0.1948  0.5563
    5SAPS   O11  549   6.192   4.025  10.726  0.0881 -0.3430 -0.4721
    5SAPS    C1  550   6.214   3.894  10.670 -0.1189 -0.3750  0.2367
    5SAPS    HA  551   6.191   3.822  10.751 -2.0050  0.1725  0.2472
    5SAPS    HB  552   6.144   3.882  10.584  2.4094  1.8396 -2.3770
    5SAPS    C2  553   6.355   3.886  10.601  0.4580 -0.0455 -0.1471
    5SAPS    HS  554   6.424   3.886  10.688  0.6447  1.3314 -0.2751
    5SAPS   O21  555   6.376   4.002  10.516 -0.1690 -0.6733  0.4354
    5SAPS   C21  556   6.459   4.097  10.551 -0.3960 -0.1485  0.3500
    5SAPS   O22  557   6.519   4.099  10.657  0.2596 -0.4090 -0.8439
    5SAPS   C22  558   6.483   4.186  10.430  0.5253  1.0099  0.8363
    5SAPS   H2R  559   6.540   4.126  10.355 -0.1418  0.7900  0.4954
    5SAPS   H2S  560   6.392   4.231  10.384 -0.9451 -1.1912  1.4275
    5SAPS    C3  561   6.379   3.762  10.517  1.0364 -0.0205 -0.5367
    5SAPS    HX  562   6.360   3.672  10.579  1.9081  1.1919  1.5806
    5SAPS    HY  563   6.483   3.762  10.478  0.4781  0.5229 -2.1392
    5SAPS   O31  564   6.281   3.751  10.407  0.0643 -0.2242 -0.4769
    5SAPS   C31  565   6.314   3.764  10.280  0.2751  0.0949  0.6278
    5SAPS   O32  566   6.429   3.755  10.233 -0.1313 -0.0222  0.1613
    5SAPS   C32  567   6.197   3.779  10.184  0.3079 -0.0726 -0.4875
    5SAPS   H2X  568   6.140   3.871  10.208  1.8899  0.6821  0.5346
    5SAPS   H2Y  569   6.125   3.697  10.204 -1.8733  1.7054 -0.6282
    5SAPS   C23  570   6.562   4.311  10.463  0.1976  0.1744  0.4275
    5SAPS   H3R  571   6.654   4.273  10.513  0.6192  0.8199  0.1463
    5SAPS   H3S  572   6.516   4.370  10.545  0.7530  0.5240  0.4946
    5SAPS   C24  573   6.592   4.395  10.338  0.4472  0.3591  0.3694
    5SAPS   H4R  574   6.629   4.492  10.379  0.3474  0.4344  0.2839
    5SAPS   H4S  575   6.498   4.428  10.287  0.3779 -0.8678 -0.3251
    5SAPS   C25  576   6.703   4.334  10.257 -0.6286 -0.8355  0.1093
    5SAPS   H5R  577   6.802   4.363  10.295 -1.4296  1.7217  0.4377
    5SAPS   C26  578   6.704   4.251  10.148 -0.0823 -0.1961  0.7105
    5SAPS   H6R  579   6.795   4.235  10.089 -0.3472  0.1829  0.1910
    5SAPS   C27  580   6.583   4.195  10.078 -0.7519  0.2476 -0.0106
    5SAPS   H7R  581   6.490   4.200  10.140 -0.9993 -0.1829 -0.3426
    5SAPS   H7S  582   6.595   4.087  10.055  0.5853  0.1115  1.2013
    5SAPS   C28  583   6.561   4.269   9.949  0.6508  0.1248  0.1089
    5SAPS   H8R  584   6.594   4.374   9.946 -2.4929  1.2024 -0.1797
    5SAPS   C29  585   6.507   4.210   9.838  0.2713  0.3495  0.9134
    5SAPS   H9R  586   6.511   4.261   9.740 -1.9047 -4.1812 -1.9130
    5SAPS  C210  587   6.459   4.063   9.819  0.3440 -0.3118  0.3315
    5SAPS  H10R  588   6.357   4.076   9.777  0.7783  3.2159  0.0446
    5SAPS  H10S  589   6.447   4.003   9.912  0.4676  0.7360  1.0445
    5SAPS  C211  590   6.541   3.985   9.718  0.4634 -0.2133 -0.9330
    5SAPS  H11R  591   6.629   3.935   9.762  1.9689  1.2725 -2.1583
    5SAPS  C212  592   6.508   3.968   9.588  0.2180  0.4323 -0.7098
    5SAPS  H12R  593   6.584   3.920   9.525 -0.0942  2.2974 -2.5981
    5SAPS  C213  594   6.390   4.032   9.522  0.1525  0.9158  0.2043
    5SAPS  H13R  595   6.416   4.065   9.419 -2.0075 -1.9654 -1.4468
    5SAPS  H13S  596   6.355   4.126   9.568  0.5341  0.3866  1.6307
    5SAPS  C214  597   6.263   3.947   9.522  0.5343 -0.3479  0.1032
    5SAPS  H14R  598   6.243   3.882   9.609 -1.3336 -0.5072 -0.4073
    5SAPS  C215  599   6.175   3.945   9.419 -0.1663  0.0135  0.3603
    5SAPS  H15R  600   6.089   3.876   9.414  0.4227 -0.6541 -2.0714
    5SAPS  C216  601   6.186   4.033   9.294  0.1375 -0.1407 -0.1714
    5SAPS  H16R  602   6.289   4.029   9.254 -0.4774  0.5488 -1.9351
    5SAPS  H16S  603   6.166   4.137   9.328  0.5654 -0.7662  2.1968
    5SAPS  C217  604   6.076   4.001   9.193  0.7174  0.1744 -0.3419
    5SAPS  H17R  605   5.986   4.011   9.256  1.3547 -0.2858  0.6769
    5SAPS  H17S  606   6.077   3.902   9.142  1.5675  0.1213 -0.2404
    5SAPS  C218  607   6.066   4.110   9.097  0.2785 -0.0890 -0.1650
    5SAPS  H18R  608   5.966   4.105   9.049  0.1207  1.3042 -0.0156
    5SAPS  H18S  609   6.069   4.212   9.141  0.2384 -0.8726  1.7449
    5SAPS  C219  610   6.167   4.096   8.979 -0.3309 -0.1592 -0.3065
    5SAPS  H19R  611   6.164   3.991   8.942 -1.1510 -1.5486  3.2679
    5SAPS  H19S  612   6.269   4.103   9.021  0.3754  0.2276 -2.0133
    5SAPS  C220  613   6.157   4.204   8.870  0.1741 -0.1039 -0.2792
    5SAPS  H20R  614   6.231   4.180   8.789 -1.2367 -0.9668 -1.3629
    5SAPS  H20S  615   6.172   4.305   8.914 -0.3765 -0.2591  0.2661
    5SAPS  H20T  616   6.055   4.194   8.828 -0.1929 -0.2377  0.6432
    5SAPS   C33  617   6.214   3.790  10.035 -0.2328  0.0994  1.4321
    5SAPS   H3X  618   6.297   3.860  10.012 -0.8124  0.2478 -0.4037
    5SAPS   H3Y  619   6.120   3.826   9.989  1.4184  0.1591 -2.3235
    5SAPS   C34  620   6.246   3.652   9.976  0.4822  0.6891 -0.3581
    5SAPS   H4X  621   6.170   3.571   9.985 -0.4616  1.6058  0.2395
    5SAPS   H4Y  622   6.335   3.620  10.034  0.3637 -0.4276 -0.7620
    5SAPS   C35  623   6.294   3.657   9.831  0.2082  0.1797  0.3539
    5SAPS   H5X  624   6.362   3.570   9.825  0.1533  0.2352 -1.3769
    5SAPS   H5Y  625   6.355   3.748   9.810  2.0348 -0.7428  1.4168
    5SAPS   C36  626   6.188   3.638   9.724  0.4002 -0.1403  0.0907
    5SAPS   H6X  627   6.242   3.634   9.627 -0.1225  2.9561 -0.4561
    5SAPS   H6Y  628   6.133   3.735   9.730  1.8715  0.6189  2.4103
    5SAPS   C37  629   6.093   3.511   9.735  0.0173 -0.3643 -0.0256
    5SAPS   H7X  630   6.019   3.532   9.815 -0.2553  0.1155 -0.4014
    5SAPS   H7Y  631   6.166   3.428   9.743  1.4267  0.6985 -1.3135
    5SAPS   C38  632   5.993   3.490   9.615  0.1407 -0.2103 -1.0318
    5SAPS   H8X  633   5.930   3.402   9.641 -1.4935  0.9439 -0.8975
    5SAPS   H8Y  634   6.050   3.460   9.524 -0.0409  0.6024 -1.4230
    5SAPS   C39  635   5.892   3.604   9.585 -0.8652  0.2271  0.3288
    5SAPS   H9X  636   5.966   3.684   9.608 -0.7764  0.4170 -0.5646
    5SAPS   H9Y  637   5.815   3.612   9.664  0.2371  1.4209  1.3245
    5SAPS  C310  638   5.840   3.596   9.439 -0.5254 -0.1489  0.0693
    5SAPS  H10X  639   5.750   3.531   9.445 -1.4542  0.9916 -0.9308
    5SAPS  H10Y  640   5.908   3.543   9.369 -0.3841 -1.9904  1.5135
    5SAPS  C311  641   5.798   3.721   9.371 -0.7044 -0.5007  0.3092
    5SAPS  H11X  642   5.877   3.799   9.380 -1.3184 -0.0722  2.8704
    5SAPS  H11Y  643   5.709   3.757   9.427  0.4348  0.6871  1.4538
    5SAPS  C312  644   5.783   3.712   9.219 -0.6835  0.0265  0.0993
    5SAPS  H12X  645   5.881   3.676   9.181 -0.6452  0.0574  0.1668
    5SAPS  H12Y  646   5.761   3.817   9.189  2.9957  0.3734 -1.9695
    5SAPS  C313  647   5.668   3.613   9.175 -0.0567  0.7967 -0.2219
    5SAPS  H13X  648   5.579   3.648   9.232 -0.3397  0.0863 -0.2109
    5SAPS  H13Y  649   5.699   3.516   9.220  0.4576  0.4334 -1.3134
    5SAPS  C314  650   5.641   3.597   9.031 -0.5813  0.1670  0.1307
    5SAPS  H14X  651   5.732   3.572   8.972 -0.5212  1.7839 -0.5019
    5SAPS  H14Y  652   5.607   3.697   8.997 -2.6585 -0.2872  0.7526
    5SAPS  C315  653   5.537   3.480   9.010  0.3811  0.1661  0.4921
    5SAPS  H15X  654   5.454   3.486   9.083  0.0226  2.5723 -0.0385
    5SAPS  H15Y  655   5.593   3.387   9.034  1.6328  0.1982 -1.9500
    5SAPS  C316  656   5.490   3.452   8.866  0.2758  0.4392  0.3196
    5SAPS  H16X  657   5.423   3.533   8.831 -0.0751  1.4658  3.1169
    5SAPS  H16Y  658   5.428   3.360   8.861  0.5518  0.3055 -1.7956
    5SAPS  C317  659   5.604   3.413   8.770 -0.1184  0.3697 -0.7105
    5SAPS  H17X  660   5.661   3.325   8.806  1.1995  0.9335 -1.3529
    5SAPS  H17Y  661   5.676   3.498   8.774 -2.0302  2.0611 -0.2825
    5SAPS  C318  662   5.548   3.368   8.636  0.4568 -0.0033  0.2945
    5SAPS  H18X  663   5.473   3.438   8.592 -1.1159 -0.3774  2.2048
    5SAPS  H18Y  664   5.500   3.268   8.652 -0.6971  0.4739 -0.1147
    5SAPS  H18Z  665   5.629   3.351   8.562 -0.9611 -0.2919 -1.2622
    6SAPS     N  666   5.218   6.001  11.004 -0.6279  0.8802 -0.0606
    6SAPS   HN1  667   5.138   6.034  11.062  0.9568  0.1279  2.7246
    6SAPS   HN2  668   5.198   5.987  10.902  1.3238  2.3810 -0.7062
    6SAPS   HN3  669   5.250   5.912  11.046 -0.5825  0.8171 -0.2282
    6SAPS   C12  670   5.342   6.090  11.011 -0.2626  0.6864  0.5331
    6SAPS  H12A  671   5.321   6.192  10.984  1.9810  1.3040  0.9554
    6SAPS   C13  672   5.407   6.088  11.154  0.0604  0.7724 -0.3200
    6SAPS  O13A  673   5.356   6.026  11.251 -0.2166  0.0894 -0.4106
    6SAPS  O13B  674   5.505   6.160  11.172 -0.2644 -0.4576 -0.1574
    6SAPS   C11  675   5.451   6.032  10.903 -0.2784  0.3558 -0.1205
    6SAPS  H11A  676   5.489   5.934  10.940 -2.0954 -0.8458 -1.3105
    6SAPS  H11B  677   5.530   6.111  10.897  0.6572 -0.6183 -0.9574
    6SAPS     P  678   5.400   5.891  10.689 -0.5649  0.0278  0.5379
    6SAPS   O13  679   5.343   5.781  10.763 -0.0180  0.3806 -0.2307
    6SAPS   O14  680   5.326   5.931  10.566  0.2437  0.4273 -0.1138
    6SAPS   O12  681   5.397   6.030  10.775 -0.0965 -0.5856 -0.0466
    6SAPS   O11  682   5.542   5.862  10.630 -0.1016  0.5878 -0.0825
    6SAPS    C1  683   5.653   5.958  10.637  0.0285  0.3970 -0.1955
    6SAPS    HA  684   5.655   6.026  10.725 -1.3494  1.9446 -1.2759
    6SAPS    HB  685   5.747   5.900  10.633  0.4464  1.0683 -0.2503
    6SAPS    C2  686   5.668   6.031  10.502 -0.1966 -0.2091 -1.7388
    6SAPS    HS  687   5.577   6.095  10.504  0.2172  0.4036  0.9741
    6SAPS   O21  688   5.666   5.934  10.387 -0.3679  0.0053 -0.4507
    6SAPS   C21  689   5.603   5.991  10.281  0.2030 -0.1071  0.5230
    6SAPS   O22  690   5.537   6.090  10.282  1.0262 -0.4338  0.0954
    6SAPS   C22  691   5.614   5.894  10.166 -0.1966  0.5633 -0.9124
    6SAPS   H2R  692   5.579   5.947  10.074 -1.3943 -1.7795 -1.8895
    6SAPS   H2S  693   5.719   5.865  10.147 -0.8379 -1.6987 -1.3041
    6SAPS    C3  694   5.794   6.126  10.510  0.2363 -0.8555 -0.1320
    6SAPS    HX  695   5.884   6.062  10.493  1.4821  0.7601  0.1570
    6SAPS    HY  696   5.820   6.158  10.613 -1.1280  1.6304 -0.5033
    6SAPS   O31  697   5.785   6.228  10.406 -0.4233 -0.4879  0.4590
    6SAPS   C31  698   5.712   6.335  10.446 -0.6182 -0.0274  0.0744
    6SAPS   O32  699   5.662   6.352  10.554 -0.1040 -0.4248  0.4220
    6SAPS   C32  700   5.707   6.434  10.334  0.3645  0.3360  0.3493
    6SAPS   H2X  701   5.810   6.438  10.292  0.2050 -0.4265 -0.1278
    6SAPS   H2Y  702   5.690   6.538  10.368 -4.0953  0.4116 -1.4892
    6SAPS   C23  703   5.518   5.776  10.192 -0.6439  0.0111  0.0671
    6SAPS   H3R  704   5.443   5.792  10.273 -1.3555  1.8367 -0.8965
    6SAPS   H3S  705   5.585   5.692  10.218  0.1860  0.6207 -0.0443
    6SAPS   C24  706   5.447   5.725  10.067 -0.1038 -0.0563  0.3973
    6SAPS   H4R  707   5.382   5.809  10.034  1.2285  0.5522 -0.7572
    6SAPS   H4S  708   5.374   5.648  10.101 -0.5639  0.0821 -0.2555
    6SAPS   C25  709   5.534   5.674   9.955 -0.2947  0.2231  0.2333
    6SAPS   H5R  710   5.631   5.719   9.931 -0.1848  0.2712  0.7460
    6SAPS   C26  711   5.505   5.581   9.861  0.0243  0.6173  0.0867
    6SAPS   H6R  712   5.592   5.545   9.805  0.2276 -0.9995  1.3602
    6SAPS   C27  713   5.389   5.485   9.845 -0.0845  0.4732  0.2511
    6SAPS   H7R  714   5.327   5.485   9.937 -1.3816  0.9320 -0.5919
    6SAPS   H7S  715   5.430   5.384   9.828 -5.3912 -1.7865 -1.2865
    6SAPS   C28  716   5.294   5.509   9.727 -0.0952  0.4072 -0.2673
    6SAPS   H8R  717   5.265   5.614   9.709  2.1813  1.0505 -0.4682
    6SAPS   C29  718   5.230   5.417   9.663  0.2188  0.0990 -0.3447
    6SAPS   H9R  719   5.158   5.447   9.586 -0.5561 -1.1051 -0.1263
    6SAPS  C210  720   5.245   5.268   9.697 -0.0699  0.6827  0.1214
    6SAPS  H10R  721   5.350   5.243   9.723  0.3137  1.0686 -0.9679
    6SAPS  H10S  722   5.238   5.205   9.606  0.8160  0.1161  0.4351
    6SAPS  C211  723   5.143   5.232   9.805  0.5708  0.3342 -0.0325
    6SAPS  H11R  724   5.142   5.289   9.899 -1.0342  1.7604 -0.8415
    6SAPS  C212  725   5.040   5.146   9.780 -0.1936 -0.5275 -0.4315
    6SAPS  H12R  726   4.974   5.126   9.867 -0.9836 -0.6225 -1.0431
    6SAPS  C213  727   5.005   5.062   9.658  0.3093  0.4023 -0.6372
    6SAPS  H13R  728   4.945   4.977   9.696  1.1343 -0.0070 -0.2147
    6SAPS  H13S  729   5.086   4.994   9.626 -0.2808 -1.0299  0.7759
    6SAPS  C214  730   4.938   5.122   9.541 -0.1458  0.4974  0.1029
    6SAPS  H14R  731   4.836   5.159   9.555  0.1972  2.2438 -1.6214
    6SAPS  C215  732   4.989   5.129   9.413 -0.0811 -0.5593  0.2254
    6SAPS  H15R  733   4.935   5.182   9.333  1.6265  1.1847  0.1260
    6SAPS  C216  734   5.115   5.064   9.358  0.1615  0.3537 -0.8087
    6SAPS  H16R  735   5.172   4.999   9.429 -1.0769  1.1725  1.0075
    6SAPS  H16S  736   5.184   5.139   9.315 -0.5599  1.1548 -0.5899
    6SAPS  C217  737   5.097   4.965   9.246  0.4894 -0.1601  0.4910
    6SAPS  H17R  738   5.059   4.876   9.301 -2.0663  0.6328  0.1463
    6SAPS  H17S  739   5.191   4.933   9.196  0.4882  0.9397 -0.2331
    6SAPS  C218  740   5.002   5.009   9.127 -0.1103  0.0784 -0.2032
    6SAPS  H18R  741   4.903   5.038   9.169  0.2723  0.5372  0.3962
    6SAPS  H18S  742   4.995   4.922   9.058 -0.4750  0.8771 -1.2056
    6SAPS  C219  743   5.062   5.125   9.037  0.3723 -0.5158  0.1203
    6SAPS  H19R  744   5.097   5.194   9.117 -1.8416  0.7065  0.1165
    6SAPS  H19S  745   4.973   5.162   8.982 -0.2846  1.3178  2.2258
    6SAPS  C220  746   5.182   5.084   8.959 -0.0944  0.6246  0.5004
    6SAPS  H20R  747   5.256   5.048   9.032  2.1669  0.2308 -1.8420
    6SAPS  H20S  748   5.221   5.169   8.899 -0.6348  0.7089  0.2571
    6SAPS  H20T  749   5.148   5.004   8.889 -2.3153 -0.1920  2.3845
    6SAPS   C33  750   5.594   6.415  10.226 -0.0704  0.0309  0.3197
    6SAPS   H3X  751   5.492   6.439  10.264 -1.2887 -1.9567 -1.5022
    6SAPS   H3Y  752   5.587   6.307  10.201  2.5257  0.2846 -1.9600
    6SAPS   C34  753   5.622   6.496  10.103 -0.1527  0.1916  0.4020
    6SAPS   H4X  754   5.733   6.497  10.093 -0.1074  5.0590 -0.9902
    6SAPS   H4Y  755   5.588   6.602  10.111 -0.7949  0.1683 -1.6169
    6SAPS   C35  756   5.540   6.434   9.985 -0.5077 -0.2990 -0.0092
    6SAPS   H5X  757   5.433   6.441  10.014 -0.8450 -1.8556 -0.7609
    6SAPS   H5Y  758   5.565   6.325   9.984  1.6235  0.1422  0.2482
    6SAPS   C36  759   5.550   6.513   9.859 -0.6298 -0.3341  0.2236
    6SAPS   H6X  760   5.652   6.499   9.817 -1.4249 -0.1390 -1.8813
    6SAPS   H6Y  761   5.552   6.622   9.880 -0.6447  0.1076 -1.8622
    6SAPS   C37  762   5.454   6.490   9.747  0.4675  0.0585  0.2573
    6SAPS   H7X  763   5.349   6.504   9.780  0.5128  1.5060 -0.1599
    6SAPS   H7Y  764   5.455   6.383   9.716  1.9986 -0.0046  0.4421
    6SAPS   C38  765   5.495   6.552   9.618 -0.0417  0.6580 -0.1392
    6SAPS   H8X  766   5.599   6.532   9.584  0.3586  0.5012  1.1230
    6SAPS   H8Y  767   5.486   6.662   9.633  1.1799  0.6774  0.5898
    6SAPS   C39  768   5.419   6.505   9.497  0.1346  0.1859  0.9273
    6SAPS   H9X  769   5.311   6.507   9.522  0.5958  1.3065  3.0956
    6SAPS   H9Y  770   5.445   6.399   9.476  0.1537  0.1678  1.0434
    6SAPS  C310  771   5.446   6.588   9.375  0.4954  0.1720  0.1425
    6SAPS  H10X  772   5.551   6.599   9.340 -0.0919  2.1187 -1.1383
    6SAPS  H10Y  773   5.415   6.691   9.402  0.6000 -0.1083  1.4369
    6SAPS  C311  774   5.376   6.540   9.246 -0.9739 -0.0756 -0.6651
    6SAPS  H11X  775   5.265   6.544   9.255 -0.9358  0.8994 -0.5601
    6SAPS  H11Y  776   5.398   6.432   9.230 -2.0444 -0.1916 -1.4983
    6SAPS  C312  777   5.425   6.633   9.128 -0.0103 -0.2057 -0.0583
    6SAPS  H12X  778   5.534   6.623   9.109  0.0199 -2.1680  0.9857
    6SAPS  H12Y  779   5.417   6.739   9.160  2.1404 -0.4972  1.6352
    6SAPS  C313  780   5.353   6.614   8.989  0.1738  0.4543  0.5708
    6SAPS  H13X  781   5.247   6.593   9.015 -0.2199  0.2344 -1.0628
    6SAPS  H13Y  782   5.400   6.519   8.956  0.6704  0.5479  1.0029
    6SAPS  C314  783   5.368   6.743   8.895 -0.0100  0.5574 -0.0933
    6SAPS  H14X  784   5.476   6.751   8.872 -0.4481 -0.5140 -2.9203
    6SAPS  H14Y  785   5.331   6.826   8.958  0.5664  0.0932  0.8951
    6SAPS  C315  786   5.292   6.727   8.761  0.3194  0.3005  0.6066
    6SAPS  H15X  787   5.191   6.681   8.768  0.5397 -0.1077  1.1888
    6SAPS  H15Y  788   5.353   6.661   8.696  0.8121 -0.4641  1.7974
    6SAPS  C316  789   5.264   6.847   8.671 -0.6615 -0.1009  0.3354
    6SAPS  H16X  790   5.189   6.913   8.721 -0.3140  0.7687 -0.2716
    6SAPS  H16Y  791   5.213   6.808   8.580  1.3136  0.5242 -1.1115
    6SAPS  C317  792   5.386   6.938   8.627 -0.2619 -0.3038 -0.4516
    6SAPS  H17X  793   5.455   6.940   8.714 -1.3624  1.7307  0.4336
    6SAPS  H17Y  794   5.345   7.041   8.622 -1.2318 -0.5988  0.8681
    6SAPS  C318  795   5.471   6.885   8.506  0.0135  0.0976 -0.1476
    6SAPS  H18X  796   5.424   6.872   8.407  0.1132  0.2149 -0.2097
    6SAPS  H18Y  797   5.505   6.781   8.526 -0.7560  0.0085  0.7661
    6SAPS  H18Z  798   5.568   6.938   8.495  0.9761 -1.4780  0.3506
    7SAPS     N  799   3.357   0.553  11.113  0.2221  0.9400  0.1914
    7SAPS   HN1  800   3.422   0.628  11.143  0.5947 -0.1906  2.4478
    7SAPS   HN2  801   3.386   0.463  11.156 -0.0098  0.9013  0.2688
    7SAPS   HN3  802   3.362   0.531  11.012 -2.1113 -0.5141  0.3048
    7SAPS   C12  803   3.226   0.600  11.159 -0.0718  0.2400  0.2571
    7SAPS  H12A  804   3.158   0.523  11.123  0.7516 -0.1689 -0.4586
    7SAPS   C13  805   3.217   0.608  11.322  0.2358 -0.3430  0.5798
    7SAPS  O13A  806   3.316   0.572  11.395  0.0427 -0.3271  0.0846
    7SAPS  O13B  807   3.108   0.651  11.372 -0.3542  0.4074  0.6862
    7SAPS   C11  808   3.189   0.734  11.099  0.2528 -0.1718 -0.3140
    7SAPS  H11A  809   3.247   0.816  11.146 -1.9655  1.7056 -0.6835
    7SAPS  H11B  810   3.088   0.766  11.132  0.0616  1.2737 -2.1285
    7SAPS     P  811   3.090   0.677  10.862 -0.7321 -0.3962  0.1867
    7SAPS   O13  812   3.046   0.551  10.929  0.2520 -0.4652 -0.0270
    7SAPS   O14  813   2.979   0.768  10.819 -0.2646 -0.3853  0.6099
    7SAPS   O12  814   3.197   0.747  10.956  0.3961 -0.1439  0.0893
    7SAPS   O11  815   3.170   0.637  10.737  0.5151 -0.3332  0.1293
    7SAPS    C1  816   3.150   0.703  10.612  0.1928 -0.1966  0.1721
    7SAPS    HA  817   3.141   0.812  10.631  0.6398  0.0176 -0.8251
    7SAPS    HB  818   3.239   0.701  10.546 -0.2812 -1.4086 -0.4757
    7SAPS    C2  819   3.022   0.640  10.540 -0.2334 -0.8799  0.3697
    7SAPS    HS  820   2.936   0.681  10.596 -0.2104 -1.7479  1.0583
    7SAPS   O21  821   3.037   0.495  10.555 -0.0090 -0.3306 -0.2805
    7SAPS   C21  822   2.916   0.442  10.573 -0.4590  0.4920 -0.8013
    7SAPS   O22  823   2.814   0.508  10.580 -0.0104 -0.1783 -0.2697
    7SAPS   C22  824   2.922   0.293  10.578  0.8385  0.3463  0.8355
    7SAPS   H2R  825   2.984   0.267  10.666 -0.8917  0.3475  2.1150
    7SAPS   H2S  826   2.824   0.250  10.610 -0.2861  2.8477  0.9777
    7SAPS    C3  827   3.013   0.695  10.396  0.4522  0.0400 -0.8917
    7SAPS    HX  828   3.113   0.673  10.352  0.7303 -0.4650 -0.0289
    7SAPS    HY  829   3.002   0.806  10.398 -2.2617 -0.1616  2.1837
    7SAPS   O31  830   2.902   0.637  10.323  0.3741  0.6531 -0.0233
    7SAPS   C31  831   2.784   0.696  10.320  0.7895  0.1285  0.6061
    7SAPS   O32  832   2.759   0.798  10.378  0.5627  0.6406 -0.4861
    7SAPS   C32  833   2.692   0.629  10.213 -0.1290  0.2099  0.5144
    7SAPS   H2X  834   2.611   0.577  10.269 -3.3500  2.8615 -1.3276
    7SAPS   H2Y  835   2.760   0.562  10.156  3.3675  3.2546  0.6959
    7SAPS   C23  836   2.954   0.237  10.433  0.3965  0.5295 -0.3993
    7SAPS   H3R  837   2.977   0.129  10.444  0.7172  0.7081  0.7703
    7SAPS   H3S  838   3.047   0.287  10.399  0.4426  0.1095 -0.9153
    7SAPS   C24  839   2.840   0.274  10.331  0.2247 -0.2338 -0.1957
    7SAPS   H4R  840   2.894   0.274  10.234  0.0401  0.5106 -0.2979
    7SAPS   H4S  841   2.806   0.376  10.358  0.3540 -0.4565  0.8838
    7SAPS   C25  842   2.727   0.184  10.332  0.3137 -0.6151 -0.4453
    7SAPS   H5R  843   2.712   0.121  10.422 -0.2595 -1.6009 -1.2089
    7SAPS   C26  844   2.638   0.156  10.240  0.5048 -0.5267  0.4408
    7SAPS   H6R  845   2.562   0.081  10.264 -1.6777  1.4793  0.1893
    7SAPS   C27  846   2.627   0.224  10.106 -0.5645  0.3231 -0.0333
    7SAPS   H7R  847   2.731   0.255  10.082 -1.4063  1.4288 -2.6536
    7SAPS   H7S  848   2.587   0.328  10.097 -0.2800  0.5153  0.7887
    7SAPS   C28  849   2.574   0.142   9.991  0.4308  0.7099 -0.1849
    7SAPS   H8R  850   2.518   0.051  10.019 -0.5483  0.9908 -1.1626
    7SAPS   C29  851   2.584   0.165   9.861  0.3624 -0.4071  0.4430
    7SAPS   H9R  852   2.543   0.088   9.794 -1.2059  1.1417 -0.4704
    7SAPS  C210  853   2.655   0.273   9.791 -0.2648  0.8306 -0.1551
    7SAPS  H10R  854   2.753   0.273   9.843 -1.3561  1.3134  2.0257
    7SAPS  H10S  855   2.618   0.376   9.809  1.3524  1.6068 -1.1120
    7SAPS  C211  856   2.673   0.258   9.644  0.0880 -0.7050 -0.0855
    7SAPS  H11R  857   2.776   0.237   9.612  0.2942 -1.0684  0.7646
    7SAPS  C212  858   2.577   0.257   9.547  0.1506 -0.0718 -0.3195
    7SAPS  H12R  859   2.605   0.238   9.442  0.0502 -1.9220 -0.0456
    7SAPS  C213  860   2.430   0.286   9.568  0.3617  0.4214  0.3738
    7SAPS  H13R  861   2.401   0.384   9.524 -2.3277 -0.8490 -0.9835
    7SAPS  H13S  862   2.396   0.279   9.674 -0.6516 -0.1420  0.0381
    7SAPS  C214  863   2.348   0.178   9.512  0.3919  0.1727 -0.3841
    7SAPS  H14R  864   2.318   0.096   9.579  0.7258  0.0892 -0.3349
    7SAPS  C215  865   2.322   0.165   9.376  0.8087  0.7184 -0.8666
    7SAPS  H15R  866   2.257   0.084   9.338  0.6855  1.2455 -1.7961
    7SAPS  C216  867   2.366   0.260   9.267 -0.5270 -0.5819  0.4503
    7SAPS  H16R  868   2.421   0.203   9.189  1.0070  0.8554  0.4176
    7SAPS  H16S  869   2.431   0.341   9.308 -2.2278  0.4527  1.2032
    7SAPS  C217  870   2.244   0.329   9.201 -0.5116 -0.8425  0.1772
    7SAPS  H17R  871   2.192   0.380   9.284 -2.6467  0.7576 -2.0293
    7SAPS  H17S  872   2.183   0.245   9.161 -1.3202 -1.5992  2.8309
    7SAPS  C218  873   2.285   0.422   9.089  0.6670 -0.1029  0.0339
    7SAPS  H18R  874   2.200   0.464   9.029 -0.3296 -1.6273  0.3261
    7SAPS  H18S  875   2.361   0.370   9.027  1.4511  0.6798  0.3207
    7SAPS  C219  876   2.353   0.560   9.137  0.0806  0.1556  0.3576
    7SAPS  H19R  877   2.377   0.605   9.039 -0.5832  1.0009  0.5735
    7SAPS  H19S  878   2.443   0.539   9.198  1.7399  0.0852 -2.0124
    7SAPS  C220  879   2.258   0.644   9.218 -0.3688 -0.0166 -0.4288
    7SAPS  H20R  880   2.314   0.737   9.241 -0.1741 -0.6267  1.8174
    7SAPS  H20S  881   2.238   0.601   9.319 -0.3588  2.1236  0.5415
    7SAPS  H20T  882   2.160   0.678   9.179 -2.0887 -2.1303  1.7550
    7SAPS   C33  883   2.642   0.739  10.114  0.0287  0.4550 -0.1755
    7SAPS   H3X  884   2.729   0.774  10.055  1.1457 -0.8859  0.6031
    7SAPS   H3Y  885   2.603   0.829  10.166  3.4494  0.4041  2.8904
    7SAPS   C34  886   2.534   0.674  10.020 -0.2259 -0.7852 -0.1268
    7SAPS   H4X  887   2.434   0.683  10.069 -1.1874 -0.7397 -2.0331
    7SAPS   H4Y  888   2.555   0.569   9.992 -0.9531 -0.6541 -1.2020
    7SAPS   C35  889   2.517   0.741   9.881 -0.0294 -0.9286 -0.1710
    7SAPS   H5X  890   2.613   0.751   9.825 -0.1052  1.0539 -0.0159
    7SAPS   H5Y  891   2.490   0.848   9.892 -0.0905 -1.1059  1.6254
    7SAPS   C36  892   2.411   0.670   9.791 -0.4800 -0.3849  0.4857
    7SAPS   H6X  893   2.313   0.677   9.842 -0.5066 -0.3494  0.4300
    7SAPS   H6Y  894   2.442   0.564   9.779  2.6421  0.2920  1.7040
    7SAPS   C37  895   2.401   0.730   9.650  0.4048 -0.0102 -0.2058
    7SAPS   H7X  896   2.406   0.841   9.648 -0.5750  0.0346 -0.9330
    7SAPS   H7Y  897   2.293   0.728   9.623  0.0202  2.8727  0.7550
    7SAPS   C38  898   2.481   0.664   9.546 -0.0897 -0.6256  0.1457
    7SAPS   H8X  899   2.404   0.627   9.473 -0.0169  1.1013 -0.8572
    7SAPS   H8Y  900   2.534   0.572   9.578 -1.0684 -0.8849  1.0745
    7SAPS   C39  901   2.568   0.766   9.463 -0.7633 -0.0074 -0.8306
    7SAPS   H9X  902   2.622   0.829   9.536 -2.5293  1.8775 -1.0400
    7SAPS   H9Y  903   2.487   0.829   9.420 -1.4167 -0.8960 -0.9306
    7SAPS  C310  904   2.655   0.700   9.354  0.6174 -0.2402  1.0723
    7SAPS  H10X  905   2.593   0.625   9.300  1.5878 -0.7942  0.7073
    7SAPS  H10Y  906   2.751   0.663   9.396  1.5532 -1.0989 -1.6218
    7SAPS  C311  907   2.695   0.807   9.249  0.3029  0.0920 -0.1778
    7SAPS  H11X  908   2.718   0.902   9.302  1.2883 -1.6105  2.6488
    7SAPS  H11Y  909   2.609   0.823   9.180 -1.2415  1.7188  1.9554
    7SAPS  C312  910   2.808   0.753   9.158 -0.2042 -0.2091 -0.0696
    7SAPS  H12X  911   2.787   0.645   9.145  0.3536 -0.2972 -0.3033
    7SAPS  H12Y  912   2.907   0.759   9.208  0.8689 -0.5396 -2.0249
    7SAPS  C313  913   2.815   0.835   9.028 -0.1332  0.7801 -0.6263
    7SAPS  H13X  914   2.798   0.943   9.047  0.1546  0.5725  0.9284
    7SAPS  H13Y  915   2.736   0.801   8.958 -1.5964  2.0153  0.3551
    7SAPS  C314  916   2.942   0.812   8.953 -0.3379 -0.3445  0.1021
    7SAPS  H14X  917   2.963   0.705   8.977 -0.7293 -0.8476 -1.6805
    7SAPS  H14Y  918   3.019   0.885   8.985 -1.7779  0.2489  2.5286
    7SAPS  C315  919   2.916   0.830   8.805 -0.1169  0.0114  0.0734
    7SAPS  H15X  920   2.891   0.938   8.794  0.2511  0.1253  0.3113
    7SAPS  H15Y  921   2.826   0.772   8.778 -1.0854 -0.6371  4.0856
    7SAPS  C316  922   3.032   0.788   8.719 -1.0161  0.2301  0.1272
    7SAPS  H16X  923   3.058   0.684   8.748  1.0824  1.0582  1.4398
    7SAPS  H16Y  924   3.123   0.847   8.741 -0.8380  0.2788 -0.7084
    7SAPS  C317  925   3.000   0.797   8.571  1.0214  0.8141 -0.2538
    7SAPS  H17X  926   3.096   0.792   8.516 -0.0363  0.5086 -2.2054
    7SAPS  H17Y  927   2.965   0.902   8.567  0.5340  0.7093  1.0375
    7SAPS  C318  928   2.892   0.701   8.516  0.0014 -0.2096 -0.0741
    7SAPS  H18X  929   2.924   0.597   8.538  0.3312 -0.6599 -2.4769
    7SAPS  H18Y  930   2.892   0.727   8.408  0.5953 -2.0853 -0.5658
    7SAPS  H18Z  931   2.798   0.727   8.568 -0.2346 -1.9996  0.4327
    8SAPS     N  932   4.719   2.981  11.439 -0.0424  0.8944  0.3900
    8SAPS   HN1  933   4.661   2.958  11.521 -1.4941  0.8563 -0.6126
    8SAPS   HN2  934   4.822   2.974  11.454  0.2840 -2.0628 -2.1032
    8SAPS   HN3  935   4.694   3.077  11.409  2.5155  2.4535  2.7502
    8SAPS   C12  936   4.666   2.890  11.324 -0.7265 -0.6816  0.1233
    8SAPS  H12A  937   4.707   2.796  11.359  1.0564  0.0840  0.1883
    8SAPS   C13  938   4.512   2.890  11.321 -0.7658 -0.0364  0.2034
    8SAPS  O13A  939   4.448   2.989  11.364 -0.0787  0.0196 -0.3121
    8SAPS  O13B  940   4.453   2.779  11.292 -0.8972  0.4586 -0.9921
    8SAPS   C11  941   4.718   2.924  11.182 -0.3189 -0.1184  0.4911
    8SAPS  H11A  942   4.669   3.015  11.143 -0.3001  0.2236  1.2533
    8SAPS  H11B  943   4.682   2.841  11.118  0.6301 -1.6751  1.8827
    8SAPS     P  944   4.956   2.813  11.120  0.0779  0.1356 -0.0014
    8SAPS   O13  945   5.092   2.848  11.172 -0.4279  0.2071 -0.2844
    8SAPS   O14  946   4.898   2.685  11.169 -0.2731 -0.0836  0.3230
    8SAPS   O12  947   4.864   2.933  11.181 -0.0192 -0.0107 -0.0797
    8SAPS   O11  948   4.949   2.827  10.962  0.2075 -0.5845  0.1833
    8SAPS    C1  949   4.942   2.966  10.914  0.1423  0.4724 -0.3440
    8SAPS    HA  950   4.837   3.003  10.918 -0.2994 -0.8080  0.7985
    8SAPS    HB  951   5.011   3.029  10.974 -1.2671 -1.4490  3.5987
    8SAPS    C2  952   4.990   2.974  10.768  0.2392 -0.4374 -0.4954
    8SAPS    HS  953   4.960   3.068  10.717  0.0222  0.1623  0.6946
    8SAPS   O21  954   4.924   2.867  10.691  0.4045 -0.2831  0.5660
    8SAPS   C21  955   4.802   2.893  10.642 -0.4909  1.0252  0.3819
    8SAPS   O22  956   4.739   2.998  10.659 -0.7346  0.3082 -0.0014
    8SAPS   C22  957   4.754   2.766  10.565  0.1142 -0.1012 -0.2226
    8SAPS   H2R  958   4.843   2.701  10.547  0.0943 -0.3132  0.4266
    8SAPS   H2S  959   4.694   2.704  10.634 -0.2162  0.2803 -0.1675
    8SAPS    C3  960   5.140   2.944  10.754  0.3996  0.3843  0.0226
    8SAPS    HX  961   5.157   2.851  10.812  0.8160  1.1107  1.0973
    8SAPS    HY  962   5.187   3.029  10.809 -0.2833  1.8874 -1.6322
    8SAPS   O31  963   5.187   2.959  10.615 -1.4216  0.3330 -0.2630
    8SAPS   C31  964   5.231   2.839  10.563  0.0790 -0.5915 -0.0264
    8SAPS   O32  965   5.223   2.734  10.618  0.8031 -0.0038 -0.4586
    8SAPS   C32  966   5.270   2.864  10.415  0.6176  0.5374 -0.2724
    8SAPS   H2X  967   5.370   2.912  10.418  3.1347 -4.0498  3.2364
    8SAPS   H2Y  968   5.195   2.925  10.360 -1.4814 -1.1378  0.5886
    8SAPS   C23  969   4.684   2.784  10.435 -0.2358 -0.0315  0.0389
    8SAPS   H3R  970   4.604   2.860  10.446 -0.2867 -0.0512 -0.2086
    8SAPS   H3S  971   4.632   2.689  10.413  2.7400 -1.7042 -0.2387
    8SAPS   C24  972   4.773   2.849  10.324  0.4720  0.0908  0.1951
    8SAPS   H4R  973   4.827   2.941  10.356  1.2073 -0.3112  0.1422
    8SAPS   H4S  974   4.711   2.884  10.239  1.0891  0.1924 -0.2242
    8SAPS   C25  975   4.869   2.742  10.269 -0.2188  0.2338  0.3849
    8SAPS   H5R  976   4.952   2.725  10.339 -1.5653 -1.3053  1.6943
    8SAPS   C26  977   4.844   2.660  10.166  0.1311 -0.0413  0.8440
    8SAPS   H6R  978   4.897   2.567  10.142  2.4409  1.1129  1.1592
    8SAPS   C27  979   4.707   2.663  10.085 -0.3382 -0.2817  0.1457
    8SAPS   H7R  980   4.625   2.680  10.158 -2.0664 -1.2037 -1.4780
    8SAPS   H7S  981   4.689   2.564  10.037 -0.4838 -0.4914  0.6278
    8SAPS   C28  982   4.691   2.765   9.975 -0.2920 -0.1883 -0.5401
    8SAPS   H8R  983   4.644   2.861  10.002  2.1673  1.8767 -3.0648
    8SAPS   C29  984   4.746   2.758   9.856 -0.2867 -0.0871  0.0189
    8SAPS   H9R  985   4.724   2.835   9.781 -0.4850 -0.9564 -0.8301
    8SAPS  C210  986   4.840   2.651   9.804 -0.6592 -0.0199  0.0668
    8SAPS  H10R  987   4.893   2.600   9.887  0.3184  0.7821 -0.0361
    8SAPS  H10S  988   4.919   2.697   9.741 -1.4061 -0.3022 -1.1038
    8SAPS  C211  989   4.786   2.533   9.725  0.0890  0.7515  0.1905
    8SAPS  H11R  990   4.756   2.447   9.786  0.2815 -1.1781 -2.2471
    8SAPS  C212  991   4.781   2.524   9.591  1.0485  0.0133  1.5378
    8SAPS  H12R  992   4.733   2.438   9.542  1.7813  0.7547 -0.5739
    8SAPS  C213  993   4.829   2.621   9.491  0.2114  0.5890  0.1230
    8SAPS  H13R  994   4.938   2.640   9.500 -0.2069  2.7980  1.3039
    8SAPS  H13S  995   4.798   2.719   9.534 -0.9518 -0.1233  0.9658
    8SAPS  C214  996   4.797   2.585   9.345 -0.8944 -0.7332  0.2796
    8SAPS  H14R  997   4.707   2.525   9.329 -2.3461  0.8454  2.1130
    8SAPS  C215  998   4.883   2.612   9.244 -0.5016 -0.2147 -0.3971
    8SAPS  H15R  999   4.846   2.581   9.145  1.2204 -1.1131 -0.7806
    8SAPS  C216 1000   5.015   2.684   9.253 -0.2141 -0.3527 -0.2925
    8SAPS  H16R 1001   5.098   2.612   9.264 -1.0708 -1.5337 -1.2078
    8SAPS  H16S 1002   5.019   2.745   9.345 -2.7410  0.5670 -0.7026
    8SAPS  C217 1003   5.034   2.772   9.130 -0.5397 -0.6749  0.2209
    8SAPS  H17R 1004   4.996   2.727   9.036 -1.9819 -0.6036  0.7351
    8SAPS  H17S 1005   5.139   2.807   9.118 -0.1454 -2.0681 -0.6207
    8SAPS  C218 1006   4.947   2.901   9.154 -0.2468 -0.5792 -0.0554
    8SAPS  H18R 1007   4.978   2.951   9.248 -3.0546  0.1398  0.5953
    8SAPS  H18S 1008   4.837   2.881   9.153 -0.1532 -1.2735  1.4196
    8SAPS  C219 1009   4.975   3.010   9.052 -0.7250  0.2128 -0.0565
    8SAPS  H19R 1010   5.083   3.011   9.026 -1.0498  2.0448 -1.5396
    8SAPS  H19S 1011   4.947   3.106   9.100  0.5508  1.0410 -0.9084
    8SAPS  C220 1012   4.895   2.990   8.920 -0.4631 -0.7524  0.7266
    8SAPS  H20R 1013   4.787   2.969   8.936 -0.5870  0.5985  1.8742
    8SAPS  H20S 1014   4.938   2.905   8.863 -1.5688 -0.6622 -0.2792
    8SAPS  H20T 1015   4.898   3.080   8.855 -1.8562 -1.0721  0.1946
    8SAPS   C33 1016   5.296   2.729  10.348  0.0746 -0.1531 -1.2049
    8SAPS   H3X 1017   5.207   2.663  10.349 -1.1231  1.3671 -1.8148
    8SAPS   H3Y 1018   5.380   2.673  10.394 -0.7663 -0.5638 -0.1442
    8SAPS   C34 1019   5.331   2.758  10.205  0.5866 -0.0366 -0.1174
    8SAPS   H4X 1020   5.438   2.756  10.175  0.4343  1.2439 -0.8287
    8SAPS   H4Y 1021   5.296   2.856  10.165 -0.0779 -1.5311 -3.5702
    8SAPS   C35 1022   5.256   2.655  10.108 -0.6600 -0.1479 -0.1152
    8SAPS   H5X 1023   5.277   2.672  10.000 -2.4097 -1.0896 -0.6265
    8SAPS   H5Y 1024   5.149   2.669  10.133 -0.5014 -1.5847  1.5881
    8SAPS   C36 1025   5.305   2.509  10.138 -0.0568 -0.7431 -0.1461
    8SAPS   H6X 1026   5.305   2.497  10.248  3.2967 -3.2666 -0.2636
    8SAPS   H6Y 1027   5.410   2.486  10.108  0.7326  1.9340  0.3090
    8SAPS   C37 1028   5.215   2.411  10.061 -0.7455 -0.6809 -0.1841
    8SAPS   H7X 1029   5.113   2.409  10.104  0.0559  0.2496  1.9184
    8SAPS   H7Y 1030   5.260   2.310  10.067 -0.5374 -0.5464  0.6314
    8SAPS   C38 1031   5.207   2.444   9.912 -0.1545 -0.2229  0.4472
    8SAPS   H8X 1032   5.308   2.460   9.870  0.1432 -2.5834  0.1367
    8SAPS   H8Y 1033   5.145   2.536   9.899  1.9375  1.1804 -0.0917
    8SAPS   C39 1034   5.143   2.332   9.826 -0.1871  0.1680  0.4356
    8SAPS   H9X 1035   5.036   2.312   9.845 -0.2765 -2.0087 -1.8466
    8SAPS   H9Y 1036   5.195   2.234   9.842  0.1265  0.7430  3.4997
    8SAPS  C310 1037   5.142   2.381   9.677 -0.3262  0.6333  0.7104
    8SAPS  H10X 1038   5.248   2.402   9.654  0.4847 -2.0400  1.5937
    8SAPS  H10Y 1039   5.087   2.478   9.671  1.3894  1.7200  1.7985
    8SAPS  C311 1040   5.101   2.284   9.572  0.7301  0.8107 -0.0601
    8SAPS  H11X 1041   4.992   2.274   9.592  0.5493 -0.2029 -1.3623
    8SAPS  H11Y 1042   5.153   2.185   9.575  0.4635  0.6872  0.8562
    8SAPS  C312 1043   5.114   2.321   9.422 -0.2775  0.5691 -0.4492
    8SAPS  H12X 1044   5.221   2.308   9.392 -0.4398 -0.7438 -0.4900
    8SAPS  H12Y 1045   5.089   2.428   9.403  1.7200  0.8907 -1.6473
    8SAPS  C313 1046   5.029   2.226   9.340  0.2229 -0.1520  1.5351
    8SAPS  H13X 1047   4.922   2.247   9.360  0.4092  2.5807  0.1400
    8SAPS  H13Y 1048   5.061   2.121   9.355  1.7530 -0.1317 -0.9787
    8SAPS  C314 1049   5.047   2.254   9.187 -0.2857  0.1282  0.0276
    8SAPS  H14X 1050   5.152   2.235   9.159 -0.5015 -0.7419 -0.2352
    8SAPS  H14Y 1051   5.026   2.362   9.171  2.9256  0.6095 -1.8672
    8SAPS  C315 1052   4.953   2.174   9.105  0.9949 -0.7475  1.0677
    8SAPS  H15X 1053   4.867   2.130   9.160 -0.8246  0.9065 -0.2837
    8SAPS  H15Y 1054   5.020   2.094   9.068  1.6999  0.9140 -1.6024
    8SAPS  C316 1055   4.896   2.246   8.983 -0.3774 -0.5774 -0.4692
    8SAPS  H16X 1056   4.813   2.313   9.013  0.0361 -0.5044  0.5709
    8SAPS  H16Y 1057   4.852   2.160   8.928 -0.0443 -1.2806  0.3294
    8SAPS  C317 1058   5.008   2.313   8.902  0.2266  0.0746 -0.4219
    8SAPS  H17X 1059   5.099   2.251   8.914 -0.2332 -0.5141  0.0737
    8SAPS  H17Y 1060   5.033   2.413   8.943  1.8874 -0.6742  0.4632
    8SAPS  C318 1061   4.956   2.310   8.755  0.0188 -1.7052 -0.1775
    8SAPS  H18X 1062   4.922   2.209   8.723  1.3032 -1.6460 -1.8024
    8SAPS  H18Y 1063   5.032   2.338   8.680 -0.7368 -0.6940 -0.5810
    8SAPS  H18Z 1064   4.865   2.374   8.748  1.1580  0.0298  0.2234
    9SAPS     N 1065   1.989   5.401   6.147 -0.7111 -0.2706 -1.1006
    9SAPS   HN1 1066   2.011   5.480   6.083  1.4648  0.3244  0.2645
    9SAPS   HN2 1067   1.923   5.432   6.221  2.9036  1.4568  1.7553
    9SAPS   HN3 1068   2.081   5.375   6.188 -0.2322  0.0647 -1.9391
    9SAPS   C12 1069   1.938   5.286   6.055  0.1629  0.6224 -0.0091
    9SAPS  H12A 1070   1.837   5.303   6.018 -0.6209 -1.3591  1.0545
    9SAPS   C13 1071   2.024   5.270   5.918  0.3122 -0.3640  0.3872
    9SAPS  O13A 1072   2.124   5.338   5.892  0.0080 -0.3251 -0.4877
    9SAPS  O13B 1073   1.981   5.190   5.831  0.4044  0.1077  0.1205
    9SAPS   C11 1074   1.929   5.150   6.135  0.2276 -0.3316 -0.0712
    9SAPS  H11A 1075   1.897   5.067   6.069 -0.5843 -0.3648  0.3599
    9SAPS  H11B 1076   1.852   5.156   6.214  0.3039  0.7640 -0.0514
    9SAPS     P 1077   2.067   4.988   6.296 -0.1472  0.1272  0.1727
    9SAPS   O13 1078   2.021   4.851   6.252 -0.0187 -0.0793  0.2205
    9SAPS   O14 1079   2.208   4.998   6.330 -0.9886 -0.2117 -0.0629
    9SAPS   O12 1080   2.049   5.103   6.186 -0.2090  0.0706  0.3912
    9SAPS   O11 1081   1.991   5.041   6.421 -0.4320 -0.0329  0.2142
    9SAPS    C1 1082   1.857   4.985   6.454 -0.8912  0.2551 -0.0467
    9SAPS    HA 1083   1.783   5.000   6.372 -0.7860 -2.1841 -0.6584
    9SAPS    HB 1084   1.859   4.875   6.466 -0.1009  0.1569 -0.9495
    9SAPS    C2 1085   1.796   5.041   6.580  0.1413 -0.3761 -0.3225
    9SAPS    HS 1086   1.695   5.001   6.601 -1.9498  3.4905 -2.0088
    9SAPS   O21 1087   1.789   5.188   6.586  0.3509  0.0717  0.1756
    9SAPS   C21 1088   1.675   5.236   6.543 -0.4359 -1.2862  0.1602
    9SAPS   O22 1089   1.597   5.178   6.468  0.4887 -0.0114 -0.8677
    9SAPS   C22 1090   1.658   5.386   6.592 -0.6384 -0.1341  0.5800
    9SAPS   H2R 1091   1.696   5.390   6.696 -1.0787  0.3733  0.7265
    9SAPS   H2S 1092   1.729   5.444   6.528 -2.9922  1.8556 -0.4052
    9SAPS    C3 1093   1.881   5.003   6.703 -0.1799 -0.0730 -0.3577
    9SAPS    HX 1094   1.988   5.032   6.696  0.5102 -2.0966  1.0770
    9SAPS    HY 1095   1.867   4.894   6.721 -1.4526 -0.0084 -0.8228
    9SAPS   O31 1096   1.813   5.064   6.822  0.0328  0.1508 -0.2921
    9SAPS   C31 1097   1.851   5.021   6.942  0.8042 -0.4153  0.4975
    9SAPS   O32 1098   1.943   4.940   6.960 -0.4156 -0.3508  0.0749
    9SAPS   C32 1099   1.747   5.052   7.056 -0.3504 -0.5496 -0.2649
    9SAPS   H2X 1100   1.663   4.981   7.041  0.3094 -2.0107  2.3294
    9SAPS   H2Y 1101   1.707   5.153   7.032  0.8083 -0.3585 -1.5448
    9SAPS   C23 1102   1.524   5.446   6.583 -0.0569  0.2317 -0.1195
    9SAPS   H3R 1103   1.470   5.441   6.485 -2.2578 -1.6525  1.0907
    9SAPS   H3S 1104   1.534   5.556   6.598  2.9197  0.1611 -1.0538
    9SAPS   C24 1105   1.425   5.395   6.689  0.2578  0.8085 -0.5640
    9SAPS   H4R 1106   1.334   5.459   6.698 -1.2813 -1.1286 -1.4071
    9SAPS   H4S 1107   1.472   5.407   6.789 -1.5018 -2.0583  0.7495
    9SAPS   C25 1108   1.368   5.257   6.677 -0.1405 -0.0230 -0.1682
    9SAPS   H5R 1109   1.314   5.243   6.583 -0.6375 -1.5180  0.3168
    9SAPS   C26 1110   1.384   5.155   6.761 -0.2815  0.1527 -0.7627
    9SAPS   H6R 1111   1.328   5.063   6.739 -0.1055 -0.2081  0.2499
    9SAPS   C27 1112   1.459   5.143   6.892  0.3413  0.0860  0.5695
    9SAPS   H7R 1113   1.567   5.167   6.884  0.8875 -1.2919  2.9252
    9SAPS   H7S 1114   1.461   5.036   6.920 -1.1982 -0.3054 -0.6689
    9SAPS   C28 1115   1.396   5.223   7.002 -0.3863  0.5885 -0.5310
    9SAPS   H8R 1116   1.376   5.329   6.980  0.3602  1.3702  2.2173
    9SAPS   C29 1117   1.389   5.178   7.129  0.0122  0.4463  1.7986
    9SAPS   H9R 1118   1.348   5.247   7.204  0.7980 -0.6182  3.2574
    9SAPS  C210 1119   1.425   5.047   7.186  0.0667 -0.2199 -0.7718
    9SAPS  H10R 1120   1.529   5.036   7.224  0.2791  0.9097 -0.9927
    9SAPS  H10S 1121   1.426   4.968   7.108  0.3807 -0.5169 -0.4698
    9SAPS  C211 1122   1.323   4.990   7.290 -0.5573 -0.1302 -0.2699
    9SAPS  H11R 1123   1.249   4.921   7.246 -0.6675 -1.0329  1.2433
    9SAPS  C212 1124   1.317   5.012   7.424  0.3063 -0.2851 -0.0885
    9SAPS  H12R 1125   1.247   4.961   7.491 -1.1603  2.2180  0.4422
    9SAPS  C213 1126   1.414   5.096   7.508  1.2141 -0.6675  0.0292
    9SAPS  H13R 1127   1.362   5.175   7.565  1.1944 -2.0533  2.0240
    9SAPS  H13S 1128   1.483   5.150   7.439  0.0847 -1.0617 -1.4776
    9SAPS  C214 1129   1.502   5.007   7.597 -0.6856  0.4551  0.2501
    9SAPS  H14R 1130   1.586   4.955   7.549 -1.1774  0.6921 -0.8874
    9SAPS  C215 1131   1.485   4.985   7.730  0.5443  0.3271  0.2204
    9SAPS  H15R 1132   1.548   4.915   7.788  0.4877  0.2947  0.2421
    9SAPS  C216 1133   1.385   5.046   7.822 -0.1408  0.1854 -0.2348
    9SAPS  H16R 1134   1.322   4.961   7.856 -0.4524  0.1889 -0.7809
    9SAPS  H16S 1135   1.321   5.121   7.770 -2.0378 -1.0148  0.2893
    9SAPS  C217 1136   1.457   5.111   7.944  0.5930  0.2893  0.3365
    9SAPS  H17R 1137   1.516   5.192   7.896  1.1087 -0.3156 -0.0571
    9SAPS  H17S 1138   1.517   5.035   7.998  0.9103  0.2589 -0.0531
    9SAPS  C218 1139   1.353   5.181   8.042 -0.7608 -0.1002  0.3897
    9SAPS  H18R 1140   1.305   5.098   8.099 -1.2305 -1.6513 -2.0944
    9SAPS  H18S 1141   1.277   5.237   7.983 -2.1693 -0.0098  2.1965
    9SAPS  C219 1142   1.421   5.291   8.125 -0.3149 -0.4221  0.3953
    9SAPS  H19R 1143   1.517   5.260   8.172 -0.8886 -1.8557  0.6792
    9SAPS  H19S 1144   1.346   5.304   8.205  0.8499 -1.2664  1.6742
    9SAPS  C220 1145   1.443   5.415   8.042 -0.0932 -0.7971 -0.0364
    9SAPS  H20R 1146   1.351   5.443   7.986 -0.7631  2.0977  2.2808
    9SAPS  H20S 1147   1.523   5.397   7.967 -1.7006 -1.2277 -1.7201
    9SAPS  H20T 1148   1.470   5.499   8.110 -3.2212 -0.3603  0.8154
    9SAPS   C33 1149   1.805   5.050   7.202  0.5280  0.2202  0.6339
    9SAPS   H3X 1150   1.865   4.958   7.218  1.9860  1.4954  3.0542
    9SAPS   H3Y 1151   1.726   5.049   7.279 -1.0268  0.1992 -0.9027
    9SAPS   C34 1152   1.899   5.174   7.224 -0.2599  0.5491 -0.2200
    9SAPS   H4X 1153   1.929   5.173   7.331 -0.3098 -0.7904 -0.2100
    9SAPS   H4Y 1154   1.845   5.271   7.213 -0.3889  0.4281 -0.6823
    9SAPS   C35 1155   2.029   5.173   7.151 -0.5620 -0.0614 -0.2142
    9SAPS   H5X 1156   2.056   5.069   7.122 -1.2163  0.0142 -1.1383
    9SAPS   H5Y 1157   2.107   5.209   7.221 -2.6424  0.3575  2.0166
    9SAPS   C36 1158   2.031   5.276   7.039 -0.6874 -0.3765 -0.2400
    9SAPS   H6X 1159   2.022   5.381   7.076  0.9925  0.9156 -3.0709
    9SAPS   H6Y 1160   1.949   5.274   6.965  0.7177  0.2468 -1.9074
    9SAPS   C37 1161   2.160   5.277   6.951 -0.6215 -0.0631 -0.2759
    9SAPS   H7X 1162   2.170   5.172   6.915 -1.1998 -0.1489 -0.1969
    9SAPS   H7Y 1163   2.251   5.294   7.012 -0.8561 -0.0954  0.0935
    9SAPS   C38 1164   2.144   5.360   6.830 -0.4752 -0.2689 -0.3180
    9SAPS   H8X 1165   2.139   5.469   6.852 -2.4431 -0.2334 -0.7387
    9SAPS   H8Y 1166   2.055   5.328   6.771 -1.0066 -2.2316  1.4299
    9SAPS   C39 1167   2.257   5.356   6.725  0.5723  0.4759 -0.1272
    9SAPS   H9X 1168   2.252   5.441   6.654  2.3993  0.0627 -0.8168
    9SAPS   H9Y 1169   2.242   5.261   6.670 -0.5254 -1.3987  3.1507
    9SAPS  C310 1170   2.393   5.350   6.778 -0.7086  0.5057 -0.9598
    9SAPS  H10X 1171   2.406   5.264   6.847  0.0604  0.5133 -1.0921
    9SAPS  H10Y 1172   2.422   5.440   6.836  2.2730  1.4394 -3.6000
    9SAPS  C311 1173   2.512   5.324   6.680  0.4384  0.8335  0.1032
    9SAPS  H11X 1174   2.501   5.398   6.598  1.3737 -1.0348 -1.8090
    9SAPS  H11Y 1175   2.508   5.220   6.641 -1.7741  0.2948  1.5792
    9SAPS  C312 1176   2.649   5.329   6.750 -0.5419  0.4320  0.4319
    9SAPS  H12X 1177   2.733   5.283   6.695 -0.1041  1.7835 -0.0669
    9SAPS  H12Y 1178   2.646   5.272   6.846  0.0061 -0.9369 -0.3369
    9SAPS  C313 1179   2.708   5.464   6.787 -0.1586  0.3653 -0.6250
    9SAPS  H13X 1180   2.798   5.439   6.847 -1.1417 -1.8135  0.0467
    9SAPS  H13Y 1181   2.635   5.515   6.853 -0.4700 -2.0041  0.9673
    9SAPS  C314 1182   2.758   5.562   6.680  0.4237  0.0398 -0.0215
    9SAPS  H14X 1183   2.672   5.584   6.613 -0.3929  1.3715  1.4120
    9SAPS  H14Y 1184   2.838   5.510   6.623 -0.2207 -0.5429 -0.4111
    9SAPS  C315 1185   2.808   5.693   6.733 -0.8654 -0.8440 -0.0377
    9SAPS  H15X 1186   2.871   5.669   6.821 -1.6406 -0.8298  0.5330
    9SAPS  H15Y 1187   2.729   5.752   6.784 -0.3732 -0.1214 -0.0811
    9SAPS  C316 1188   2.873   5.777   6.622 -0.9408  0.1325 -0.4317
    9SAPS  H16X 1189   2.887   5.875   6.673  2.2515 -1.3480  1.8565
    9SAPS  H16Y 1190   2.800   5.798   6.540 -3.2948  1.7665  1.8905
    9SAPS  C317 1191   3.005   5.719   6.566 -0.3829  0.0150  0.2764
    9SAPS  H17X 1192   2.983   5.640   6.491 -0.7930  0.7245 -0.3785
    9SAPS  H17Y 1193   3.062   5.667   6.645 -1.3028 -0.5769  0.5669
    9SAPS  C318 1194   3.090   5.829   6.502  0.5051  0.0654  0.3145
    9SAPS  H18X 1195   3.020   5.899   6.451 -2.1428 -2.4619  0.1982
    9SAPS  H18Y 1196   3.167   5.784   6.435  1.6023  1.2470  0.7477
    9SAPS  H18Z 1197   3.149   5.878   6.582 -0.9833  2.2924  0.1309
   10SAPS     N 1198   1.562   3.741   6.266 -0.1623 -0.1882 -0.3765
   10SAPS   HN1 1199   1.575   3.721   6.367 -0.5478  0.1562 -0.2550
   10SAPS   HN2 1200   1.491   3.676   6.227  0.4071 -1.7799  1.1212
   10SAPS   HN3 1201   1.653   3.728   6.218  0.2688 -1.0158  0.6245
   10SAPS   C12 1202   1.514   3.883   6.232 -0.1420  0.7729  0.0322
   10SAPS  H12A 1203   1.587   3.954   6.268  0.1917  1.8521 -2.5286
   10SAPS   C13 1204   1.509   3.900   6.080  0.2683  0.8460 -0.1648
   10SAPS  O13A 1205   1.556   3.810   6.006  0.1851 -0.2300 -0.0110
   10SAPS  O13B 1206   1.471   4.009   6.029 -0.3048  0.0472  0.1238
   10SAPS   C11 1207   1.377   3.901   6.300  0.1423 -0.2847 -0.0776
   10SAPS  H11A 1208   1.390   3.847   6.396 -1.4633 -2.8454 -1.1797
   10SAPS  H11B 1209   1.301   3.854   6.234  0.0390 -1.9497  1.1578
   10SAPS     P 1210   1.348   4.125   6.440 -0.3362  0.0740 -0.5191
   10SAPS   O13 1211   1.485   4.146   6.490 -0.5535  0.2060  0.4578
   10SAPS   O14 1212   1.262   4.247   6.426  0.0241 -0.2299  0.4813
   10SAPS   O12 1213   1.351   4.043   6.308  0.0310  0.5440 -0.0227
   10SAPS   O11 1214   1.283   4.018   6.541  0.4409 -0.0471 -0.3009
   10SAPS    C1 1215   1.151   4.025   6.586 -0.3501  0.0283 -0.2484
   10SAPS    HA 1216   1.079   4.038   6.502  0.7711  1.0892 -1.0881
   10SAPS    HB 1217   1.118   3.922   6.612  1.0256 -0.7552 -1.4386
   10SAPS    C2 1218   1.140   4.107   6.708 -0.1633 -0.2536  0.0653
   10SAPS    HS 1219   1.177   4.208   6.683 -0.2188  0.4126  2.4253
   10SAPS   O21 1220   1.215   4.042   6.815 -0.4590 -0.1562 -0.0282
   10SAPS   C21 1221   1.338   4.072   6.836  0.4383  0.2333 -0.4910
   10SAPS   O22 1222   1.393   4.168   6.789 -0.1015  0.1525 -0.3828
   10SAPS   C22 1223   1.396   3.971   6.931  0.1102 -0.1478 -0.1762
   10SAPS   H2R 1224   1.315   3.899   6.958 -0.7532  0.4390 -1.0842
   10SAPS   H2S 1225   1.481   3.919   6.882  0.8128  0.7498  0.0733
   10SAPS    C3 1226   0.989   4.135   6.742 -0.6073  0.5347  0.4328
   10SAPS    HX 1227   0.920   4.048   6.738 -0.4619  0.4349  0.0432
   10SAPS    HY 1228   0.940   4.215   6.683  1.0085  1.4484  0.2459
   10SAPS   O31 1229   1.001   4.180   6.882  0.1382  0.8455 -0.0187
   10SAPS   C31 1230   0.994   4.311   6.908  0.1377  0.0579  0.1358
   10SAPS   O32 1231   0.972   4.403   6.834  0.0060  0.0619  0.6654
   10SAPS   C32 1232   1.024   4.328   7.061 -0.1480  0.1293 -0.1238
   10SAPS   H2X 1233   0.922   4.349   7.101 -1.0157 -0.1354 -2.0894
   10SAPS   H2Y 1234   1.080   4.424   7.072 -1.6602  1.6923 -4.0930
   10SAPS   C23 1235   1.450   4.035   7.063  0.3473 -0.4326 -0.2623
   10SAPS   H3R 1236   1.375   4.094   7.120 -0.5973 -1.3598 -0.5242
   10SAPS   H3S 1237   1.518   4.115   7.025 -0.9024  0.4638 -0.6935
   10SAPS   C24 1238   1.533   3.937   7.153  0.5582  0.1247  0.3126
   10SAPS   H4R 1239   1.616   3.907   7.086  1.4579  3.3143 -0.1319
   10SAPS   H4S 1240   1.471   3.849   7.182  0.2108  0.3382  0.2298
   10SAPS   C25 1241   1.569   4.000   7.283  0.7645  0.1076 -0.0434
   10SAPS   H5R 1242   1.624   4.094   7.267  0.5268 -0.0270 -1.7349
   10SAPS   C26 1243   1.538   3.955   7.408 -0.4599 -0.3043  0.8549
   10SAPS   H6R 1244   1.570   4.019   7.492 -1.3480  0.6982  0.4492
   10SAPS   C27 1245   1.468   3.825   7.444 -0.2374 -0.2873 -0.4485
   10SAPS   H7R 1246   1.504   3.785   7.541 -0.6301 -3.9780 -1.6623
   10SAPS   H7S 1247   1.501   3.745   7.374  0.4862 -0.0519 -0.3789
   10SAPS   C28 1248   1.316   3.825   7.418 -0.2287 -0.1612  0.5491
   10SAPS   H8R 1249   1.290   3.866   7.319  1.6366  3.3765  1.3814
   10SAPS   C29 1250   1.224   3.783   7.501  0.6212 -0.5946  0.5121
   10SAPS   H9R 1251   1.120   3.809   7.478  1.2694  0.2248 -1.6468
   10SAPS  C210 1252   1.258   3.723   7.635 -0.3352  0.2486  0.1635
   10SAPS  H10R 1253   1.366   3.719   7.659 -0.4657 -0.6207  0.6678
   10SAPS  H10S 1254   1.220   3.618   7.630  1.2376 -0.3684  0.6139
   10SAPS  C211 1255   1.191   3.791   7.748 -0.8421 -0.1765 -0.3200
   10SAPS  H11R 1256   1.240   3.884   7.781 -0.2464 -0.3444 -0.7126
   10SAPS  C212 1257   1.091   3.739   7.822  0.5857 -0.4077 -0.2072
   10SAPS  H12R 1258   1.070   3.785   7.920  1.1473  1.6852 -1.0078
   10SAPS  C213 1259   1.026   3.602   7.817  0.2487  0.1711  0.3509
   10SAPS  H13R 1260   1.042   3.559   7.716  0.3108  2.4726 -0.6820
   10SAPS  H13S 1261   0.917   3.615   7.833  0.2153 -0.7312  0.9215
   10SAPS  C214 1262   1.086   3.515   7.925  0.2422  0.1594 -0.1326
   10SAPS  H14R 1263   1.183   3.473   7.895  0.6374  1.8574 -1.3691
   10SAPS  C215 1264   1.033   3.472   8.043 -0.3413 -0.2086  0.1133
   10SAPS  H15R 1265   1.098   3.417   8.113 -1.4809  0.7552  1.9823
   10SAPS  C216 1266   0.901   3.495   8.102 -0.5980 -0.5148 -0.3502
   10SAPS  H16R 1267   0.841   3.401   8.095  0.9941 -1.9593  3.0062
   10SAPS  H16S 1268   0.851   3.582   8.055 -0.3805  1.1918  2.3830
   10SAPS  C217 1269   0.919   3.535   8.252 -0.8116  0.2214  0.2811
   10SAPS  H17R 1270   0.980   3.626   8.272 -1.5158  0.3247  2.2071
   10SAPS  H17S 1271   0.972   3.448   8.296 -1.5646 -0.4544 -0.1318
   10SAPS  C218 1272   0.792   3.544   8.337  0.8809  0.1779  0.6781
   10SAPS  H18R 1273   0.811   3.561   8.445  1.3568 -0.8287  0.7632
   10SAPS  H18S 1274   0.740   3.446   8.333  0.4085  0.4322  0.4611
   10SAPS  C219 1275   0.692   3.650   8.298  1.1335  0.2127 -0.2843
   10SAPS  H19R 1276   0.669   3.642   8.190  1.7230  0.3953 -0.4318
   10SAPS  H19S 1277   0.739   3.749   8.318  0.5180  0.1919  1.3830
   10SAPS  C220 1278   0.567   3.631   8.381  0.3758  0.1138 -0.3988
   10SAPS  H20R 1279   0.502   3.720   8.371 -1.2441 -1.1873 -2.3225
   10SAPS  H20S 1280   0.589   3.630   8.490  0.5483 -0.8082 -0.4278
   10SAPS  H20T 1281   0.505   3.543   8.355  0.5000 -0.6900  1.7727
   10SAPS   C33 1282   1.090   4.220   7.150 -0.6324 -0.3274 -0.4374
   10SAPS   H3X 1283   1.199   4.242   7.156 -0.3329 -1.9956  1.4345
   10SAPS   H3Y 1284   1.074   4.114   7.122  1.8953 -0.5699 -1.1942
   10SAPS   C34 1285   1.049   4.246   7.298 -0.5865  0.5168 -0.2587
   10SAPS   H4X 1286   0.939   4.233   7.299 -0.5611 -0.0192  2.4046
   10SAPS   H4Y 1287   1.076   4.348   7.332  2.0463  0.4510 -1.8469
   10SAPS   C35 1288   1.106   4.139   7.392 -0.0070  0.2488  0.2737
   10SAPS   H5X 1289   1.217   4.128   7.387  0.1307  1.7467 -0.4141
   10SAPS   H5Y 1290   1.062   4.040   7.365 -0.5067  0.4854  0.2015
   10SAPS   C36 1291   1.066   4.160   7.540  0.0333 -0.0565 -0.6274
   10SAPS   H6X 1292   1.135   4.236   7.582  1.4657  0.3688 -3.4927
   10SAPS   H6Y 1293   1.085   4.066   7.596 -0.6429  1.2836  1.9813
   10SAPS   C37 1294   0.930   4.220   7.577 -0.0751 -0.3222 -0.7088
   10SAPS   H7X 1295   0.847   4.158   7.537 -0.6140 -1.3258  1.7494
   10SAPS   H7Y 1296   0.912   4.325   7.546 -1.1613 -0.4767 -0.6594
   10SAPS   C38 1297   0.915   4.218   7.732 -0.2789 -0.0010  0.0540
   10SAPS   H8X 1298   0.820   4.268   7.760 -0.7970 -2.6447  3.5856
   10SAPS   H8Y 1299   0.994   4.284   7.774  0.9982 -1.4266 -0.0098
   10SAPS   C39 1300   0.904   4.079   7.799 -0.2716 -0.4724 -0.6113
   10SAPS   H9X 1301   0.990   4.011   7.779 -1.8489 -2.2935 -1.4786
   10SAPS   H9Y 1302   0.814   4.017   7.781 -1.0206  0.6890 -0.9689
   10SAPS  C310 1303   0.914   4.103   7.956 -0.2427  0.0818 -0.2495
   10SAPS  H10X 1304   0.895   4.005   8.004  0.6945 -0.4647 -0.9577
   10SAPS  H10Y 1305   0.843   4.179   7.995  1.6510  0.9108  1.8109
   10SAPS  C311 1306   1.051   4.159   8.001  0.6082 -0.5484  0.5253
   10SAPS  H11X 1307   1.080   4.261   7.967 -0.2703 -0.9631 -1.6095
   10SAPS  H11Y 1308   1.131   4.089   7.968 -0.4057 -0.4714 -2.2617
   10SAPS  C312 1309   1.060   4.174   8.143 -0.2362  0.0739 -0.3489
   10SAPS  H12X 1310   1.013   4.084   8.188 -1.4357  0.3638 -0.9713
   10SAPS  H12Y 1311   0.991   4.253   8.180 -1.0504 -0.7507 -0.0731
   10SAPS  C313 1312   1.204   4.196   8.202 -0.4226 -0.2160 -0.9627
   10SAPS  H13X 1313   1.230   4.297   8.163  1.0901 -0.7345 -1.3281
   10SAPS  H13Y 1314   1.277   4.127   8.156 -1.9998 -1.5285 -1.5808
   10SAPS  C314 1315   1.217   4.202   8.358  0.0446  0.3396  0.1153
   10SAPS  H14X 1316   1.161   4.292   8.390 -0.9838 -0.8895  2.0262
   10SAPS  H14Y 1317   1.323   4.233   8.371  0.6225  0.9430 -4.5849
   10SAPS  C315 1318   1.179   4.066   8.441 -0.2489 -0.3124  0.3920
   10SAPS  H15X 1319   1.070   4.045   8.435 -0.2602 -0.5604  1.2916
   10SAPS  H15Y 1320   1.194   4.097   8.546 -2.4661  0.5514  0.5103
   10SAPS  C316 1321   1.256   3.940   8.418 -0.1496  0.7534  0.6663
   10SAPS  H16X 1322   1.251   3.882   8.513  0.9995 -0.4502  0.0264
   10SAPS  H16Y 1323   1.361   3.975   8.411 -0.3603  1.2040 -0.3009
   10SAPS  C317 1324   1.194   3.858   8.306 -0.5789 -0.0317 -0.2675
   10SAPS  H17X 1325   1.196   3.914   8.210  3.7122  1.0432  0.2425
   10SAPS  H17Y 1326   1.092   3.824   8.336 -0.5211 -2.4363 -2.4371
   10SAPS  C318 1327   1.272   3.728   8.284 -0.2824  0.1613 -0.8291
   10SAPS  H18X 1328   1.217   3.660   8.216  0.4303 -1.7324  0.3782
   10SAPS  H18Y 1329   1.296   3.660   8.369 -0.7996  0.6178 -0.3156
   10SAPS  H18Z 1330   1.372   3.747   8.239 -0.1818 -1.3766 -1.3377
   11SAPS     N 1331   4.623   5.860   5.975  0.7276  0.0405  0.7404
   11SAPS   HN1 1332   4.697   5.929   5.950 -0.3213  0.9127 -0.0734
   11SAPS   HN2 1333   4.544   5.915   6.013  0.4350 -0.5275  0.9562
   11SAPS   HN3 1334   4.651   5.782   6.037 -1.2292 -1.3668 -0.0678
   11SAPS   C12 1335   4.575   5.796   5.852 -0.7193  0.1384  0.0493
   11SAPS  H12A 1336   4.560   5.870   5.775  1.0016  2.5326  1.8640
   11SAPS   C13 1337   4.689   5.701   5.799 -0.0098 -0.1434  0.5785
   11SAPS  O13A 1338   4.807   5.718   5.842 -0.2934  0.3718  0.1650
   11SAPS  O13B 1339   4.670   5.647   5.685  0.3509 -0.5579  0.3279
   11SAPS   C11 1340   4.445   5.720   5.871  0.2542  0.4628 -0.0072
   11SAPS  H11A 1341   4.457   5.648   5.955 -0.1457  0.8426  0.3842
   11SAPS  H11B 1342   4.427   5.668   5.775 -0.4341 -0.5695  0.6614
   11SAPS     P 1343   4.190   5.792   5.869 -0.8619 -0.6478  0.5006
   11SAPS   O13 1344   4.127   5.920   5.841  0.0918 -0.1356 -0.0422
   11SAPS   O14 1345   4.186   5.684   5.772 -0.0948  0.0351  0.0196
   11SAPS   O12 1346   4.341   5.818   5.895 -0.2616  0.4779  0.2624
   11SAPS   O11 1347   4.133   5.741   6.003 -0.4215  0.7124 -0.6304
   11SAPS    C1 1348   4.208   5.759   6.125  0.5080 -0.1473  0.3690
   11SAPS    HA 1349   4.257   5.663   6.150 -1.6544 -0.4190  4.5253
   11SAPS    HB 1350   4.284   5.840   6.114  0.8921 -0.7800 -2.6680
   11SAPS    C2 1351   4.107   5.778   6.247 -0.5936 -0.2957  0.4507
   11SAPS    HS 1352   4.144   5.873   6.292 -0.1604 -1.2110  2.1104
   11SAPS   O21 1353   4.093   5.663   6.328  0.2185  0.4749  0.3963
   11SAPS   C21 1354   4.197   5.643   6.409 -0.0408 -0.0477  0.2213
   11SAPS   O22 1355   4.292   5.718   6.427  0.4332 -0.3223 -0.0030
   11SAPS   C22 1356   4.173   5.510   6.493  0.7409  0.4348 -0.1769
   11SAPS   H2R 1357   4.080   5.534   6.549 -0.7414 -0.3565 -2.2043
   11SAPS   H2S 1358   4.148   5.428   6.423  0.3414 -0.9715  1.5639
   11SAPS    C3 1359   3.968   5.810   6.189  0.0284 -0.1797  0.0878
   11SAPS    HX 1360   3.928   5.720   6.138 -2.5062  0.9617 -0.1235
   11SAPS    HY 1361   3.981   5.887   6.111  0.6848 -1.6234 -1.2808
   11SAPS   O31 1362   3.870   5.838   6.292 -0.2012  0.1652 -0.1588
   11SAPS   C31 1363   3.754   5.861   6.242 -0.3697  0.4867  0.7143
   11SAPS   O32 1364   3.723   5.862   6.120  0.1893  0.3829 -0.6000
   11SAPS   C32 1365   3.655   5.893   6.350  0.5372 -0.9499 -0.5377
   11SAPS   H2X 1366   3.555   5.880   6.302  0.4707 -2.2329 -0.0904
   11SAPS   H2Y 1367   3.646   5.998   6.386  2.1257 -1.1847  0.6390
   11SAPS   C23 1368   4.295   5.465   6.578  0.3588  0.1638 -0.7742
   11SAPS   H3R 1369   4.360   5.552   6.598 -0.2044  0.2595  0.7690
   11SAPS   H3S 1370   4.360   5.392   6.525  1.5496 -0.1574  1.0482
   11SAPS   C24 1371   4.265   5.396   6.711  0.3833 -0.1719  0.0931
   11SAPS   H4R 1372   4.364   5.364   6.748  2.0298 -0.7504 -4.1907
   11SAPS   H4S 1373   4.208   5.302   6.695  0.2269 -0.2846  1.2528
   11SAPS   C25 1374   4.187   5.492   6.799 -0.4911 -0.2081  0.7170
   11SAPS   H5R 1375   4.078   5.486   6.787 -0.3393  0.1639 -1.2892
   11SAPS   C26 1376   4.248   5.587   6.876 -0.4969 -0.2845 -0.0462
   11SAPS   H6R 1377   4.185   5.665   6.921 -2.1705 -2.5223  1.7380
   11SAPS   C27 1378   4.400   5.598   6.899  0.8732  0.2158  0.2732
   11SAPS   H7R 1379   4.453   5.503   6.877  0.0306  0.0751 -1.2627
   11SAPS   H7S 1380   4.417   5.613   7.007  0.4401  2.5209  0.0699
   11SAPS   C28 1381   4.464   5.709   6.826 -0.0686 -0.8773 -0.7034
   11SAPS   H8R 1382   4.498   5.684   6.724  2.7144  1.4344 -0.4396
   11SAPS   C29 1383   4.473   5.841   6.858  0.5307  0.7379  0.5478
   11SAPS   H9R 1384   4.523   5.917   6.796 -2.1333  1.6762 -0.5834
   11SAPS  C210 1385   4.415   5.900   6.988 -0.0655 -0.8894  0.1583
   11SAPS  H10R 1386   4.356   5.819   7.037 -2.4245 -0.3224 -1.5817
   11SAPS  H10S 1387   4.351   5.990   6.979  0.3292 -0.0924  3.7989
   11SAPS  C211 1388   4.535   5.941   7.069 -0.0078  0.0521 -0.1779
   11SAPS  H11R 1389   4.626   5.969   7.013  0.1431  0.1158  0.0948
   11SAPS  C212 1390   4.545   5.942   7.205  0.0217  0.7281  0.1808
   11SAPS  H12R 1391   4.638   5.982   7.249  1.4401 -3.0576  1.0245
   11SAPS  C213 1392   4.442   5.907   7.297  1.3553 -0.3022 -0.1768
   11SAPS  H13R 1393   4.344   5.912   7.244  0.7607  2.8110  0.9931
   11SAPS  H13S 1394   4.432   5.993   7.366  0.5445  1.6936 -2.6315
   11SAPS  C214 1395   4.467   5.774   7.371 -0.6238  0.1319 -0.4525
   11SAPS  H14R 1396   4.479   5.686   7.305  0.9069  0.8356 -1.1629
   11SAPS  C215 1397   4.490   5.760   7.502 -0.2710  0.5002 -0.4083
   11SAPS  H15R 1398   4.493   5.656   7.538  0.2141 -0.0601 -1.9531
   11SAPS  C216 1399   4.504   5.864   7.611  0.5544  0.9040  0.1641
   11SAPS  H16R 1400   4.455   5.958   7.578  0.0929  1.2933  1.8712
   11SAPS  H16S 1401   4.611   5.873   7.637  0.6531  0.5885 -0.1130
   11SAPS  C217 1402   4.423   5.814   7.735  0.5966 -0.0348  0.4860
   11SAPS  H17R 1403   4.446   5.712   7.772 -1.9296 -0.3948  1.2504
   11SAPS  H17S 1404   4.320   5.795   7.699  0.9276 -2.0635  0.4899
   11SAPS  C218 1405   4.429   5.910   7.855  0.2779 -0.5827  0.4476
   11SAPS  H18R 1406   4.362   5.996   7.834  0.6780 -0.4795 -0.4637
   11SAPS  H18S 1407   4.531   5.955   7.854 -0.5693  1.4041  0.2526
   11SAPS  C219 1408   4.390   5.855   7.990  1.1313  0.2261 -0.1512
   11SAPS  H19R 1409   4.447   5.761   8.009 -0.8757 -1.0727 -0.2240
   11SAPS  H19S 1410   4.285   5.816   7.989  1.0094  0.5599 -0.6364
   11SAPS  C220 1411   4.395   5.959   8.104  0.7576 -0.6782  0.3425
   11SAPS  H20R 1412   4.317   5.933   8.179 -0.9483 -0.3317 -1.2182
   11SAPS  H20S 1413   4.379   6.060   8.061 -0.8039  0.0718  2.4935
   11SAPS  H20T 1414   4.487   5.963   8.165  1.1289  4.3838 -0.1656
   11SAPS   C33 1415   3.657   5.790   6.463  0.5209 -0.1899 -0.4530
   11SAPS   H3X 1416   3.757   5.804   6.509  1.5932  1.8868 -3.1166
   11SAPS   H3Y 1417   3.644   5.688   6.422 -0.8071 -0.6314  0.9810
   11SAPS   C34 1418   3.560   5.814   6.574  0.3537  0.2986 -0.0832
   11SAPS   H4X 1419   3.459   5.826   6.530  0.4499  1.0341 -0.1090
   11SAPS   H4Y 1420   3.589   5.910   6.620 -1.0212  0.6108  0.1636
   11SAPS   C35 1421   3.567   5.696   6.680  0.4639 -0.1336  1.3076
   11SAPS   H5X 1422   3.675   5.682   6.704  0.4598  1.9218  2.8515
   11SAPS   H5Y 1423   3.520   5.606   6.635  1.4155  0.3335 -0.7214
   11SAPS   C36 1424   3.492   5.722   6.804  0.5987 -0.4145 -0.0149
   11SAPS   H6X 1425   3.389   5.750   6.772  0.1293 -3.3710 -1.3710
   11SAPS   H6Y 1426   3.535   5.813   6.851 -1.8099  1.4322 -1.1671
   11SAPS   C37 1427   3.494   5.601   6.903  0.2858  0.5229  0.4021
   11SAPS   H7X 1428   3.594   5.579   6.946 -0.3383  0.5926  1.9411
   11SAPS   H7Y 1429   3.460   5.510   6.848 -1.4377  0.8738  0.8435
   11SAPS   C38 1430   3.395   5.619   7.014 -1.2462 -0.2726 -0.6656
   11SAPS   H8X 1431   3.350   5.523   7.048  0.4968 -0.6554  0.7097
   11SAPS   H8Y 1432   3.314   5.688   6.982 -2.6644 -0.6716  1.8192
   11SAPS   C39 1433   3.457   5.686   7.143  0.3888  0.6212  0.4463
   11SAPS   H9X 1434   3.461   5.796   7.122 -1.0504  0.7830  0.8860
   11SAPS   H9Y 1435   3.557   5.643   7.162 -0.5860 -2.2880 -0.5772
   11SAPS  C310 1436   3.374   5.638   7.265  1.0301  0.5629 -0.8238
   11SAPS  H10X 1437   3.381   5.528   7.275 -1.9927  0.2897 -0.8018
   11SAPS  H10Y 1438   3.269   5.672   7.257  0.9935  0.5583 -0.3510
   11SAPS  C311 1439   3.426   5.695   7.402 -1.1162  0.0243 -0.5532
   11SAPS  H11X 1440   3.413   5.805   7.401 -0.3999  0.1961 -4.3275
   11SAPS  H11Y 1441   3.533   5.674   7.424 -0.8995  0.6448 -0.9847
   11SAPS  C312 1442   3.352   5.638   7.531 -0.3151 -0.2772  0.5946
   11SAPS  H12X 1443   3.373   5.529   7.534 -0.9970 -0.4021  1.4190
   11SAPS  H12Y 1444   3.241   5.644   7.520 -0.2609 -2.0158 -1.6551
   11SAPS  C313 1445   3.389   5.709   7.657 -0.2750 -0.2254 -0.1827
   11SAPS  H13X 1446   3.360   5.814   7.632 -2.4721 -0.8186 -0.3408
   11SAPS  H13Y 1447   3.499   5.710   7.670 -0.2654  1.3443 -0.1674
   11SAPS  C314 1448   3.331   5.653   7.786 -0.5492  0.3887 -0.0527
   11SAPS  H14X 1449   3.352   5.545   7.798 -1.1292 -0.1196 -2.8701
   11SAPS  H14Y 1450   3.222   5.675   7.774 -0.6364  0.3794  0.6774
   11SAPS  C315 1451   3.375   5.727   7.907  0.3245 -0.2917  0.3953
   11SAPS  H15X 1452   3.366   5.838   7.900 -1.3357 -0.4928 -1.7124
   11SAPS  H15Y 1453   3.485   5.718   7.923  0.6851  2.5774  0.1899
   11SAPS  C316 1454   3.294   5.686   8.030 -0.2637 -0.1552 -0.0669
   11SAPS  H16X 1455   3.184   5.685   8.014 -0.3132 -0.1756  0.2662
   11SAPS  H16Y 1456   3.305   5.768   8.104 -1.6116  1.7906 -1.9304
   11SAPS  C317 1457   3.328   5.553   8.087  0.4793  1.1209 -0.5284
   11SAPS  H17X 1458   3.439   5.550   8.093  0.4721 -0.5888 -0.6855
   11SAPS  H17Y 1459   3.287   5.477   8.016  2.3285 -0.6971  0.2268
   11SAPS  C318 1460   3.271   5.527   8.225  0.0814  0.2214  0.0101
   11SAPS  H18X 1461   3.262   5.623   8.281  1.2530  0.7279 -0.6348
   11SAPS  H18Y 1462   3.320   5.453   8.291  1.0454  2.6215  2.1330
   11SAPS  H18Z 1463   3.170   5.483   8.210  0.3501  0.1511 -1.8642
   12SAPS     N 1464   3.712   3.577   5.927 -0.1045  0.4695 -0.2641
   12SAPS   HN1 1465   3.801   3.529   5.952  0.3917  0.5470 -1.7511
   12SAPS   HN2 1466   3.720   3.651   5.854 -2.7453  0.1209 -1.0169
   12SAPS   HN3 1467   3.662   3.614   6.010 -1.2154 -0.4171 -0.5187
   12SAPS   C12 1468   3.624   3.468   5.867 -0.1288  0.5858 -0.2784
   12SAPS  H12A 1469   3.522   3.498   5.884 -0.3995 -0.8917  0.8813
   12SAPS   C13 1470   3.626   3.433   5.716  0.5298 -0.2716 -0.4112
   12SAPS  O13A 1471   3.704   3.495   5.639  1.0456  0.2188 -0.9216
   12SAPS  O13B 1472   3.563   3.337   5.673 -0.5120  0.0777 -0.7589
   12SAPS   C11 1473   3.645   3.337   5.957  1.1493 -0.0621  0.2392
   12SAPS  H11A 1474   3.729   3.281   5.911  0.8396  1.5736 -2.5587
   12SAPS  H11B 1475   3.552   3.279   5.936 -0.3377  2.2518  0.0864
   12SAPS     P 1476   3.687   3.248   6.197  0.2246  0.3045 -0.2648
   12SAPS   O13 1477   3.566   3.168   6.236 -0.7643 -0.5624 -0.2071
   12SAPS   O14 1478   3.805   3.185   6.138 -0.3160 -0.0513 -0.0809
   12SAPS   O12 1479   3.646   3.362   6.100  0.2221  0.7150  0.1669
   12SAPS   O11 1480   3.725   3.338   6.321 -0.2781 -0.4474 -0.6297
   12SAPS    C1 1481   3.721   3.275   6.450 -0.2406 -0.1863  0.4272
   12SAPS    HA 1482   3.730   3.165   6.437  2.4398  0.0591 -0.5038
   12SAPS    HB 1483   3.811   3.310   6.505  0.4492 -3.1836  1.4452
   12SAPS    C2 1484   3.592   3.291   6.543  0.1832  0.1510 -0.6905
   12SAPS    HS 1485   3.504   3.272   6.479 -0.4032  0.8567 -0.1144
   12SAPS   O21 1486   3.587   3.424   6.606  0.6394 -0.0328 -0.0829
   12SAPS   C21 1487   3.553   3.513   6.516  0.2353 -0.2835  0.6492
   12SAPS   O22 1488   3.518   3.485   6.402  0.3632 -1.0001 -0.1953
   12SAPS   C22 1489   3.558   3.658   6.568 -0.3048  0.1136  0.4626
   12SAPS   H2R 1490   3.585   3.663   6.675 -0.5021 -2.0300  0.6526
   12SAPS   H2S 1491   3.636   3.709   6.507 -1.3592 -0.4031 -1.4332
   12SAPS    C3 1492   3.594   3.193   6.665  0.3738 -0.0557  0.4320
   12SAPS    HX 1493   3.688   3.211   6.720  1.0364  0.5692 -0.8465
   12SAPS    HY 1494   3.595   3.093   6.617 -3.8621 -0.3082  0.4656
   12SAPS   O31 1495   3.472   3.214   6.745 -0.6316  0.3026 -0.8250
   12SAPS   C31 1496   3.366   3.161   6.692  0.0180  0.5139  1.0741
   12SAPS   O32 1497   3.351   3.119   6.580 -0.5064  0.3970 -0.4552
   12SAPS   C32 1498   3.246   3.167   6.783 -0.4705 -0.7503 -0.4738
   12SAPS   H2X 1499   3.188   3.255   6.749  2.3792  1.4125 -0.1920
   12SAPS   H2Y 1500   3.281   3.193   6.885 -0.0449  0.9393 -1.0164
   12SAPS   C23 1501   3.417   3.722   6.547  0.2750  0.7830  0.0447
   12SAPS   H3R 1502   3.374   3.709   6.445 -0.7481 -2.2705  0.7355
   12SAPS   H3S 1503   3.421   3.828   6.577  2.0226  0.6769  0.2537
   12SAPS   C24 1504   3.313   3.659   6.648 -0.3851  0.2697 -0.2769
   12SAPS   H4R 1505   3.318   3.549   6.642 -1.4586  0.0151  2.3803
   12SAPS   H4S 1506   3.217   3.703   6.614  0.4865  1.2497 -1.5993
   12SAPS   C25 1507   3.349   3.704   6.789 -0.1390 -0.0895 -0.0699
   12SAPS   H5R 1508   3.349   3.813   6.803 -1.3859 -0.3322  2.7138
   12SAPS   C26 1509   3.379   3.637   6.904 -0.2011  0.2994 -0.5935
   12SAPS   H6R 1510   3.414   3.697   6.989 -1.0358 -0.1462  0.0829
   12SAPS   C27 1511   3.381   3.492   6.930  0.9458  0.6102 -0.7088
   12SAPS   H7R 1512   3.463   3.475   7.003  0.9591 -1.8783 -1.2171
   12SAPS   H7S 1513   3.392   3.436   6.835 -0.5998  5.4265 -4.0963
   12SAPS   C28 1514   3.248   3.458   6.993  1.0075  0.0008 -0.1616
   12SAPS   H8R 1515   3.161   3.500   6.941  2.3383  2.3477 -0.6353
   12SAPS   C29 1516   3.226   3.371   7.101  0.4733  0.1541  0.4857
   12SAPS   H9R 1517   3.122   3.355   7.131  0.4099  2.5687  1.8344
   12SAPS  C210 1518   3.338   3.300   7.181  0.5376  0.9942 -0.0422
   12SAPS  H10R 1519   3.425   3.284   7.114  0.7720  1.2818  0.1927
   12SAPS  H10S 1520   3.291   3.208   7.223 -1.7602  1.6956 -0.9064
   12SAPS  C211 1521   3.386   3.386   7.294  0.4854 -1.1165 -0.6145
   12SAPS  H11R 1522   3.395   3.494   7.274  1.3466 -1.2796 -1.1379
   12SAPS  C212 1523   3.406   3.351   7.422  0.1406  0.2075 -0.2725
   12SAPS  H12R 1524   3.450   3.420   7.495 -0.2955 -0.4119  0.5914
   12SAPS  C213 1525   3.389   3.215   7.478  0.6783  0.5990 -0.0349
   12SAPS  H13R 1526   3.388   3.143   7.393  0.4027  0.5090  0.0415
   12SAPS  H13S 1527   3.290   3.196   7.526 -0.2333  0.4045 -1.9167
   12SAPS  C214 1528   3.490   3.166   7.576  0.3268  0.0918 -0.8225
   12SAPS  H14R 1529   3.591   3.177   7.533  0.4885 -0.5554 -0.6244
   12SAPS  C215 1530   3.465   3.122   7.702 -0.0505  0.6795 -0.0149
   12SAPS  H15R 1531   3.544   3.086   7.769 -1.5404 -4.5219 -0.6047
   12SAPS  C216 1532   3.327   3.106   7.762  0.1568 -0.0995 -0.3834
   12SAPS  H16R 1533   3.256   3.076   7.682  0.1498  0.3729 -0.5577
   12SAPS  H16S 1534   3.302   3.205   7.805 -0.6756 -0.1160 -0.8054
   12SAPS  C217 1535   3.321   3.009   7.880  0.1889 -0.6490 -0.6211
   12SAPS  H17R 1536   3.405   3.021   7.951  0.6285 -2.2255 -0.8356
   12SAPS  H17S 1537   3.311   2.905   7.840 -0.8726 -0.8686  0.1679
   12SAPS  C218 1538   3.201   3.040   7.967 -0.1871  0.7012  0.1369
   12SAPS  H18R 1539   3.114   3.023   7.900 -0.1419 -0.2286  0.2920
   12SAPS  H18S 1540   3.206   3.147   7.995 -0.4557  0.5332  0.8594
   12SAPS  C219 1541   3.203   2.948   8.086 -0.2322  0.0216 -0.9603
   12SAPS  H19R 1542   3.292   2.983   8.144 -1.1100  0.0143  0.4378
   12SAPS  H19S 1543   3.202   2.842   8.053  0.5474 -0.4169  0.3604
   12SAPS  C220 1544   3.087   2.977   8.180  0.3527  0.4617  0.0625
   12SAPS  H20R 1545   3.080   2.906   8.266 -0.5387 -1.0909 -1.2326
   12SAPS  H20S 1546   2.995   2.979   8.118 -0.6324  1.4082  1.4947
   12SAPS  H20T 1547   3.105   3.080   8.217 -2.1779  0.7633  0.6000
   12SAPS   C33 1548   3.166   3.038   6.767 -0.3533 -0.0575 -0.5266
   12SAPS   H3X 1549   3.131   3.020   6.664  0.1090  1.8116 -1.0543
   12SAPS   H3Y 1550   3.072   3.049   6.826 -0.0521 -2.6556  0.5398
   12SAPS   C34 1551   3.240   2.909   6.823 -0.0654 -0.2934  0.6120
   12SAPS   H4X 1552   3.339   2.915   6.774 -0.2763  1.1442  0.3061
   12SAPS   H4Y 1553   3.193   2.814   6.791 -2.2290  1.1054 -0.6377
   12SAPS   C35 1554   3.265   2.912   6.974  0.2504  0.7444  0.3903
   12SAPS   H5X 1555   3.299   3.018   6.982  2.7652  0.0065  0.4314
   12SAPS   H5Y 1556   3.354   2.852   7.003 -1.2252 -1.9712 -0.4230
   12SAPS   C36 1557   3.141   2.884   7.066  0.2570  0.4807  1.1965
   12SAPS   H6X 1558   3.108   2.779   7.054  1.2687  0.2623  0.1346
   12SAPS   H6Y 1559   3.056   2.948   7.034  0.5737  0.3301 -0.0284
   12SAPS   C37 1560   3.167   2.879   7.219 -0.4302 -0.1132 -0.5413
   12SAPS   H7X 1561   3.165   2.986   7.251  0.4325 -0.1207 -0.4235
   12SAPS   H7Y 1562   3.270   2.841   7.235  2.2355  4.7550 -3.5033
   12SAPS   C38 1563   3.067   2.799   7.305 -0.6336  0.6108 -1.2625
   12SAPS   H8X 1564   3.070   2.688   7.301 -0.8500  0.5255  0.2149
   12SAPS   H8Y 1565   2.966   2.840   7.285 -1.3478  0.0109  0.8169
   12SAPS   C39 1566   3.091   2.820   7.461 -0.0469 -0.4140 -0.0852
   12SAPS   H9X 1567   3.075   2.926   7.489  0.4743 -0.2635 -0.3354
   12SAPS   H9Y 1568   3.199   2.803   7.482 -0.3098  0.9176  2.9995
   12SAPS  C310 1569   3.008   2.726   7.547 -0.1660 -0.9324 -0.1676
   12SAPS  H10X 1570   3.026   2.624   7.507  2.1356 -0.6342 -0.0642
   12SAPS  H10Y 1571   2.900   2.745   7.529  0.0108  0.6281  0.2793
   12SAPS  C311 1572   3.046   2.753   7.696  0.1224  0.3570  0.9433
   12SAPS  H11X 1573   3.004   2.853   7.720  1.2431  0.3993  2.9391
   12SAPS  H11Y 1574   3.157   2.747   7.706  0.3694  1.1968 -0.8405
   12SAPS  C312 1575   2.992   2.650   7.788  1.0342 -0.1488  1.0607
   12SAPS  H12X 1576   3.039   2.556   7.753  1.5957  0.0309  1.3277
   12SAPS  H12Y 1577   2.884   2.623   7.790  1.1509 -0.7627  0.0269
   12SAPS  C313 1578   3.049   2.683   7.928 -0.6588 -0.1344  0.2942
   12SAPS  H13X 1579   2.999   2.777   7.960 -2.4941 -0.3341 -1.7507
   12SAPS  H13Y 1580   3.157   2.704   7.919 -0.4015  0.0456  2.9747
   12SAPS  C314 1581   3.037   2.563   8.013 -0.5922 -0.8001  1.0342
   12SAPS  H14X 1582   3.114   2.489   7.983  0.1253  0.0185  0.8464
   12SAPS  H14Y 1583   2.936   2.518   8.004 -0.4830 -1.2645  1.9750
   12SAPS  C315 1584   3.079   2.600   8.152  0.0496  0.1902  0.1981
   12SAPS  H15X 1585   3.079   2.710   8.168  0.7031  0.0855  0.9940
   12SAPS  H15Y 1586   3.183   2.569   8.175 -0.9236 -2.6773  1.1276
   12SAPS  C316 1587   2.994   2.544   8.263 -0.1047  0.6052  0.3801
   12SAPS  H16X 1588   2.994   2.433   8.265  0.0846  0.5970 -0.0297
   12SAPS  H16Y 1589   2.893   2.582   8.238  0.8647  1.8011 -2.0755
   12SAPS  C317 1590   3.030   2.595   8.399  0.2780  0.1494 -0.5533
   12SAPS  H17X 1591   3.005   2.703   8.414 -1.6661 -0.4490  0.9479
   12SAPS  H17Y 1592   3.139   2.579   8.415 -0.1295 -0.7751  1.6239
   12SAPS  C318 1593   2.959   2.531   8.516  0.0906  0.3123 -0.3068
   12SAPS  H18X 1594   3.002   2.574   8.609  0.2012 -0.3400 -0.0453
   12SAPS  H18Y 1595   2.967   2.420   8.526 -0.4212  0.3659  0.9050
   12SAPS  H18Z 1596   2.851   2.554   8.532  0.1772  0.6568 -0.2178
   13SAPS     N 1597   2.262   6.531   6.022 -0.1657 -0.6219 -0.2772
   13SAPS   HN1 1598   2.278   6.430   6.043 -1.1419 -1.1780 -2.0330
   13SAPS   HN2 1599   2.350   6.574   5.988 -0.4172  0.3421  0.2653
   13SAPS   HN3 1600   2.229   6.579   6.109 -0.8219  0.5019 -1.1300
   13SAPS   C12 1601   2.161   6.554   5.920  0.6321 -0.0241  0.1397
   13SAPS  H12A 1602   2.201   6.562   5.820 -3.1739  1.1257 -1.4656
   13SAPS   C13 1603   2.052   6.446   5.916 -0.6593 -0.2912  0.1565
   13SAPS  O13A 1604   2.046   6.356   6.002  0.6856 -0.2354 -0.2829
   13SAPS  O13B 1605   1.977   6.445   5.815 -0.2648  0.1416 -0.3800
   13SAPS   C11 1606   2.093   6.692   5.959 -0.3723 -0.2954  0.6285
   13SAPS  H11A 1607   2.001   6.695   5.897  2.0942  1.2194 -3.3966
   13SAPS  H11B 1608   2.160   6.773   5.922 -0.4287 -0.8449 -0.7299
   13SAPS     P 1609   1.932   6.734   6.164 -0.0437 -0.3951 -0.0837
   13SAPS   O13 1610   1.889   6.868   6.104 -0.1818 -0.4364  0.2468
   13SAPS   O14 1611   1.848   6.623   6.128  0.1415  0.1030 -0.1523
   13SAPS   O12 1612   2.076   6.710   6.101  0.0196 -0.3073 -0.4209
   13SAPS   O11 1613   1.946   6.742   6.322  0.5862 -0.5831  0.0816
   13SAPS    C1 1614   2.049   6.817   6.384 -0.1000 -0.2807 -0.3068
   13SAPS    HA 1615   2.070   6.916   6.339  3.3818 -0.3158  0.8975
   13SAPS    HB 1616   2.010   6.847   6.484 -0.4520 -0.1824 -0.4719
   13SAPS    C2 1617   2.175   6.739   6.401  0.4984  0.0456 -0.1046
   13SAPS    HS 1618   2.235   6.733   6.308  0.0278 -1.6220 -0.3426
   13SAPS   O21 1619   2.143   6.602   6.445  0.4816 -0.2488  0.0758
   13SAPS   C21 1620   2.214   6.503   6.393 -0.2627  0.5398  0.2436
   13SAPS   O22 1621   2.301   6.516   6.308 -0.5327  0.0414  0.1256
   13SAPS   C22 1622   2.172   6.377   6.462  1.0944 -0.0213  0.7803
   13SAPS   H2R 1623   2.102   6.403   6.545 -0.7341  0.1946 -0.7453
   13SAPS   H2S 1624   2.103   6.321   6.395  1.7488 -1.2423  1.1160
   13SAPS    C3 1625   2.267   6.806   6.507  0.5220  0.5377 -0.7447
   13SAPS    HX 1626   2.214   6.801   6.605  3.3329 -1.8722  0.8147
   13SAPS    HY 1627   2.280   6.907   6.461 -0.1658  0.2299 -1.6402
   13SAPS   O31 1628   2.391   6.737   6.519  0.2473  0.1172  0.1508
   13SAPS   C31 1629   2.476   6.806   6.582 -0.0818 -0.1302 -0.2806
   13SAPS   O32 1630   2.464   6.924   6.619 -0.1091 -0.2889  0.0627
   13SAPS   C32 1631   2.608   6.723   6.587  0.2493 -0.7067  0.3646
   13SAPS   H2X 1632   2.675   6.772   6.515  0.6777  2.0136  2.4311
   13SAPS   H2Y 1633   2.601   6.615   6.564  0.0941 -0.7226  0.4784
   13SAPS   C23 1634   2.285   6.280   6.502  0.2150 -0.5227  0.4373
   13SAPS   H3R 1635   2.326   6.250   6.403  1.5146  1.8298  0.1940
   13SAPS   H3S 1636   2.240   6.190   6.550  0.0314 -0.0936  1.0790
   13SAPS   C24 1637   2.402   6.348   6.567  1.0677  0.1494 -0.1233
   13SAPS   H4R 1638   2.430   6.438   6.508 -0.5882 -0.1103 -1.3872
   13SAPS   H4S 1639   2.500   6.296   6.559  1.5944  0.9482  0.9047
   13SAPS   C25 1640   2.369   6.379   6.708  0.2712 -0.6003 -0.3023
   13SAPS   H5R 1641   2.270   6.417   6.735  0.9267  0.7111  0.3300
   13SAPS   C26 1642   2.457   6.361   6.809  0.2460 -0.2551 -0.6094
   13SAPS   H6R 1643   2.416   6.385   6.908  3.2024  0.7132  0.4911
   13SAPS   C27 1644   2.592   6.304   6.802 -0.1758  0.0390 -0.2703
   13SAPS   H7R 1645   2.656   6.340   6.886  0.3788 -0.2325 -0.5665
   13SAPS   H7S 1646   2.639   6.346   6.710 -0.7051  0.4785 -0.3399
   13SAPS   C28 1647   2.589   6.152   6.806 -0.7861 -0.1407 -0.1143
   13SAPS   H8R 1648   2.587   6.105   6.706 -0.2298  0.8594 -0.6084
   13SAPS   C29 1649   2.629   6.076   6.911  0.0287 -0.0739  0.4653
   13SAPS   H9R 1650   2.625   5.968   6.896  1.6659 -0.0305 -0.5357
   13SAPS  C210 1651   2.672   6.122   7.050 -0.2846 -0.3110 -0.2893
   13SAPS  H10R 1652   2.604   6.201   7.088 -1.0766 -1.0802 -0.0600
   13SAPS  H10S 1653   2.775   6.161   7.044  0.1688 -1.2495  0.8692
   13SAPS  C211 1654   2.649   5.999   7.138 -0.2169 -0.4681 -0.1103
   13SAPS  H11R 1655   2.715   5.917   7.106  0.5183  1.2878 -3.6165
   13SAPS  C212 1656   2.573   5.987   7.251  0.2459  0.0475  0.2200
   13SAPS  H12R 1657   2.574   5.892   7.306 -2.4488 -0.3019 -0.1895
   13SAPS  C213 1658   2.488   6.090   7.324  0.3283  0.4197 -0.3889
   13SAPS  H13R 1659   2.502   6.186   7.269 -3.2216 -1.0799 -4.4403
   13SAPS  H13S 1660   2.537   6.102   7.423 -2.7875  0.1211  1.2956
   13SAPS  C214 1661   2.343   6.060   7.354 -0.6106 -0.0656 -0.9472
   13SAPS  H14R 1662   2.263   6.077   7.281 -3.5196  1.8610  2.3596
   13SAPS  C215 1663   2.291   6.009   7.474  0.1207  0.4464 -0.2053
   13SAPS  H15R 1664   2.185   5.978   7.479 -0.1422  1.0784 -1.3235
   13SAPS  C216 1665   2.369   5.979   7.600 -0.5333 -0.7568 -0.1209
   13SAPS  H16R 1666   2.478   5.991   7.581 -0.5533 -1.3546 -0.6457
   13SAPS  H16S 1667   2.359   5.871   7.624  3.7557 -1.3152  0.0059
   13SAPS  C217 1668   2.311   6.067   7.713 -0.5464 -0.4126  0.0931
   13SAPS  H17R 1669   2.202   6.050   7.719 -0.8521  1.7039  2.4830
   13SAPS  H17S 1670   2.329   6.175   7.697  0.5812 -0.7132 -0.7562
   13SAPS  C218 1671   2.376   6.039   7.862  0.2349  0.1048 -0.0870
   13SAPS  H18R 1672   2.477   6.084   7.875  0.6610 -0.9917  0.5898
   13SAPS  H18S 1673   2.386   5.930   7.882  1.1726  0.6359  2.7782
   13SAPS  C219 1674   2.292   6.099   7.975  0.2310  0.2179  0.8892
   13SAPS  H19R 1675   2.183   6.083   7.968  0.1149  0.3584  2.1992
   13SAPS  H19S 1676   2.310   6.208   7.959  0.1252  0.0300 -0.6934
   13SAPS  C220 1677   2.329   6.055   8.121  0.0437  0.3707  0.6106
   13SAPS  H20R 1678   2.302   5.947   8.119  0.2522  0.2294 -3.1284
   13SAPS  H20S 1679   2.273   6.107   8.201  3.0079  1.7092  1.9478
   13SAPS  H20T 1680   2.438   6.057   8.143  0.5406  1.3467 -1.5651
   13SAPS   C33 1681   2.660   6.728   6.734  0.0263  0.6113 -0.3713
   13SAPS   H3X 1682   2.581   6.683   6.798  1.1827  0.2918  0.8857
   13SAPS   H3Y 1683   2.684   6.833   6.761 -0.9671  0.3363  1.7782
   13SAPS   C34 1684   2.782   6.634   6.769 -1.0534 -0.0895  0.0087
   13SAPS   H4X 1685   2.871   6.682   6.724 -0.8577 -0.7309 -0.2943
   13SAPS   H4Y 1686   2.774   6.536   6.718 -1.3117  1.6418 -3.5643
   13SAPS   C35 1687   2.800   6.604   6.916  0.5449 -0.7328 -0.2661
   13SAPS   H5X 1688   2.714   6.550   6.961 -0.8558  3.0490  2.0873
   13SAPS   H5Y 1689   2.828   6.691   6.980  1.6993 -0.1371 -1.5451
   13SAPS   C36 1690   2.922   6.504   6.926 -0.3288  0.4132  0.4933
   13SAPS   H6X 1691   3.002   6.545   6.862 -0.4112  0.0853  0.1755
   13SAPS   H6Y 1692   2.893   6.404   6.887  1.0875  0.2310 -0.1439
   13SAPS   C37 1693   2.955   6.473   7.073  0.3664  0.3368 -0.3855
   13SAPS   H7X 1694   2.858   6.428   7.103 -0.0568  0.5001 -1.4466
   13SAPS   H7Y 1695   2.985   6.564   7.128  0.1653 -0.6188  1.3846
   13SAPS   C38 1696   3.068   6.371   7.086 -0.1428  0.4571 -0.6170
   13SAPS   H8X 1697   3.167   6.418   7.064  1.4790 -1.9751  1.1327
   13SAPS   H8Y 1698   3.061   6.303   6.998  3.9251 -0.2039 -0.6153
   13SAPS   C39 1699   3.065   6.305   7.226 -0.6777  0.5807  0.6636
   13SAPS   H9X 1700   3.132   6.217   7.215  1.8287  2.2695  1.5241
   13SAPS   H9Y 1701   2.965   6.258   7.233 -1.4297  2.0827  0.2183
   13SAPS  C310 1702   3.104   6.402   7.328 -0.4889  0.7416 -0.0776
   13SAPS  H10X 1703   3.039   6.492   7.331  0.3607  1.3454  1.1657
   13SAPS  H10Y 1704   3.204   6.444   7.304 -0.6817  0.4886 -1.4450
   13SAPS  C311 1705   3.090   6.356   7.469 -0.2959  0.2531  0.0471
   13SAPS  H11X 1706   3.164   6.273   7.478 -0.5122 -0.2943 -2.4436
   13SAPS  H11Y 1707   2.990   6.314   7.492  1.4107 -4.7363 -0.3693
   13SAPS  C312 1708   3.123   6.471   7.572 -0.1091  0.3957  0.4700
   13SAPS  H12X 1709   3.059   6.561   7.554  0.9810  0.7564 -2.1163
   13SAPS  H12Y 1710   3.225   6.505   7.543 -0.1603 -0.8007 -1.2697
   13SAPS  C313 1711   3.102   6.431   7.717 -0.2218 -0.3083  0.5132
   13SAPS  H13X 1712   3.147   6.329   7.720 -0.2979 -0.3961 -0.8151
   13SAPS  H13Y 1713   2.992   6.416   7.725 -0.6412  1.9913 -0.1912
   13SAPS  C314 1714   3.159   6.522   7.828  0.4151  0.2586  0.3378
   13SAPS  H14X 1715   3.092   6.609   7.835 -0.7393 -0.1196 -3.6191
   13SAPS  H14Y 1716   3.253   6.559   7.779  0.8439 -1.5285 -0.2856
   13SAPS  C315 1717   3.188   6.458   7.964  0.0323  0.2893  0.3282
   13SAPS  H15X 1718   3.240   6.526   8.035  1.5961 -1.7049  1.2018
   13SAPS  H15Y 1719   3.264   6.380   7.941  1.3868  2.3830 -3.0738
   13SAPS  C316 1720   3.072   6.387   8.028  0.0006 -0.1130  0.1017
   13SAPS  H16X 1721   3.086   6.313   8.109  0.6273 -0.5861 -0.4269
   13SAPS  H16Y 1722   3.019   6.330   7.948  2.7633 -0.1025 -1.9138
   13SAPS  C317 1723   2.968   6.488   8.073  0.0234 -0.1155  0.0677
   13SAPS  H17X 1724   2.920   6.542   7.989 -2.9790  0.9407  2.2937
   13SAPS  H17Y 1725   3.028   6.561   8.132 -0.1618 -1.6565  2.2796
   13SAPS  C318 1726   2.842   6.443   8.145 -0.2445  0.1097  0.0800
   13SAPS  H18X 1727   2.768   6.525   8.153  0.3179  0.9571 -2.4180
   13SAPS  H18Y 1728   2.878   6.415   8.247  1.0056 -0.1646 -0.4138
   13SAPS  H18Z 1729   2.792   6.358   8.094 -0.4968  1.3164 -1.7602
   14SAPS     N 1730   2.123   6.119   6.057 -0.4808  1.3082  0.4232
   14SAPS   HN1 1731   2.105   6.221   6.052  0.4401  1.4841  0.4249
   14SAPS   HN2 1732   2.048   6.065   6.009  0.8904  0.7719 -1.2202
   14SAPS   HN3 1733   2.132   6.088   6.155  1.4388 -0.0293 -0.1058
   14SAPS   C12 1734   2.256   6.081   5.998  0.0635  0.7358 -0.3918
   14SAPS  H12A 1735   2.242   6.094   5.892 -0.9147  2.3418 -0.1016
   14SAPS   C13 1736   2.369   6.187   6.036 -0.3709 -0.2180  0.1423
   14SAPS  O13A 1737   2.340   6.290   6.105 -0.2814  0.0464  0.3438
   14SAPS  O13B 1738   2.473   6.181   5.965 -0.6393 -0.1190 -0.0175
   14SAPS   C11 1739   2.300   5.931   6.026  0.0014  0.1285 -0.1098
   14SAPS  H11A 1740   2.352   5.919   6.124 -0.6940 -1.8677  0.0678
   14SAPS  H11B 1741   2.379   5.899   5.954 -0.4452 -0.7831 -0.2174
   14SAPS     P 1742   2.169   5.717   6.101 -0.2645  0.1294  0.0097
   14SAPS   O13 1743   2.048   5.645   6.072  0.2090  0.4778  1.2598
   14SAPS   O14 1744   2.293   5.642   6.109 -0.8481  0.9085  0.4054
   14SAPS   O12 1745   2.193   5.837   6.008  0.5176 -0.0798 -0.2613
   14SAPS   O11 1746   2.160   5.788   6.243  0.1617  0.1094  0.3970
   14SAPS    C1 1747   2.059   5.754   6.342 -0.0739  0.2667 -0.1207
   14SAPS    HA 1748   1.975   5.826   6.342 -0.6119 -0.2624  2.6259
   14SAPS    HB 1749   2.004   5.665   6.306  1.2937 -0.6830  0.0643
   14SAPS    C2 1750   2.101   5.737   6.487  0.1650 -0.1280  0.2660
   14SAPS    HS 1751   2.044   5.657   6.539  3.2944 -0.3369  3.8314
   14SAPS   O21 1752   2.094   5.853   6.566  0.2888  0.6535 -0.4630
   14SAPS   C21 1753   1.969   5.899   6.583  0.1892 -0.1346  1.1222
   14SAPS   O22 1754   1.867   5.847   6.537  0.1818 -0.6466  0.1298
   14SAPS   C22 1755   1.983   6.040   6.641 -0.9325 -0.4870  0.0482
   14SAPS   H2R 1756   2.087   6.063   6.670 -1.2805 -0.5795  1.4911
   14SAPS   H2S 1757   1.940   6.106   6.563 -2.3165 -3.2073 -1.6874
   14SAPS    C3 1758   2.241   5.683   6.487  0.0505  0.9488 -0.1101
   14SAPS    HX 1759   2.307   5.751   6.430  0.5553  1.9987  1.6443
   14SAPS    HY 1760   2.240   5.587   6.431 -1.3401 -0.1545  1.6915
   14SAPS   O31 1761   2.297   5.660   6.622  0.0344 -0.3895  0.3880
   14SAPS   C31 1762   2.362   5.756   6.692 -1.1450 -0.7673  0.1683
   14SAPS   O32 1763   2.410   5.857   6.646 -0.2979 -0.5901  0.0644
   14SAPS   C32 1764   2.363   5.733   6.836  0.2989  0.7838 -0.4886
   14SAPS   H2X 1765   2.470   5.710   6.859  0.5825  1.1630 -1.3825
   14SAPS   H2Y 1766   2.301   5.645   6.863 -1.5104  2.3644  0.7797
   14SAPS   C23 1767   1.892   6.051   6.767  0.2469  0.2867  0.3348
   14SAPS   H3R 1768   1.886   5.952   6.818  1.0451  0.8278  1.5315
   14SAPS   H3S 1769   1.799   6.101   6.734  1.1125  1.0872 -0.9774
   14SAPS   C24 1770   1.949   6.146   6.868  0.6380  0.5971 -0.4743
   14SAPS   H4R 1771   2.050   6.109   6.895 -0.5776 -0.9885  2.3228
   14SAPS   H4S 1772   1.886   6.126   6.957 -4.8119  3.3981 -3.1781
   14SAPS   C25 1773   1.943   6.294   6.832  0.4703 -0.8375 -0.5408
   14SAPS   H5R 1774   1.875   6.324   6.751  1.5349  1.0942 -0.7759
   14SAPS   C26 1775   2.003   6.390   6.899 -0.0875 -0.5557  0.3544
   14SAPS   H6R 1776   1.981   6.495   6.875  0.3235 -0.9030 -1.8168
   14SAPS   C27 1777   2.100   6.355   7.009 -0.0620 -0.8189  0.6533
   14SAPS   H7R 1778   2.197   6.311   6.977 -0.2568 -0.2558 -0.7823
   14SAPS   H7S 1779   2.062   6.273   7.074  0.3294 -0.9021  0.7836
   14SAPS   C28 1780   2.131   6.482   7.086 -0.1860  0.0962  0.3114
   14SAPS   H8R 1781   2.207   6.540   7.031 -0.3688  0.3777  0.3539
   14SAPS   C29 1782   2.099   6.523   7.206  0.4779  0.3512 -0.1568
   14SAPS   H9R 1783   2.112   6.630   7.228 -2.0911  0.7792 -0.4377
   14SAPS  C210 1784   2.007   6.441   7.295  0.1667 -0.6918  0.0968
   14SAPS  H10R 1785   1.923   6.401   7.233  0.3903  1.1807 -1.5348
   14SAPS  H10S 1786   1.943   6.502   7.362 -1.6201  1.0737 -2.9380
   14SAPS  C211 1787   2.100   6.341   7.368  0.2854  0.3704 -0.1693
   14SAPS  H11R 1788   2.152   6.271   7.302 -1.4797  0.0922 -1.3502
   14SAPS  C212 1789   2.099   6.321   7.503 -0.3690  0.5450 -0.8886
   14SAPS  H12R 1790   2.182   6.262   7.544 -0.2641 -0.4017 -2.3676
   14SAPS  C213 1791   2.021   6.401   7.609  0.3937  0.3684 -0.3436
   14SAPS  H13R 1792   2.010   6.503   7.566 -0.7391 -0.3155 -1.7432
   14SAPS  H13S 1793   2.071   6.416   7.708 -0.8130 -0.2402  0.3785
   14SAPS  C214 1794   1.884   6.356   7.648 -0.6153  0.0831  0.2737
   14SAPS  H14R 1795   1.807   6.384   7.575 -1.2860 -1.0725  0.5187
   14SAPS  C215 1796   1.835   6.314   7.761  0.9200  0.0874  0.0209
   14SAPS  H15R 1797   1.735   6.269   7.752  0.9319 -0.4900  2.2019
   14SAPS  C216 1798   1.916   6.287   7.886  0.6876 -0.5223  0.7276
   14SAPS  H16R 1799   2.005   6.222   7.873  0.1327 -1.0464 -0.6601
   14SAPS  H16S 1800   1.851   6.229   7.955  1.4443 -1.2082  0.8749
   14SAPS  C217 1801   1.955   6.422   7.955 -0.9192 -0.0601 -0.6980
   14SAPS  H17R 1802   1.866   6.485   7.977  1.0222  2.7211 -0.2258
   14SAPS  H17S 1803   2.027   6.495   7.914  1.9867 -1.5722  1.3287
   14SAPS  C218 1804   2.034   6.387   8.089  0.3425  0.3304 -0.0933
   14SAPS  H18R 1805   2.120   6.328   8.052  0.5730  1.5173 -1.5519
   14SAPS  H18S 1806   1.965   6.323   8.148 -1.0449  1.9549  0.1363
   14SAPS  C219 1807   2.060   6.506   8.181  0.6679  0.0734 -0.2260
   14SAPS  H19R 1808   1.962   6.553   8.204  0.2892  1.9226 -4.4595
   14SAPS  H19S 1809   2.109   6.593   8.131 -2.0570  2.9297  1.7448
   14SAPS  C220 1810   2.131   6.451   8.300  0.1122 -0.1286  0.0213
   14SAPS  H20R 1811   2.189   6.530   8.353  1.0655 -0.9249  0.2060
   14SAPS  H20S 1812   2.201   6.372   8.267 -0.5052 -0.1777 -1.2218
   14SAPS  H20T 1813   2.061   6.402   8.371 -0.1219  0.3889  0.1499
   14SAPS   C33 1814   2.309   5.850   6.928  0.1460 -0.1290  0.3512
   14SAPS   H3X 1815   2.342   5.950   6.891  0.3106 -0.2395  0.1973
   14SAPS   H3Y 1816   2.372   5.832   7.018 -0.0542 -1.7085  0.2106
   14SAPS   C34 1817   2.162   5.850   6.962 -0.0228  0.4901 -0.4333
   14SAPS   H4X 1818   2.110   5.833   6.866 -1.4930 -1.2841  0.6073
   14SAPS   H4Y 1819   2.136   5.950   7.004  3.4446  0.8323  1.2325
   14SAPS   C35 1820   2.121   5.734   7.058  0.3333  0.1671  0.7205
   14SAPS   H5X 1821   2.212   5.706   7.115  1.2712 -0.3731 -0.9616
   14SAPS   H5Y 1822   2.083   5.645   7.003  1.4810  0.1015 -0.0069
   14SAPS   C36 1823   2.001   5.772   7.148  0.3357 -0.8117  0.2156
   14SAPS   H6X 1824   1.918   5.799   7.079  0.8322  1.1703  0.3533
   14SAPS   H6Y 1825   2.032   5.866   7.198 -0.6267  0.5540 -1.6423
   14SAPS   C37 1826   1.965   5.667   7.258  0.6933 -0.8435 -0.1488
   14SAPS   H7X 1827   1.927   5.568   7.224  0.2403 -0.0831 -1.9803
   14SAPS   H7Y 1828   1.883   5.710   7.319 -0.0188 -0.5314 -1.2856
   14SAPS   C38 1829   2.080   5.652   7.362  1.6477  0.5590  0.5760
   14SAPS   H8X 1830   2.123   5.749   7.396  1.0527  0.8345  0.5462
   14SAPS   H8Y 1831   2.164   5.593   7.319 -0.7933 -0.4983 -3.1788
   14SAPS   C39 1832   2.026   5.580   7.488 -0.0982  0.5966  0.0908
   14SAPS   H9X 1833   1.929   5.623   7.521 -2.1599 -0.8573 -3.4982
   14SAPS   H9Y 1834   2.099   5.599   7.570 -2.1359  1.5405  1.7874
   14SAPS  C310 1835   2.003   5.426   7.478 -0.4287  0.3717  0.2254
   14SAPS  H10X 1836   2.097   5.368   7.464 -2.1471 -2.5082 -0.0048
   14SAPS  H10Y 1837   1.934   5.417   7.391  0.5938  1.5307 -0.7530
   14SAPS  C311 1838   1.943   5.371   7.607  0.4682  0.1567 -0.0446
   14SAPS  H11X 1839   1.855   5.438   7.614  0.3363 -0.0727  0.5578
   14SAPS  H11Y 1840   2.012   5.387   7.692  0.7324 -2.1267  0.2256
   14SAPS  C312 1841   1.886   5.233   7.588 -0.5733 -0.2774  0.4121
   14SAPS  H12X 1842   1.971   5.165   7.563  0.8460  1.1582  1.1073
   14SAPS  H12Y 1843   1.810   5.247   7.508  0.5078  2.2981 -0.2595
   14SAPS  C313 1844   1.810   5.174   7.704 -0.0212 -0.3026 -0.0469
   14SAPS  H13X 1845   1.740   5.094   7.671  0.5453 -2.2445  3.1358
   14SAPS  H13Y 1846   1.752   5.258   7.748  1.1880  0.7184 -0.3340
   14SAPS  C314 1847   1.903   5.108   7.800 -0.2806  0.2261 -0.1099
   14SAPS  H14X 1848   1.994   5.167   7.826  2.1895 -1.9337 -2.9909
   14SAPS  H14Y 1849   1.955   5.017   7.761  2.2087  1.9823 -1.2355
   14SAPS  C315 1850   1.833   5.061   7.932 -0.3699 -0.4455  0.3385
   14SAPS  H15X 1851   1.770   4.974   7.903  1.4132 -1.7814  0.3081
   14SAPS  H15Y 1852   1.773   5.147   7.967  1.6798  2.4297 -2.6384
   14SAPS  C316 1853   1.929   5.018   8.048  0.1657 -0.1716 -0.7078
   14SAPS  H16X 1854   2.014   5.090   8.054  0.7923 -0.7338 -2.1837
   14SAPS  H16Y 1855   1.978   4.927   8.007 -0.3325 -1.6289  1.7248
   14SAPS  C317 1856   1.856   4.989   8.184  0.4150 -0.1110 -0.8038
   14SAPS  H17X 1857   1.772   4.917   8.174  0.2745 -0.0118 -0.3459
   14SAPS  H17Y 1858   1.815   5.087   8.217 -0.7113 -0.5778 -0.7542
   14SAPS  C318 1859   1.949   4.946   8.298  0.7989  0.2337 -0.4572
   14SAPS  H18X 1860   1.983   4.843   8.274 -0.4645  0.2269 -2.4201
   14SAPS  H18Y 1861   1.916   4.955   8.404 -0.8600 -0.0846 -0.9109
   14SAPS  H18Z 1862   2.040   5.009   8.295  1.4858 -0.5192  1.9141
   15SAPS     N 1863   4.063   6.177   5.966 -0.0960 -0.1943 -0.4557
   15SAPS   HN1 1864   4.070   6.081   5.925  1.1904 -0.4181  0.2198
   15SAPS   HN2 1865   4.130   6.193   6.043 -0.9717  0.0493  0.2747
   15SAPS   HN3 1866   3.971   6.205   6.005  0.6302  0.4968  0.8354
   15SAPS   C12 1867   4.094   6.272   5.867 -0.5752 -0.0607  0.1684
   15SAPS  H12A 1868   4.193   6.256   5.827 -0.8099  0.1417 -0.5073
   15SAPS   C13 1869   4.006   6.275   5.740  0.2016  0.1884  0.0449
   15SAPS  O13A 1870   3.924   6.182   5.717 -0.6339 -0.7683  0.3160
   15SAPS  O13B 1871   4.033   6.358   5.651  0.2681  0.1669 -0.0864
   15SAPS   C11 1872   4.091   6.414   5.933  0.5961 -0.0966 -0.2891
   15SAPS  H11A 1873   3.986   6.439   5.960  1.4224  0.8345  2.3539
   15SAPS  H11B 1874   4.135   6.483   5.859 -1.3885 -0.3475 -1.8030
   15SAPS     P 1875   4.322   6.451   6.058 -0.2191  0.1389 -0.4007
   15SAPS   O13 1876   4.375   6.389   5.933  0.4062  0.1867 -0.3364
   15SAPS   O14 1877   4.339   6.598   6.070 -0.0760 -0.3821  0.5335
   15SAPS   O12 1878   4.168   6.413   6.060  0.0344  0.0429  1.0958
   15SAPS   O11 1879   4.386   6.379   6.187 -0.0153  0.0250  0.1313
   15SAPS    C1 1880   4.394   6.442   6.315  0.3854 -0.2825  0.1558
   15SAPS    HA 1881   4.491   6.496   6.318  0.6155 -0.6675  3.6959
   15SAPS    HB 1882   4.308   6.513   6.324 -1.1175 -1.6180 -2.3630
   15SAPS    C2 1883   4.396   6.340   6.432 -0.3766  0.3926  0.8718
   15SAPS    HS 1884   4.499   6.299   6.426 -0.6470 -0.1194 -0.9228
   15SAPS   O21 1885   4.313   6.226   6.395 -0.3233 -0.0952  0.1629
   15SAPS   C21 1886   4.334   6.108   6.458 -0.4275  0.5200  0.5102
   15SAPS   O22 1887   4.443   6.072   6.500  0.0610  0.1682 -0.1535
   15SAPS   C22 1888   4.197   6.053   6.487 -0.2611  0.5528  0.6282
   15SAPS   H2R 1889   4.127   6.067   6.402  0.3538 -2.3258 -0.4671
   15SAPS   H2S 1890   4.210   5.945   6.512 -0.5130  0.8969  2.3861
   15SAPS    C3 1891   4.371   6.397   6.572  0.5386 -0.1416  0.2594
   15SAPS    HX 1892   4.261   6.402   6.559  0.6160 -2.1421 -1.6024
   15SAPS    HY 1893   4.410   6.501   6.582  0.6647 -0.2507  0.9842
   15SAPS   O31 1894   4.420   6.316   6.679  1.0600  0.4685 -0.0717
   15SAPS   C31 1895   4.534   6.346   6.735  0.6745 -0.7222  0.3707
   15SAPS   O32 1896   4.617   6.425   6.692  0.5922 -0.2096 -0.1170
   15SAPS   C32 1897   4.548   6.270   6.869 -0.2330 -0.3166  0.9222
   15SAPS   H2X 1898   4.611   6.179   6.859  0.8540  0.6094 -1.9336
   15SAPS   H2Y 1899   4.447   6.231   6.891 -0.5080 -0.5804 -0.6705
   15SAPS   C23 1900   4.147   6.103   6.626  0.4490 -0.4584  0.3768
   15SAPS   H3R 1901   4.156   6.212   6.647 -0.2072 -0.5992  1.4022
   15SAPS   H3S 1902   4.211   6.050   6.699  0.0852 -0.6386  0.5672
   15SAPS   C24 1903   4.002   6.059   6.658  0.1073  0.3989  0.6008
   15SAPS   H4R 1904   3.930   6.093   6.581  0.1375  1.5972  1.0879
   15SAPS   H4S 1905   3.974   6.108   6.754  1.2999  2.3034  0.0300
   15SAPS   C25 1906   3.990   5.908   6.662  0.4790 -0.0098 -0.6269
   15SAPS   H5R 1907   4.021   5.846   6.577  2.0757  0.9518 -0.7819
   15SAPS   C26 1908   3.934   5.834   6.763 -0.0589 -1.0350 -0.4887
   15SAPS   H6R 1909   3.950   5.725   6.763  4.0231 -0.6399  1.2655
   15SAPS   C27 1910   3.870   5.890   6.890  0.1538 -0.1859 -0.4356
   15SAPS   H7R 1911   3.776   5.835   6.908 -0.9971  2.3457  2.1018
   15SAPS   H7S 1912   3.837   5.993   6.862  0.0048 -0.2225 -0.3929
   15SAPS   C28 1913   3.958   5.892   7.011 -0.2701 -0.7441 -0.2113
   15SAPS   H8R 1914   4.063   5.867   6.989 -0.4958 -0.6590 -1.4446
   15SAPS   C29 1915   3.927   5.897   7.141 -1.1288  0.5176 -0.7034
   15SAPS   H9R 1916   4.007   5.894   7.217 -1.2516 -0.8947 -0.6148
   15SAPS  C210 1917   3.785   5.919   7.191  0.0669 -0.9466  0.6446
   15SAPS  H10R 1918   3.727   5.824   7.195  0.3941 -1.3916 -2.5860
   15SAPS  H10S 1919   3.723   5.983   7.125 -2.5692 -4.0703 -0.1810
   15SAPS  C211 1920   3.773   6.001   7.318 -0.9482 -0.1034  0.4808
   15SAPS  H11R 1921   3.778   6.109   7.298 -0.5360  0.1925  2.0644
   15SAPS  C212 1922   3.777   5.971   7.446  0.0342  0.3173  0.4651
   15SAPS  H12R 1923   3.760   6.053   7.517  2.2496 -0.1899  1.6623
   15SAPS  C213 1924   3.784   5.831   7.498 -0.1795 -0.0295  0.0469
   15SAPS  H13R 1925   3.757   5.756   7.421  0.0187 -1.1515  1.0565
   15SAPS  H13S 1926   3.719   5.805   7.584  0.1852 -3.0235 -0.4698
   15SAPS  C214 1927   3.933   5.808   7.534  0.2914  0.4359  0.6697
   15SAPS  H14R 1928   4.001   5.817   7.448  0.6059  0.0982  0.8766
   15SAPS  C215 1929   3.978   5.787   7.657  0.2532 -0.1079 -0.6890
   15SAPS  H15R 1930   4.084   5.787   7.685 -0.1542 -1.4194  1.0834
   15SAPS  C216 1931   3.898   5.777   7.789  0.3232 -0.4763 -0.1849
   15SAPS  H16R 1932   3.897   5.671   7.825 -0.3257 -0.3344  0.2302
   15SAPS  H16S 1933   3.798   5.825   7.787  1.7943  2.8488 -0.0681
   15SAPS  C217 1934   3.964   5.862   7.902  0.3045 -0.2770  0.2978
   15SAPS  H17R 1935   3.975   5.964   7.859 -0.5297 -0.2375  0.1660
   15SAPS  H17S 1936   4.061   5.812   7.924  0.4033 -0.1071  0.2543
   15SAPS  C218 1937   3.885   5.865   8.031  0.9932  0.2686 -0.2962
   15SAPS  H18R 1938   3.780   5.902   8.021  1.3747  1.3944 -0.3339
   15SAPS  H18S 1939   3.944   5.939   8.090  2.9261 -0.7433 -0.8741
   15SAPS  C219 1940   3.898   5.724   8.105 -0.4919  0.2552  0.3601
   15SAPS  H19R 1941   4.005   5.698   8.089 -0.4595 -0.1558  1.1861
   15SAPS  H19S 1942   3.835   5.652   8.050 -1.1049  1.8203 -1.0787
   15SAPS  C220 1943   3.863   5.734   8.252 -0.1694 -0.1929 -0.3325
   15SAPS  H20R 1944   3.900   5.649   8.313 -1.3693 -0.3054  0.2550
   15SAPS  H20S 1945   3.757   5.762   8.273  0.2777  0.2356  1.5171
   15SAPS  H20T 1946   3.917   5.823   8.291  0.2660 -0.5354 -0.1474
   15SAPS   C33 1947   4.603   6.359   6.984  0.2240  0.4948 -0.2628
   15SAPS   H3X 1948   4.643   6.461   6.964 -0.6045  1.1326  1.1018
   15SAPS   H3Y 1949   4.699   6.314   7.018  0.0028  1.2010  1.4385
   15SAPS   C34 1950   4.503   6.346   7.104 -0.5320  0.1702 -0.7708
   15SAPS   H4X 1951   4.464   6.243   7.110 -0.5879  0.1419 -1.5392
   15SAPS   H4Y 1952   4.422   6.418   7.078  1.8597  3.1524 -0.6039
   15SAPS   C35 1953   4.562   6.373   7.245 -0.7113 -0.1562  0.3995
   15SAPS   H5X 1954   4.578   6.483   7.239 -1.6352 -0.0008  0.5915
   15SAPS   H5Y 1955   4.655   6.316   7.264 -1.6998 -1.3302  1.9814
   15SAPS   C36 1956   4.461   6.332   7.355  0.2488 -0.4746  0.5469
   15SAPS   H6X 1957   4.457   6.222   7.369 -1.9334 -0.6402 -0.8568
   15SAPS   H6Y 1958   4.365   6.375   7.322  0.9422  0.1841 -0.7060
   15SAPS   C37 1959   4.497   6.406   7.486 -0.5275  0.0526  0.0794
   15SAPS   H7X 1960   4.451   6.507   7.487 -1.6413 -0.3888  2.8927
   15SAPS   H7Y 1961   4.608   6.415   7.485 -0.4831 -0.3139  0.7468
   15SAPS   C38 1962   4.463   6.339   7.619 -0.1280 -0.6494  0.0440
   15SAPS   H8X 1963   4.506   6.238   7.635 -1.8045 -1.6818 -1.4952
   15SAPS   H8Y 1964   4.353   6.347   7.634 -0.2133  1.0343 -1.1175
   15SAPS   C39 1965   4.532   6.415   7.734  0.0655 -0.7257  0.3067
   15SAPS   H9X 1966   4.489   6.517   7.748 -0.9629 -1.1130  0.0465
   15SAPS   H9Y 1967   4.641   6.424   7.714  0.0822  1.3645  1.0613
   15SAPS  C310 1968   4.514   6.346   7.872  0.0476 -0.1774 -0.1852
   15SAPS  H10X 1969   4.548   6.241   7.859  0.1630 -0.3892  1.6282
   15SAPS  H10Y 1970   4.406   6.345   7.897 -0.3077 -1.8623 -1.5875
   15SAPS  C311 1971   4.592   6.404   7.992 -0.5015 -0.2942  0.2953
   15SAPS  H11X 1972   4.575   6.513   8.006  0.4335 -0.2066  0.8188
   15SAPS  H11Y 1973   4.697   6.389   7.959 -0.2734  4.3316 -1.9132
   15SAPS  C312 1974   4.559   6.337   8.127  0.6748 -0.1667  0.1713
   15SAPS  H12X 1975   4.530   6.230   8.114  0.7569  0.0432 -2.2559
   15SAPS  H12Y 1976   4.473   6.385   8.178 -1.1092 -2.3615 -0.5859
   15SAPS  C313 1977   4.664   6.352   8.241  0.7052 -0.5145 -0.6565
   15SAPS  H13X 1978   4.701   6.457   8.234  1.2111 -0.7613 -1.9919
   15SAPS  H13Y 1979   4.742   6.279   8.211 -1.1870 -2.0864 -1.9717
   15SAPS  C314 1980   4.612   6.312   8.381  0.1347 -0.1085  0.2180
   15SAPS  H14X 1981   4.569   6.406   8.420  0.3619  0.4510 -0.8575
   15SAPS  H14Y 1982   4.693   6.280   8.450  3.6862 -1.2534 -4.0027
   15SAPS  C315 1983   4.504   6.203   8.381 -0.1215  1.1528 -0.0469
   15SAPS  H15X 1984   4.547   6.110   8.338 -0.7841  0.7175  0.2322
   15SAPS  H15Y 1985   4.424   6.223   8.306 -0.9395 -0.8675  0.2205
   15SAPS  C316 1986   4.445   6.177   8.516  0.0261 -0.2285 -0.4306
   15SAPS  H16X 1987   4.396   6.270   8.552 -2.1960 -2.4615  2.8232
   15SAPS  H16Y 1988   4.531   6.156   8.583 -1.6089 -0.3428  1.7602
   15SAPS  C317 1989   4.350   6.057   8.527  0.0568  0.3033  0.2694
   15SAPS  H17X 1990   4.265   6.084   8.461  0.7441  0.2788 -0.6478
   15SAPS  H17Y 1991   4.315   6.052   8.632  0.1611 -1.0512  0.2487
   15SAPS  C318 1992   4.399   5.915   8.498  0.2330  0.7304  0.0670
   15SAPS  H18X 1993   4.445   5.903   8.398  0.7077  0.0315  0.3564
   15SAPS  H18Y 1994   4.319   5.843   8.523 -0.0146  0.7804 -0.5650
   15SAPS  H18Z 1995   4.484   5.891   8.567 -0.9970 -3.6103  0.3548
   16SAPS     N 1996   6.052   2.476   6.070 -0.1000  0.0344  0.0399
   16SAPS   HN1 1997   5.951   2.497   6.079 -0.5320 -1.3184 -1.2772
   16SAPS   HN2 1998   6.105   2.517   6.150 -0.1282  3.4790 -1.5617
   16SAPS   HN3 1999   6.098   2.512   5.984 -3.0306 -1.5984 -2.3830
   16SAPS   C12 2000   6.059   2.334   6.044 -0.0671  0.1034 -0.3797
   16SAPS  H12A 2001   6.032   2.309   5.943  3.4837 -3.3350 -0.7096
   16SAPS   C13 2002   6.197   2.278   6.051  0.0627  0.6503  0.2227
   16SAPS  O13A 2003   6.291   2.355   6.076  0.3051 -0.8935  0.7212
   16SAPS  O13B 2004   6.208   2.150   6.058 -0.0598  0.6737 -0.5160
   16SAPS   C11 2005   5.965   2.256   6.143 -0.8104 -0.6314  0.6091
   16SAPS  H11A 2006   6.011   2.256   6.244 -1.2267 -3.1785  0.8562
   16SAPS  H11B 2007   5.962   2.150   6.110  2.8555 -0.6448 -0.0755
   16SAPS     P 2008   5.741   2.253   6.265 -0.0460 -0.1353  0.0464
   16SAPS   O13 2009   5.610   2.322   6.263  0.1844  0.2127  0.3829
   16SAPS   O14 2010   5.736   2.109   6.222  1.0849  0.1345 -0.4083
   16SAPS   O12 2011   5.831   2.319   6.152 -0.1536 -0.7235 -0.2893
   16SAPS   O11 2012   5.812   2.274   6.408  0.1692 -0.0717 -0.1705
   16SAPS    C1 2013   5.868   2.166   6.480  0.7622  0.0317 -0.7446
   16SAPS    HA 2014   5.894   2.083   6.411 -0.1848  1.9552 -3.6530
   16SAPS    HB 2015   5.959   2.202   6.532  1.1081 -1.0309 -0.5899
   16SAPS    C2 2016   5.764   2.103   6.581 -0.2032 -0.3218 -0.8052
   16SAPS    HS 2017   5.679   2.073   6.516  1.0401 -0.1064 -2.6342
   16SAPS   O21 2018   5.732   2.214   6.668  0.0137  0.0823  0.1936
   16SAPS   C21 2019   5.617   2.197   6.737  0.0831  0.4376 -0.2321
   16SAPS   O22 2020   5.538   2.105   6.732 -0.3247  0.5706 -0.0296
   16SAPS   C22 2021   5.600   2.311   6.838 -0.4842 -0.3026  0.5267
   16SAPS   H2R 2022   5.699   2.357   6.860 -0.8517  2.3225 -2.5804
   16SAPS   H2S 2023   5.537   2.392   6.795 -2.6499  0.5154  4.6930
   16SAPS    C3 2024   5.819   1.983   6.663 -0.5902  0.0339  0.5727
   16SAPS    HX 2025   5.829   1.905   6.585 -1.5689  0.1583  0.3079
   16SAPS    HY 2026   5.749   1.938   6.737  1.2465 -0.3336  2.1797
   16SAPS   O31 2027   5.953   1.998   6.704  0.9669  0.3719  0.5077
   16SAPS   C31 2028   5.979   2.016   6.830  0.1340 -0.0572 -0.4795
   16SAPS   O32 2029   5.891   2.049   6.910  0.3868 -0.0372 -0.3879
   16SAPS   C32 2030   6.133   2.002   6.846  0.2995  0.6845  0.5088
   16SAPS   H2X 2031   6.178   2.104   6.854  1.7703  0.0362  0.8033
   16SAPS   H2Y 2032   6.181   1.965   6.753 -0.0523  1.1769  0.1286
   16SAPS   C23 2033   5.533   2.275   6.972 -0.6017  0.3931  0.4033
   16SAPS   H3R 2034   5.579   2.179   7.002  2.0922  2.1465  2.3205
   16SAPS   H3S 2035   5.425   2.252   6.963 -0.0777 -1.5589 -1.9024
   16SAPS   C24 2036   5.557   2.367   7.087 -0.1115  0.0519  0.2682
   16SAPS   H4R 2037   5.664   2.397   7.098 -0.5093  1.9652 -0.6885
   16SAPS   H4S 2038   5.525   2.315   7.180 -0.6037  1.4000  0.8815
   16SAPS   C25 2039   5.469   2.492   7.055 -0.3353 -0.6033  0.5681
   16SAPS   H5R 2040   5.489   2.546   6.962  0.1204  2.0815  2.1227
   16SAPS   C26 2041   5.367   2.542   7.127  0.3460 -0.6189 -0.2575
   16SAPS   H6R 2042   5.315   2.634   7.097 -1.6441 -1.6250 -0.0899
   16SAPS   C27 2043   5.306   2.484   7.256 -0.1428  0.0726  0.3630
   16SAPS   H7R 2044   5.359   2.522   7.346 -0.9437  1.2310  0.3753
   16SAPS   H7S 2045   5.329   2.376   7.262 -1.3363 -0.1749  0.6699
   16SAPS   C28 2046   5.154   2.482   7.269  0.3431 -0.2101  0.4088
   16SAPS   H8R 2047   5.090   2.484   7.179 -1.0373  1.9234  1.3362
   16SAPS   C29 2048   5.097   2.483   7.389  0.6149 -0.8059 -0.0343
   16SAPS   H9R 2049   4.987   2.483   7.388  0.5015  2.5751 -1.9704
   16SAPS  C210 2050   5.157   2.482   7.527  0.3299  0.0996  0.0449
   16SAPS  H10R 2051   5.245   2.413   7.525  1.3656  1.2063  2.5948
   16SAPS  H10S 2052   5.088   2.435   7.600  0.7647 -0.0705  0.3551
   16SAPS  C211 2053   5.193   2.620   7.563 -0.6664 -0.4032 -0.1069
   16SAPS  H11R 2054   5.254   2.675   7.489  2.4373 -1.5959  1.3905
   16SAPS  C212 2055   5.139   2.696   7.666 -1.0146 -0.4954  0.3673
   16SAPS  H12R 2056   5.197   2.788   7.685 -1.9643 -0.1255  1.6184
   16SAPS  C213 2057   5.041   2.661   7.780 -1.6368 -0.1447 -0.5884
   16SAPS  H13R 2058   4.944   2.626   7.738 -1.9850 -0.7578  0.7065
   16SAPS  H13S 2059   5.021   2.763   7.819 -0.3686  0.8594 -2.4074
   16SAPS  C214 2060   5.095   2.576   7.887 -0.3389 -0.1069  0.6045
   16SAPS  H14R 2061   5.044   2.478   7.883 -0.8564  0.1898 -0.5371
   16SAPS  C215 2062   5.179   2.613   7.985 -0.3530  0.4929  0.0343
   16SAPS  H15R 2063   5.225   2.546   8.059  0.2807  1.2991  0.3892
   16SAPS  C216 2064   5.241   2.746   7.994  0.3130 -0.6557  0.4029
   16SAPS  H16R 2065   5.166   2.828   8.004  0.3724 -0.6821  1.1703
   16SAPS  H16S 2066   5.302   2.765   7.903 -0.2910  0.8277  0.2816
   16SAPS  C217 2067   5.311   2.776   8.129 -0.3691  0.9099 -0.1718
   16SAPS  H17R 2068   5.382   2.694   8.154 -2.1774 -0.8590 -0.5990
   16SAPS  H17S 2069   5.242   2.763   8.215 -0.8360 -1.4811 -0.8409
   16SAPS  C218 2070   5.375   2.909   8.159 -0.1088  0.3776  0.6586
   16SAPS  H18R 2071   5.308   2.997   8.161 -1.0303 -0.2652 -0.6578
   16SAPS  H18S 2072   5.454   2.943   8.088 -0.6778  2.3055  0.8990
   16SAPS  C219 2073   5.444   2.907   8.289  0.2325 -0.5933 -0.5846
   16SAPS  H19R 2074   5.520   2.827   8.300  0.9042  0.2572  1.4486
   16SAPS  H19S 2075   5.364   2.891   8.366 -0.5279  1.3397 -0.9105
   16SAPS  C220 2076   5.527   3.031   8.317  0.3035 -0.3736  0.5137
   16SAPS  H20R 2077   5.624   3.018   8.264  2.4628  1.5810  3.6655
   16SAPS  H20S 2078   5.553   3.047   8.424  0.8565  0.6733  0.2353
   16SAPS  H20T 2079   5.477   3.126   8.287  1.9593  0.2238 -0.5095
   16SAPS   C33 2080   6.172   1.911   6.970  0.9004 -0.4517 -0.8449
   16SAPS   H3X 2081   6.278   1.884   6.947  0.2681 -0.0256 -4.9088
   16SAPS   H3Y 2082   6.105   1.823   6.978 -0.4025  0.5914  0.1311
   16SAPS   C34 2083   6.169   1.985   7.104  0.6058  0.3400 -0.2270
   16SAPS   H4X 2084   6.066   2.024   7.120  0.6229  0.6414 -0.8302
   16SAPS   H4Y 2085   6.242   2.069   7.113  0.6017  0.1482  2.7717
   16SAPS   C35 2086   6.186   1.882   7.214  0.2919 -0.1524 -0.3594
   16SAPS   H5X 2087   6.151   1.778   7.198  1.4740 -0.5504 -0.4505
   16SAPS   H5Y 2088   6.128   1.915   7.303  3.4749  0.5709  1.6173
   16SAPS   C36 2089   6.323   1.885   7.272 -0.6030 -0.0711  0.3019
   16SAPS   H6X 2090   6.359   1.990   7.275  0.0098 -0.2954  1.5316
   16SAPS   H6Y 2091   6.388   1.830   7.202  0.5421 -0.7913  1.8664
   16SAPS   C37 2092   6.344   1.824   7.410 -0.4667 -0.0004  0.1486
   16SAPS   H7X 2093   6.451   1.799   7.430 -0.5346  1.1298  2.2076
   16SAPS   H7Y 2094   6.288   1.729   7.418 -0.1223 -0.2052  0.1585
   16SAPS   C38 2095   6.300   1.924   7.515 -0.1997  0.4771  0.9305
   16SAPS   H8X 2096   6.194   1.952   7.501  0.1873  0.7779 -1.9684
   16SAPS   H8Y 2097   6.351   2.024   7.513  2.8932 -0.9459  1.7258
   16SAPS   C39 2098   6.337   1.867   7.647  0.1513 -0.3820  0.5928
   16SAPS   H9X 2099   6.446   1.843   7.648 -0.0492 -1.3453  0.2682
   16SAPS   H9Y 2100   6.281   1.773   7.664 -0.7138  0.4859  3.0865
   16SAPS  C310 2101   6.302   1.973   7.758  0.5849  0.3265  0.2361
   16SAPS  H10X 2102   6.192   1.986   7.772  0.6308 -0.3589  1.3875
   16SAPS  H10Y 2103   6.330   2.075   7.725  0.3627  0.7947  1.4270
   16SAPS  C311 2104   6.371   1.948   7.890  0.3943  0.4045  0.5433
   16SAPS  H11X 2105   6.481   1.955   7.878  1.0153  1.8440  5.2175
   16SAPS  H11Y 2106   6.331   1.845   7.906  0.6309  0.0257 -1.0979
   16SAPS  C312 2107   6.312   2.046   7.999  0.3870  0.4119 -0.5274
   16SAPS  H12X 2108   6.204   2.055   7.977  0.3226  3.2521  0.5802
   16SAPS  H12Y 2109   6.371   2.140   7.992  0.3354  0.4996  0.1228
   16SAPS  C313 2110   6.338   1.984   8.135  0.1799  0.0589  0.0183
   16SAPS  H13X 2111   6.360   2.070   8.202 -0.0047  2.1129 -2.3897
   16SAPS  H13Y 2112   6.433   1.926   8.140 -0.6629 -1.2817  1.1605
   16SAPS  C314 2113   6.216   1.907   8.188  0.6294  0.3798 -1.4835
   16SAPS  H14X 2114   6.220   1.807   8.141  1.2860  0.2120 -1.0963
   16SAPS  H14Y 2115   6.121   1.959   8.165 -2.3066 -2.8265  2.1392
   16SAPS  C315 2116   6.216   1.890   8.344 -0.8039  0.4360  0.0009
   16SAPS  H15X 2117   6.216   1.985   8.401 -3.7600 -0.7131  2.1937
   16SAPS  H15Y 2118   6.313   1.842   8.371  0.1128  2.4913  0.5329
   16SAPS  C316 2119   6.103   1.807   8.414 -0.2708 -0.4100 -0.5293
   16SAPS  H16X 2120   6.108   1.712   8.355  0.6688 -0.7897  0.1384
   16SAPS  H16Y 2121   6.010   1.867   8.414 -0.2614 -0.3959 -0.4459
   16SAPS  C317 2122   6.128   1.783   8.563 -0.1540  0.2952  0.3875
   16SAPS  H17X 2123   6.143   1.881   8.612  0.6064  0.9336 -1.0726
   16SAPS  H17Y 2124   6.219   1.719   8.559  0.6029  1.4231 -2.6512
   16SAPS  C318 2125   6.013   1.722   8.643  0.7287  0.6868  0.4096
   16SAPS  H18X 2126   5.992   1.614   8.632  2.2199  0.0260  3.0617
   16SAPS  H18Y 2127   5.920   1.775   8.613  0.7757  0.3884 -0.2668
   16SAPS  H18Z 2128   6.044   1.736   8.749  1.7868 -1.0228  0.3563
   17SAPC     N 2129   3.644   5.919  10.472  0.0939 -0.0399  0.1077
   17SAPC   C12 2130   3.530   5.943  10.374 -0.6501 -0.0087 -0.4260
   17SAPC  H12A 2131   3.547   6.021  10.301  2.7770  0.1551  0.3689
   17SAPC  H12B 2132   3.445   5.968  10.436  0.3513 -1.5604  1.7228
   17SAPC   C13 2133   3.581   5.861  10.598  0.7200 -0.2144  0.6212
   17SAPC  H13A 2134   3.519   5.928  10.656 -1.6067 -1.7200 -0.0136
   17SAPC  H13B 2135   3.512   5.783  10.570  1.4580 -0.6973  0.0922
   17SAPC  H13C 2136   3.651   5.811  10.664  0.8604  1.7384  2.0430
   17SAPC   C14 2137   3.755   5.836  10.400  0.4134 -0.3350 -0.0486
   17SAPC  H14A 2138   3.841   5.814  10.461  1.2664  0.0800 -1.0680
   17SAPC  H14B 2139   3.717   5.746  10.354  1.3950 -0.8445  0.1076
   17SAPC  H14C 2140   3.802   5.885  10.316 -2.2718  0.8695 -0.9715
   17SAPC   C15 2141   3.710   6.047  10.508 -0.6322  0.0866 -0.9106
   17SAPC  H15A 2142   3.649   6.099  10.580 -1.1693  0.1949 -1.4404
   17SAPC  H15B 2143   3.799   6.023  10.564 -2.3317 -1.8722  1.1151
   17SAPC  H15C 2144   3.727   6.115  10.426  0.7189 -1.6643 -2.1666
   17SAPC   C11 2145   3.470   5.814  10.299 -0.1275 -0.0783  0.1470
   17SAPC  H11A 2146   3.540   5.780  10.221 -0.5988  0.0344 -0.3313
   17SAPC  H11B 2147   3.384   5.858  10.244  0.6576  0.8837 -0.3410
   17SAPC     P 2148   3.487   5.554  10.379  0.1765  0.2510 -0.1638
   17SAPC   O13 2149   3.521   5.498  10.511 -0.2165 -0.5647 -0.1280
   17SAPC   O14 2150   3.384   5.476  10.303  0.5735  0.2126  0.5233
   17SAPC   O12 2151   3.437   5.709  10.386  0.0068 -0.3873  0.8582
   17SAPC   O11 2152   3.620   5.568  10.295 -0.0221  0.3169  0.2082
   17SAPC    C1 2153   3.708   5.458  10.264  0.0323 -0.6930 -0.3157
   17SAPC    HA 2154   3.806   5.480  10.311 -0.1668  0.6281 -0.4668
   17SAPC    HB 2155   3.673   5.360  10.303 -3.8273  1.2520  1.7031
   17SAPC    C2 2156   3.750   5.471  10.111  0.1491  0.5661 -0.9149
   17SAPC    HS 2157   3.780   5.575  10.087  1.9932 -0.2652 -2.4706
   17SAPC   O21 2158   3.638   5.436  10.032  0.7425  1.2337  0.2178
   17SAPC   C21 2159   3.575   5.533   9.963 -1.6487  0.5436 -0.4466
   17SAPC   O22 2160   3.610   5.647   9.962  0.6486 -0.5188 -0.0458
   17SAPC   C22 2161   3.454   5.480   9.889 -0.7415 -0.4040 -0.3498
   17SAPC   H2R 2162   3.409   5.398   9.949  0.4327 -0.2264  0.8176
   17SAPC   H2S 2163   3.385   5.566   9.877 -1.1601 -1.0057 -2.7780
   17SAPC    C3 2164   3.865   5.369  10.089 -0.4946 -0.0168  0.4225
   17SAPC    HX 2165   3.835   5.277  10.142 -0.6344 -0.7163 -0.8153
   17SAPC    HY 2166   3.969   5.401  10.113 -0.4261  0.9661 -1.0303
   17SAPC   O31 2167   3.871   5.347   9.944  0.1817  0.6294  0.4276
   17SAPC   C31 2168   3.916   5.224   9.905 -0.6683 -0.0580 -0.2460
   17SAPC   O32 2169   3.922   5.123   9.976 -0.1856  0.7416  0.3403
   17SAPC   C32 2170   3.969   5.231   9.761 -0.3008 -0.4307 -0.5270
   17SAPC   H2X 2171   4.058   5.295   9.774  0.7438 -2.1227  1.1946
   17SAPC   H2Y 2172   3.897   5.287   9.698 -0.0270  0.3164 -0.1778
   17SAPC   C23 2173   3.494   5.421   9.756  0.5292 -0.1620  0.5679
   17SAPC   H3R 2174   3.410   5.361   9.715 -0.9529  1.8985  0.4408
   17SAPC   H3S 2175   3.574   5.345   9.770  0.1841 -0.8742 -1.1496
   17SAPC   C24 2176   3.533   5.529   9.658  0.4265 -0.3590 -0.2214
   17SAPC   H4R 2177   3.614   5.597   9.693  0.5057  0.5237 -2.0111
   17SAPC   H4S 2178   3.438   5.586   9.649  0.2122 -0.4610  1.2287
   17SAPC   C25 2179   3.560   5.464   9.521  0.3294 -0.6540 -0.3426
   17SAPC   H5R 2180   3.667   5.438   9.515  0.4402 -0.0422 -1.3834
   17SAPC   C26 2181   3.473   5.438   9.420 -0.0710  0.0795  0.0350
   17SAPC   H6R 2182   3.513   5.397   9.327  0.7778  0.3471  0.2657
   17SAPC   C27 2183   3.321   5.461   9.426  0.4059  0.3384 -0.4563
   17SAPC   H7R 2184   3.297   5.477   9.533  2.1434 -0.4832  0.0892
   17SAPC   H7S 2185   3.266   5.370   9.396  0.1973  0.4465 -0.4029
   17SAPC   C28 2186   3.274   5.582   9.342  0.5655  0.8338  0.3425
   17SAPC   H8R 2187   3.256   5.680   9.390  0.2104  0.4183  1.0671
   17SAPC   C29 2188   3.252   5.584   9.209  0.3584 -0.5035 -0.5939
   17SAPC   H9R 2189   3.219   5.682   9.171 -0.3448 -0.8000 -0.7643
   17SAPC  C210 2190   3.269   5.477   9.107 -0.6869  0.7466  0.8462
   17SAPC  H10R 2191   3.305   5.384   9.156  0.3967 -0.1598 -1.5078
   17SAPC  H10S 2192   3.344   5.503   9.029 -1.0776  0.2057  0.2771
   17SAPC  C211 2193   3.140   5.452   9.038 -0.4643 -0.0950 -0.1810
   17SAPC  H11R 2194   3.054   5.432   9.104  1.5108 -2.9242  1.7382
   17SAPC  C212 2195   3.110   5.464   8.910 -0.8605  0.9543  1.0676
   17SAPC  H12R 2196   3.005   5.444   8.883 -0.4108 -0.1089 -0.0141
   17SAPC  C213 2197   3.199   5.492   8.793 -0.6871  0.6397 -0.5499
   17SAPC  H13R 2198   3.304   5.497   8.829 -0.7021  3.4189 -0.6838
   17SAPC  H13S 2199   3.170   5.595   8.760  2.4336  2.5042  1.9374
   17SAPC  C214 2200   3.208   5.387   8.694  0.3422  0.4289 -0.2244
   17SAPC  H14R 2201   3.307   5.339   8.705  0.7779  1.6173  1.1897
   17SAPC  C215 2202   3.127   5.343   8.598  0.8894 -0.2822  0.9633
   17SAPC  H15R 2203   3.157   5.249   8.549 -0.5001 -0.2235 -0.0523
   17SAPC  C216 2204   2.984   5.399   8.576  0.1114  0.0308  0.7971
   17SAPC  H16R 2205   2.987   5.478   8.498  1.1381  0.8063  1.6027
   17SAPC  H16S 2206   2.952   5.453   8.668  2.8616  2.0112  0.7046
   17SAPC  C217 2207   2.891   5.282   8.538 -0.7104 -0.3021 -0.5845
   17SAPC  H17R 2208   2.924   5.237   8.441 -1.2035 -0.0102 -0.8940
   17SAPC  H17S 2209   2.789   5.324   8.522 -1.0417 -1.8988 -3.3183
   17SAPC  C218 2210   2.873   5.177   8.654  0.1724  0.5691  0.3837
   17SAPC  H18R 2211   2.933   5.204   8.744  0.1578  1.6543  0.0863
   17SAPC  H18S 2212   2.915   5.085   8.608 -0.5930  1.3734 -2.0928
   17SAPC  C219 2213   2.740   5.158   8.717  0.5191 -0.2458  0.5787
   17SAPC  H19R 2214   2.743   5.064   8.776 -0.7604 -0.4499  0.3507
   17SAPC  H19S 2215   2.661   5.157   8.639  0.3802 -0.9378  0.7250
   17SAPC  C220 2216   2.719   5.273   8.821  0.5421  0.5542  0.3421
   17SAPC  H20R 2217   2.621   5.261   8.872 -0.9707  2.4884 -1.8939
   17SAPC  H20S 2218   2.707   5.368   8.765 -0.2899 -0.7607 -1.8039
   17SAPC  H20T 2219   2.805   5.278   8.892 -0.0171 -0.3603  1.1170
   17SAPC   C33 2220   4.005   5.091   9.709 -0.4716 -0.2816 -0.2965
   17SAPC   H3X 2221   4.025   5.023   9.794  0.4888  0.0863 -0.2148
   17SAPC   H3Y 2222   4.085   5.082   9.632  0.5368  1.0913  0.5375
   17SAPC   C34 2223   3.881   5.026   9.643 -0.7199  0.3970 -0.1504
   17SAPC   H4X 2224   3.814   4.998   9.728 -0.9590  1.8186  0.1648
   17SAPC   H4Y 2225   3.913   4.927   9.604  0.2864  1.0961 -1.1420
   17SAPC   C35 2226   3.819   5.101   9.526 -0.4996  0.1738  0.0403
   17SAPC   H5X 2227   3.765   5.186   9.575  1.2379  1.0398  0.5443
   17SAPC   H5Y 2228   3.738   5.041   9.480 -2.0086  1.8986  0.2903
   17SAPC   C36 2229   3.919   5.152   9.423  0.2934  0.4251  0.2596
   17SAPC   H6X 2230   3.956   5.057   9.378 -3.7268 -1.3400  0.2218
   17SAPC   H6Y 2231   4.004   5.199   9.476  1.3570 -0.8249 -0.2812
   17SAPC   C37 2232   3.857   5.242   9.317 -0.3941  0.1650 -0.1843
   17SAPC   H7X 2233   3.932   5.238   9.235 -1.1159  1.9843 -1.0006
   17SAPC   H7Y 2234   3.841   5.344   9.358 -1.9059 -0.5259  1.0136
   17SAPC   C38 2235   3.735   5.187   9.247 -0.1960 -0.0259  0.4049
   17SAPC   H8X 2236   3.647   5.192   9.314 -1.0838 -1.2739 -0.6130
   17SAPC   H8Y 2237   3.759   5.083   9.216 -0.4730 -0.0090  0.1260
   17SAPC   C39 2238   3.695   5.257   9.117 -0.1237 -0.0499 -0.7445
   17SAPC   H9X 2239   3.784   5.280   9.054 -0.2768  3.4708  0.0892
   17SAPC   H9Y 2240   3.644   5.349   9.152 -1.5287 -1.3882  0.8897
   17SAPC  C310 2241   3.586   5.180   9.034 -0.3485 -0.3239 -0.1493
   17SAPC  H10X 2242   3.487   5.221   9.062  0.8628  0.9816  2.7713
   17SAPC  H10Y 2243   3.595   5.072   9.058  1.9169 -0.0195  0.6930
   17SAPC  C311 2244   3.598   5.196   8.885 -0.1434 -0.1119 -0.0547
   17SAPC  H11X 2245   3.703   5.179   8.853  0.0956  0.0722  0.6123
   17SAPC  H11Y 2246   3.561   5.299   8.861 -1.6493 -0.1135  2.0142
   17SAPC  C312 2247   3.502   5.104   8.802 -0.0151  0.2402 -0.0864
   17SAPC  H12X 2248   3.396   5.121   8.830  0.2460  2.3606 -0.2750
   17SAPC  H12Y 2249   3.541   5.002   8.824  1.1382  0.2833 -1.6952
   17SAPC  C313 2250   3.524   5.128   8.655  0.3030  0.5118  0.6334
   17SAPC  H13X 2251   3.633   5.127   8.637 -0.1153 -1.1260 -2.4641
   17SAPC  H13Y 2252   3.480   5.226   8.629  0.4980  1.3105  3.0231
   17SAPC  C314 2253   3.460   5.021   8.559 -0.4270 -0.0528 -0.5233
   17SAPC  H14X 2254   3.353   5.017   8.590 -0.3005 -0.6368 -0.1499
   17SAPC  H14Y 2255   3.512   4.923   8.568 -0.4290  0.0507  0.8506
   17SAPC  C315 2256   3.469   5.062   8.411  0.0197 -0.1217 -0.7584
   17SAPC  H15X 2257   3.573   5.041   8.378  0.5436 -0.2266  0.8853
   17SAPC  H15Y 2258   3.448   5.171   8.413 -1.2868 -0.3520 -0.7209
   17SAPC  C316 2259   3.367   4.999   8.315  0.3192  0.5357  0.1386
   17SAPC  H16X 2260   3.358   5.072   8.232 -1.9721  1.1156  0.8246
   17SAPC  H16Y 2261   3.272   4.999   8.372  0.6121  0.7340  0.6375
   17SAPC  C317 2262   3.406   4.860   8.274 -0.4196  0.2631 -0.1461
   17SAPC  H17X 2263   3.362   4.788   8.347 -0.4620 -2.3870 -2.6124
   17SAPC  H17Y 2264   3.516   4.855   8.259 -0.2658  0.4821  0.8740
   17SAPC  C318 2265   3.352   4.837   8.139 -0.0057  0.6313  0.5617
   17SAPC  H18X 2266   3.241   4.829   8.141 -0.0482  1.2994  1.4869
   17SAPC  H18Y 2267   3.361   4.932   8.082 -0.9127  0.3975  0.0100
   17SAPC  H18Z 2268   3.393   4.751   8.082  0.6719  1.7821 -0.7525
   18SAPC     N 2269   3.120   4.380  10.552  0.8859 -0.4995 -0.4908
   18SAPC   C12 2270   3.045   4.505  10.493 -0.2273 -0.5541 -0.3973
   18SAPC  H12A 2271   3.119   4.565  10.443  0.9938 -1.5922  0.1052
   18SAPC  H12B 2272   3.006   4.571  10.569 -0.3641 -0.6307 -0.4011
   18SAPC   C13 2273   3.236   4.428  10.646 -0.5061 -0.1785 -0.1130
   18SAPC  H13A 2274   3.321   4.467  10.592  0.1076 -0.8946  0.3121
   18SAPC  H13B 2275   3.197   4.488  10.726 -1.5314 -1.0034  0.0211
   18SAPC  H13C 2276   3.278   4.343  10.697  0.9467 -1.3321 -2.9742
   18SAPC   C14 2277   3.029   4.301  10.636  0.5281 -0.0625 -0.0850
   18SAPC  H14A 2278   3.002   4.363  10.721 -0.2197 -0.5826  0.0736
   18SAPC  H14B 2279   2.940   4.279  10.579  1.0060 -0.6226 -0.6266
   18SAPC  H14C 2280   3.084   4.212  10.664  1.2175 -0.2121 -1.8341
   18SAPC   C15 2281   3.171   4.279  10.453 -0.9077 -1.0341 -0.6702
   18SAPC  H15A 2282   3.253   4.325  10.401 -2.2063  0.2859 -1.6137
   18SAPC  H15B 2283   3.209   4.196  10.513  0.2301 -0.5357 -0.6653
   18SAPC  H15C 2284   3.103   4.229  10.386 -1.3915  0.9460 -1.7242
   18SAPC   C11 2285   2.923   4.468  10.398 -0.2499  0.3987 -0.4369
   18SAPC  H11A 2286   2.963   4.402  10.319  0.2519  0.2935 -0.0988
   18SAPC  H11B 2287   2.895   4.571  10.367  3.8489  1.4015 -1.4425
   18SAPC     P 2288   2.697   4.342  10.391 -0.3011 -0.7082 -0.6705
   18SAPC   O13 2289   2.631   4.240  10.482 -0.2885 -0.1679  0.7369
   18SAPC   O14 2290   2.618   4.455  10.343  0.1628  0.8548  0.9100
   18SAPC   O12 2291   2.822   4.396  10.465 -0.2943  0.0957  0.1347
   18SAPC   O11 2292   2.763   4.258  10.278 -0.6123  0.6540 -0.0016
   18SAPC    C1 2293   2.830   4.129  10.325  0.4666 -0.4376 -0.1074
   18SAPC    HA 2294   2.894   4.139  10.415  2.1851  0.2793 -1.3710
   18SAPC    HB 2295   2.743   4.064  10.350  0.7603 -0.5876  0.5538
   18SAPC    C2 2296   2.922   4.068  10.224 -0.1693  0.0912 -0.2011
   18SAPC    HS 2297   3.010   4.137  10.220  0.8278 -1.1208  0.3459
   18SAPC   O21 2298   2.868   4.071  10.091  0.3763  0.0816  0.0419
   18SAPC   C21 2299   2.743   4.009  10.077 -0.1562 -0.2247 -0.0238
   18SAPC   O22 2300   2.689   3.940  10.158 -0.5633  0.5737 -0.8357
   18SAPC   C22 2301   2.679   4.059   9.942  0.4899  0.4051 -0.8717
   18SAPC   H2R 2302   2.570   4.061   9.966  0.9278 -0.1109  1.4513
   18SAPC   H2S 2303   2.731   4.156   9.928  1.2622  0.0613 -0.4491
   18SAPC    C3 2304   2.972   3.923  10.257  0.0970  0.3978  0.3569
   18SAPC    HX 2305   2.897   3.850  10.220  0.9774 -0.1369 -0.4290
   18SAPC    HY 2306   2.981   3.922  10.368  0.9461 -0.2912  0.3008
   18SAPC   O31 2307   3.105   3.892  10.196 -0.0692  0.3456  0.6781
   18SAPC   C31 2308   3.160   3.774  10.236  0.5214 -0.3673 -0.3101
   18SAPC   O32 2309   3.093   3.680  10.282 -0.0644  0.4912  0.2936
   18SAPC   C32 2310   3.318   3.786  10.232  0.4639 -0.3215 -0.1513
   18SAPC   H2X 2311   3.351   3.683  10.208 -1.6508 -0.3432 -3.8465
   18SAPC   H2Y 2312   3.349   3.826  10.331  0.2896  1.0797 -0.6390
   18SAPC   C23 2313   2.691   3.963   9.820 -0.1553 -0.1570 -0.6584
   18SAPC   H3R 2314   2.662   3.868   9.870  0.8327  0.4543  1.1833
   18SAPC   H3S 2315   2.801   3.956   9.808  0.1323  0.1400  1.3563
   18SAPC   C24 2316   2.609   3.982   9.689 -0.1142  0.0235  0.6020
   18SAPC   H4R 2317   2.622   4.086   9.652 -1.9728 -0.2047 -0.8720
   18SAPC   H4S 2318   2.500   3.984   9.711 -0.5140 -0.0104 -1.1942
   18SAPC   C25 2319   2.651   3.884   9.580  0.9672  0.3841  0.0909
   18SAPC   H5R 2320   2.674   3.781   9.612 -0.5212 -0.8565 -2.5443
   18SAPC   C26 2321   2.662   3.919   9.447  0.2537 -0.0129  0.2947
   18SAPC   H6R 2322   2.692   3.841   9.376 -0.3289 -1.1413  1.2472
   18SAPC   C27 2323   2.637   4.050   9.377 -0.4854  0.8060  0.4000
   18SAPC   H7R 2324   2.709   4.061   9.293  0.0515  2.1353  0.9944
   18SAPC   H7S 2325   2.655   4.135   9.447  0.1267 -1.1874  2.7964
   18SAPC   C28 2326   2.493   4.059   9.331  0.5250  0.1571  0.3179
   18SAPC   H8R 2327   2.426   4.040   9.416  0.9791  1.3778  0.9857
   18SAPC   C29 2328   2.441   4.089   9.212 -0.6508 -0.9210  0.0809
   18SAPC   H9R 2329   2.332   4.092   9.198 -0.7201 -1.7768  0.3756
   18SAPC  C210 2330   2.524   4.122   9.088 -0.4600  0.0104 -0.7404
   18SAPC  H10R 2331   2.599   4.197   9.122  0.0435 -1.5946  2.0635
   18SAPC  H10S 2332   2.455   4.172   9.017 -1.8453  0.9330  1.1635
   18SAPC  C211 2333   2.581   4.006   9.011  0.4069  0.0423  0.5084
   18SAPC  H11R 2334   2.602   3.918   9.074  1.4903  0.8287  1.2849
   18SAPC  C212 2335   2.609   4.013   8.872 -0.6326 -0.1884  0.0212
   18SAPC  H12R 2336   2.633   3.923   8.812 -2.5930  1.2528 -3.2326
   18SAPC  C213 2337   2.594   4.135   8.780 -1.0648 -0.3155  0.5471
   18SAPC  H13R 2338   2.683   4.154   8.716 -0.4657  1.7691  1.9015
   18SAPC  H13S 2339   2.586   4.225   8.845  1.2967 -0.3233  0.9571
   18SAPC  C214 2340   2.467   4.113   8.698 -0.6316 -0.6789 -0.1073
   18SAPC  H14R 2341   2.375   4.154   8.742  0.5726 -0.3484  2.3341
   18SAPC  C215 2342   2.463   4.055   8.575  0.0477 -1.1889 -0.6974
   18SAPC  H15R 2343   2.363   4.059   8.528  0.4733 -1.3830 -1.6193
   18SAPC  C216 2344   2.580   4.002   8.493  0.3457 -0.3715 -0.7139
   18SAPC  H16R 2345   2.572   3.891   8.499  0.4101 -0.3010  2.9627
   18SAPC  H16S 2346   2.670   4.026   8.553 -0.6432  1.4745  0.1305
   18SAPC  C217 2347   2.617   4.073   8.363  0.8888 -0.0831  0.3324
   18SAPC  H17R 2348   2.524   4.074   8.302 -0.0590 -1.4307  1.6976
   18SAPC  H17S 2349   2.687   4.019   8.295 -0.1313 -0.6504 -0.2905
   18SAPC  C218 2350   2.662   4.219   8.382 -0.2809 -0.5101  0.0029
   18SAPC  H18R 2351   2.758   4.225   8.438 -0.3724  2.2290  0.0141
   18SAPC  H18S 2352   2.592   4.272   8.450  0.1321  0.5019 -0.3388
   18SAPC  C219 2353   2.649   4.308   8.264 -0.3305 -0.4618  0.7781
   18SAPC  H19R 2354   2.664   4.415   8.286  2.5283 -0.9091  1.3869
   18SAPC  H19S 2355   2.549   4.291   8.219  0.8271 -2.4341 -1.2999
   18SAPC  C220 2356   2.755   4.282   8.155 -0.5671 -0.1689  0.1352
   18SAPC  H20R 2357   2.738   4.176   8.126  0.4858 -0.3304  0.0718
   18SAPC  H20S 2358   2.858   4.289   8.198 -1.2566 -0.5380  1.9402
   18SAPC  H20T 2359   2.729   4.347   8.069 -1.2701 -0.3402  0.2143
   18SAPC   C33 2360   3.365   3.879  10.108  0.3790  0.1175  0.2657
   18SAPC   H3X 2361   3.470   3.891  10.143  0.7756 -1.7585 -0.1563
   18SAPC   H3Y 2362   3.317   3.979  10.113 -1.0146 -0.4052 -1.5548
   18SAPC   C34 2363   3.349   3.819   9.961  0.0664  0.3472  0.1823
   18SAPC   H4X 2364   3.243   3.792   9.939 -0.0827  0.5793  0.5860
   18SAPC   H4Y 2365   3.409   3.726   9.959  1.2361  1.0624  0.8701
   18SAPC   C35 2366   3.404   3.905   9.838  0.0251 -0.4655 -0.4687
   18SAPC   H5X 2367   3.514   3.917   9.845 -0.2567  1.9508  0.9890
   18SAPC   H5Y 2368   3.368   4.005   9.871  1.4026 -0.0650 -0.0797
   18SAPC   C36 2369   3.353   3.853   9.703  0.2311  0.1485  0.2036
   18SAPC   H6X 2370   3.242   3.860   9.706  0.1849 -0.5466  0.1404
   18SAPC   H6Y 2371   3.373   3.744   9.702 -2.1839 -0.3714 -1.1112
   18SAPC   C37 2372   3.407   3.923   9.577  0.5341 -0.3533 -0.2732
   18SAPC   H7X 2373   3.518   3.914   9.576  0.3892 -2.5628 -1.5460
   18SAPC   H7Y 2374   3.368   4.027   9.574  1.9337  0.1689 -0.7769
   18SAPC   C38 2375   3.367   3.844   9.458  0.1361 -0.0481  1.0248
   18SAPC   H8X 2376   3.258   3.830   9.444  0.5064 -1.6027 -0.7479
   18SAPC   H8Y 2377   3.410   3.741   9.460  2.1283  0.7534  2.3286
   18SAPC   C39 2378   3.420   3.904   9.325 -0.0354  0.0794 -0.7555
   18SAPC   H9X 2379   3.529   3.919   9.345 -0.2789  0.2445  0.5011
   18SAPC   H9Y 2380   3.381   4.004   9.297  0.8209  0.9298  0.9268
   18SAPC  C310 2381   3.398   3.812   9.209 -0.8865  0.3694  0.3353
   18SAPC  H10X 2382   3.291   3.787   9.193 -0.2032 -1.7482 -1.4178
   18SAPC  H10Y 2383   3.455   3.718   9.225 -1.1230  0.0837 -0.4602
   18SAPC  C311 2384   3.444   3.878   9.071 -0.9410 -0.3763  0.3418
   18SAPC  H11X 2385   3.401   3.979   9.059 -2.4172 -1.1179 -0.9572
   18SAPC  H11Y 2386   3.393   3.825   8.988 -0.5283  1.4850 -1.1452
   18SAPC  C312 2387   3.598   3.869   9.060  0.3083  0.5561 -0.0097
   18SAPC  H12X 2388   3.627   3.765   9.034 -0.0144  0.4055  0.2353
   18SAPC  H12Y 2389   3.641   3.894   9.160 -0.6695  1.8957  0.0964
   18SAPC  C313 2390   3.661   3.972   8.962 -1.0185  0.2923  0.7570
   18SAPC  H13X 2391   3.771   3.979   8.975 -0.8690 -0.1114 -0.2138
   18SAPC  H13Y 2392   3.610   4.068   8.985 -1.1240  0.3070  0.4738
   18SAPC  C314 2393   3.637   3.945   8.818  0.5821  0.0478 -0.1137
   18SAPC  H14X 2394   3.529   3.923   8.818  0.4132  0.5402 -2.6893
   18SAPC  H14Y 2395   3.685   3.857   8.771 -0.0391 -0.5509  0.3709
   18SAPC  C315 2396   3.664   4.070   8.729 -0.4973  0.4109 -0.0197
   18SAPC  H15X 2397   3.774   4.086   8.730 -0.3844 -0.3238 -0.2354
   18SAPC  H15Y 2398   3.616   4.158   8.777 -2.9737 -0.7819 -0.1084
   18SAPC  C316 2399   3.630   4.063   8.584  0.7477  0.5937 -0.4275
   18SAPC  H16X 2400   3.682   3.983   8.527 -1.2066 -1.7118  0.8094
   18SAPC  H16Y 2401   3.655   4.163   8.542  1.0453  1.4055  1.5940
   18SAPC  C317 2402   3.483   4.045   8.555 -0.2639  0.2920 -0.2880
   18SAPC  H17X 2403   3.449   4.099   8.463 -1.8608  0.0854  0.1478
   18SAPC  H17Y 2404   3.420   4.094   8.632 -2.5671  0.6671 -2.2609
   18SAPC  C318 2405   3.452   3.894   8.541 -0.2448 -0.0777  0.1335
   18SAPC  H18X 2406   3.445   3.839   8.637 -1.3725  1.7933  1.1799
   18SAPC  H18Y 2407   3.531   3.849   8.477  2.0547  1.0534  2.0358
   18SAPC  H18Z 2408   3.356   3.886   8.486  1.3130 -2.6917 -2.5054
   19SAPC     N 2409   3.625   6.749  10.669 -0.6134  0.1992  0.9282
   19SAPC   C12 2410   3.753   6.701  10.736  1.0269  0.1853  0.1493
   19SAPC  H12A 2411   3.805   6.636  10.667  2.5739 -0.6801  2.0563
   19SAPC  H12B 2412   3.715   6.642  10.818 -0.6946 -0.0576 -0.7683
   19SAPC   C13 2413   3.663   6.807  10.530 -0.8994  0.5215  0.1971
   19SAPC  H13A 2414   3.751   6.869  10.528 -0.1276 -0.5072  0.9547
   19SAPC  H13B 2415   3.680   6.737  10.449  1.3062  0.9680  0.2085
   19SAPC  H13C 2416   3.592   6.886  10.509 -1.2663  0.4122  0.9763
   19SAPC   C14 2417   3.529   6.641  10.652 -0.2787 -0.1975 -0.4409
   19SAPC  H14A 2418   3.562   6.583  10.567  1.4929 -2.1339  1.4230
   19SAPC  H14B 2419   3.517   6.572  10.734  2.6706 -1.5479 -0.9782
   19SAPC  H14C 2420   3.433   6.680  10.622 -1.1839 -1.1775  1.0394
   19SAPC   C15 2421   3.554   6.859  10.749  0.2541  0.0174  0.1476
   19SAPC  H15A 2422   3.460   6.896  10.711  1.2326  1.5118 -0.9460
   19SAPC  H15B 2423   3.535   6.817  10.846 -0.2034 -0.4807 -0.1558
   19SAPC  H15C 2424   3.617   6.947  10.758  0.5138 -0.1214 -0.2599
   19SAPC   C11 2425   3.851   6.800  10.789 -0.2853 -0.3216 -0.2937
   19SAPC  H11A 2426   3.938   6.757  10.843  0.5250  0.5468 -0.8813
   19SAPC  H11B 2427   3.789   6.849  10.867 -0.8889 -2.6053  0.7444
   19SAPC     P 2428   4.001   6.864  10.592 -0.1905  0.4217 -0.3355
   19SAPC   O13 2429   4.121   6.952  10.609 -0.0504 -0.1580 -0.3320
   19SAPC   O14 2430   4.034   6.718  10.595 -0.9765  0.6510  0.1275
   19SAPC   O12 2431   3.889   6.900  10.692  0.4246 -0.4980 -0.4550
   19SAPC   O11 2432   3.932   6.892  10.462  0.1288 -0.5019  0.7199
   19SAPC    C1 2433   3.921   7.020  10.404 -1.1375 -0.7449 -1.1276
   19SAPC    HA 2434   3.839   7.070  10.460 -0.2486 -1.9633  1.4356
   19SAPC    HB 2435   4.016   7.073  10.428 -0.8902 -0.7882 -1.9736
   19SAPC    C2 2436   3.903   7.012  10.251 -1.0457 -0.6179 -0.3983
   19SAPC    HS 2437   3.962   7.091  10.201 -2.1746 -0.3513 -1.3459
   19SAPC   O21 2438   3.767   7.025  10.219 -0.5750 -1.0767 -1.0214
   19SAPC   C21 2439   3.718   7.149  10.239  0.3728 -0.1657  0.6300
   19SAPC   O22 2440   3.769   7.240  10.296 -0.1016  0.1633 -0.2320
   19SAPC   C22 2441   3.574   7.153  10.190 -0.3211 -0.2127  0.0477
   19SAPC   H2R 2442   3.561   7.095  10.096  0.3981  0.8953 -0.7590
   19SAPC   H2S 2443   3.511   7.096  10.263  0.0025 -0.1568  0.3743
   19SAPC    C3 2444   3.971   6.879  10.198 -0.3559 -0.9683  0.2526
   19SAPC    HX 2445   3.915   6.786  10.223 -0.0982 -1.0212  0.6447
   19SAPC    HY 2446   4.071   6.849  10.236 -0.8373 -4.1482 -0.6590
   19SAPC   O31 2447   3.983   6.900  10.051  0.2370 -0.3088  0.3208
   19SAPC   C31 2448   4.007   6.792   9.982 -0.2923 -0.3761 -0.3537
   19SAPC   O32 2449   4.021   6.678  10.025 -0.8240  0.0091 -0.4524
   19SAPC   C32 2450   4.033   6.840   9.836 -0.1110  0.0323 -1.1533
   19SAPC   H2X 2451   4.125   6.902   9.837  0.9397 -1.4614 -1.7206
   19SAPC   H2Y 2452   3.960   6.908   9.788  2.5229  1.8765 -2.8061
   19SAPC   C23 2453   3.523   7.295  10.178 -0.0884 -0.0705 -0.0709
   19SAPC   H3R 2454   3.597   7.346  10.113  0.1409 -1.0734 -0.6174
   19SAPC   H3S 2455   3.515   7.359  10.269 -1.8577 -1.3035  0.6920
   19SAPC   C24 2456   3.395   7.313  10.095  0.0846 -0.5587 -1.2126
   19SAPC   H4R 2457   3.414   7.268   9.995  1.5468  0.2881 -1.3414
   19SAPC   H4S 2458   3.378   7.420  10.074  0.7327 -0.0075  0.8130
   19SAPC   C25 2459   3.274   7.251  10.160  1.1684 -0.2359 -0.5112
   19SAPC   H5R 2460   3.275   7.210  10.262 -0.6841  0.4665 -0.1586
   19SAPC   C26 2461   3.156   7.250  10.101 -0.0039  0.1309  0.2775
   19SAPC   H6R 2462   3.071   7.203  10.153 -0.5888 -0.0149 -0.7860
   19SAPC   C27 2463   3.124   7.308   9.965 -0.1431  0.3500 -0.2467
   19SAPC   H7R 2464   3.082   7.226   9.904 -2.7718  0.6564  0.9796
   19SAPC   H7S 2465   3.214   7.345   9.913  2.1369  0.2380  3.2833
   19SAPC   C28 2466   3.032   7.427   9.972  0.2686 -0.3455 -0.5724
   19SAPC   H8R 2467   3.051   7.485  10.063  0.3708 -1.9615  0.4747
   19SAPC   C29 2468   2.933   7.470   9.889  0.4874 -0.2960 -0.3112
   19SAPC   H9R 2469   2.878   7.563   9.905  0.6945 -0.1861 -0.2302
   19SAPC  C210 2470   2.900   7.399   9.762  0.5231  0.0481  0.5212
   19SAPC  H10R 2471   2.795   7.361   9.767  0.7079 -0.4587  0.5483
   19SAPC  H10S 2472   2.961   7.308   9.741 -0.4535 -0.6664  0.6837
   19SAPC  C211 2473   2.899   7.482   9.640 -0.0246  0.0317  0.7265
   19SAPC  H11R 2474   2.805   7.538   9.638 -0.9775 -1.5215 -0.3138
   19SAPC  C212 2475   2.996   7.500   9.544 -0.3369 -0.1692 -0.3154
   19SAPC  H12R 2476   2.980   7.585   9.476 -1.6418 -0.7874 -0.8262
   19SAPC  C213 2477   3.137   7.440   9.539 -0.9025 -0.2696  0.1605
   19SAPC  H13R 2478   3.119   7.341   9.491  1.1854 -0.6171  0.0056
   19SAPC  H13S 2479   3.179   7.424   9.640 -1.0218  0.8259  0.3971
   19SAPC  C214 2480   3.227   7.522   9.443  0.4837  0.6567  0.6041
   19SAPC  H14R 2481   3.193   7.547   9.342  0.3815  0.4973  0.5999
   19SAPC  C215 2482   3.348   7.568   9.469 -0.5812 -0.3080  0.2707
   19SAPC  H15R 2483   3.396   7.634   9.395 -1.4299  0.0736  0.0521
   19SAPC  C216 2484   3.424   7.553   9.597  0.2153 -0.3190 -0.2460
   19SAPC  H16R 2485   3.531   7.580   9.579  0.0444  0.1115 -0.6531
   19SAPC  H16S 2486   3.422   7.452   9.642 -0.3380 -0.6246 -0.9408
   19SAPC  C217 2487   3.361   7.643   9.716 -0.1874 -0.3496 -0.3062
   19SAPC  H17R 2488   3.253   7.623   9.734 -0.3532  1.7561  1.3759
   19SAPC  H17S 2489   3.365   7.746   9.676  1.7558 -0.3243 -0.1076
   19SAPC  C218 2490   3.449   7.625   9.839 -0.2880 -0.1219 -0.1399
   19SAPC  H18R 2491   3.552   7.663   9.821 -0.0491 -1.2106 -1.1750
   19SAPC  H18S 2492   3.453   7.515   9.853 -0.9803  0.0625  1.7142
   19SAPC  C219 2493   3.382   7.684   9.966 -0.2996  0.6291 -0.1191
   19SAPC  H19R 2494   3.283   7.636   9.983  0.6525 -0.8235  1.7841
   19SAPC  H19S 2495   3.366   7.790   9.936  0.3704  0.1368 -2.3145
   19SAPC  C220 2496   3.464   7.695  10.102 -0.4224  0.3400 -0.2420
   19SAPC  H20R 2497   3.404   7.759  10.170 -1.2770  1.0422 -1.6124
   19SAPC  H20S 2498   3.560   7.750  10.088 -1.1249  1.2462 -1.7387
   19SAPC  H20T 2499   3.480   7.594  10.147  1.9222 -0.7072 -3.0636
   19SAPC   C33 2500   4.059   6.715   9.758  0.6774 -0.9398  0.3529
   19SAPC   H3X 2501   3.965   6.656   9.766 -0.8213  1.4253  1.3266
   19SAPC   H3Y 2502   4.138   6.653   9.805  0.8813  0.7946  2.4517
   19SAPC   C34 2503   4.106   6.754   9.622  0.3732 -0.3687  0.2029
   19SAPC   H4X 2504   4.202   6.809   9.633  0.7577 -1.1509  0.9059
   19SAPC   H4Y 2505   4.039   6.830   9.577  0.5681 -0.0240  0.4896
   19SAPC   C35 2506   4.130   6.639   9.523  1.0798 -0.8037  0.8399
   19SAPC   H5X 2507   4.041   6.574   9.509  1.3851 -1.1946  0.6577
   19SAPC   H5Y 2508   4.215   6.578   9.561  0.3205 -2.6786 -0.3249
   19SAPC   C36 2509   4.157   6.690   9.380 -0.7641  0.1839  0.3086
   19SAPC   H6X 2510   4.262   6.725   9.374 -0.3207 -0.3603  3.3927
   19SAPC   H6Y 2511   4.100   6.783   9.357  0.9733  0.9629 -1.1022
   19SAPC   C37 2512   4.122   6.581   9.268  0.1234 -0.7923  0.7155
   19SAPC   H7X 2513   4.012   6.566   9.258  0.1924 -0.1452 -1.3287
   19SAPC   H7Y 2514   4.176   6.487   9.288  0.5340 -1.3505 -2.5092
   19SAPC   C38 2515   4.174   6.639   9.131  0.0597 -0.0011 -0.0293
   19SAPC   H8X 2516   4.278   6.678   9.137 -0.5390  1.4744  1.7358
   19SAPC   H8Y 2517   4.111   6.728   9.106  0.4268 -0.3216 -2.2764
   19SAPC   C39 2518   4.141   6.536   9.023 -0.1325 -0.4055  0.7324
   19SAPC   H9X 2519   4.032   6.516   9.028 -1.0428  3.7736  1.0177
   19SAPC   H9Y 2520   4.211   6.452   9.041  1.4350  0.8065  0.4824
   19SAPC  C310 2521   4.178   6.604   8.889  0.0944  0.1646 -0.3237
   19SAPC  H10X 2522   4.285   6.630   8.902 -0.2840  0.9285  1.6205
   19SAPC  H10Y 2523   4.121   6.697   8.870 -1.9365 -0.7045  1.0522
   19SAPC  C311 2524   4.154   6.514   8.766  0.2267  0.9072 -0.3840
   19SAPC  H11X 2525   4.055   6.463   8.765 -0.3229  1.9023  0.6688
   19SAPC  H11Y 2526   4.227   6.430   8.769 -1.0307 -0.2436 -0.5851
   19SAPC  C312 2527   4.186   6.600   8.642  1.2890  0.0675 -0.2590
   19SAPC  H12X 2528   4.141   6.701   8.650  0.1789 -0.4059 -0.4399
   19SAPC  H12Y 2529   4.136   6.542   8.562  0.7972  0.7034 -0.4171
   19SAPC  C313 2530   4.335   6.625   8.617  0.0073  0.8156 -0.3118
   19SAPC  H13X 2531   4.388   6.565   8.695 -1.8977 -0.1469  0.3016
   19SAPC  H13Y 2532   4.368   6.725   8.653 -0.6591  1.0820 -0.4239
   19SAPC  C314 2533   4.378   6.587   8.473  0.0898 -0.2674 -0.9354
   19SAPC  H14X 2534   4.360   6.480   8.454  1.3687 -0.7139  0.1949
   19SAPC  H14Y 2535   4.489   6.579   8.474 -0.0216 -1.9743 -0.7415
   19SAPC  C315 2536   4.342   6.686   8.362  0.5443 -0.4341 -1.0048
   19SAPC  H15X 2537   4.397   6.781   8.377  0.8307 -0.5851 -1.0824
   19SAPC  H15Y 2538   4.234   6.704   8.376  0.9251  1.9884 -0.7146
   19SAPC  C316 2539   4.364   6.629   8.223 -0.9045 -0.7510  0.0449
   19SAPC  H16X 2540   4.309   6.532   8.214  0.3672 -1.4813 -0.0519
   19SAPC  H16Y 2541   4.471   6.601   8.211 -0.8296  0.3457 -2.3177
   19SAPC  C317 2542   4.328   6.731   8.120 -0.0019 -0.1801  0.5590
   19SAPC  H17X 2543   4.386   6.824   8.132 -2.3342  1.5133 -0.3743
   19SAPC  H17Y 2544   4.224   6.771   8.125 -0.1624 -0.2753 -1.3806
   19SAPC  C318 2545   4.341   6.683   7.964  0.3586  0.4889 -0.5978
   19SAPC  H18X 2546   4.303   6.765   7.899 -0.6206  0.4654 -0.0752
   19SAPC  H18Y 2547   4.281   6.601   7.920  1.0950 -0.2533 -0.2308
   19SAPC  H18Z 2548   4.447   6.683   7.931  0.5349 -0.5590 -0.0819
   20SAPC     N 2549   0.507   2.987  10.847 -0.7547 -0.0341  0.4511
   20SAPC   C12 2550   0.447   2.918  10.734  0.1098 -0.0563 -0.1648
   20SAPC  H12A 2551   0.487   2.961  10.643  1.1486  1.0880  0.7977
   20SAPC  H12B 2552   0.342   2.944  10.737  0.1567  0.0304  1.0954
   20SAPC   C13 2553   0.469   2.913  10.981 -0.2986  0.5202  0.3478
   20SAPC  H13A 2554   0.364   2.893  10.997  0.2061 -1.0176  2.1130
   20SAPC  H13B 2555   0.520   2.818  10.982 -1.3553 -0.0605  1.1342
   20SAPC  H13C 2556   0.508   2.979  11.057 -2.9362  0.5905  1.7892
   20SAPC   C14 2557   0.658   2.982  10.834  0.1240  0.1637  0.5804
   20SAPC  H14A 2558   0.686   2.878  10.839 -1.9026 -0.4842 -0.3432
   20SAPC  H14B 2559   0.686   3.030  10.741 -2.4941  2.3346  0.7886
   20SAPC  H14C 2560   0.700   3.041  10.914  1.4627  2.1031 -1.4473
   20SAPC   C15 2561   0.444   3.122  10.839 -0.6337 -0.1581  0.0718
   20SAPC  H15A 2562   0.479   3.180  10.923 -0.9371 -0.8263  0.6704
   20SAPC  H15B 2563   0.471   3.158  10.741  0.1669 -0.9533 -0.0083
   20SAPC  H15C 2564   0.338   3.115  10.858 -0.2688 -0.8623  2.1343
   20SAPC   C11 2565   0.458   2.764  10.724 -0.2566 -0.8703  0.2568
   20SAPC  H11A 2566   0.420   2.739  10.622 -0.8774 -0.2469  0.3335
   20SAPC  H11B 2567   0.396   2.717  10.803  2.2522 -1.0050  2.2819
   20SAPC     P 2568   0.689   2.700  10.627  0.0205 -0.0645  0.0027
   20SAPC   O13 2569   0.651   2.797  10.521  0.0853 -0.9577  0.4531
   20SAPC   O14 2570   0.821   2.712  10.678 -0.3319 -0.2229  0.2970
   20SAPC   O12 2571   0.592   2.718  10.753  0.0023 -0.1901 -0.1030
   20SAPC   O11 2572   0.654   2.545  10.580 -0.0470 -0.8737 -0.6070
   20SAPC    C1 2573   0.775   2.475  10.548  0.8230  0.4289  0.1471
   20SAPC    HA 2574   0.850   2.490  10.629  0.5404  1.2120  0.2746
   20SAPC    HB 2575   0.744   2.369  10.558  0.3050  0.3420 -1.8989
   20SAPC    C2 2576   0.836   2.501  10.404  0.1294 -0.2980 -0.1881
   20SAPC    HS 2577   0.779   2.582  10.353  2.5824  1.3294 -0.4951
   20SAPC   O21 2578   0.824   2.381  10.334 -0.1200  0.2955 -0.0544
   20SAPC   C21 2579   0.719   2.363  10.251  0.6273 -0.2668  0.5500
   20SAPC   O22 2580   0.629   2.447  10.243  0.2434 -0.8560 -0.6066
   20SAPC   C22 2581   0.716   2.218  10.204  0.6811  0.6859 -0.2125
   20SAPC   H2R 2582   0.824   2.189  10.199  0.2956 -1.4610  1.9930
   20SAPC   H2S 2583   0.665   2.154  10.279  2.9103  1.6820  2.3185
   20SAPC    C3 2584   0.979   2.551  10.430 -0.0349  1.2508 -0.2068
   20SAPC    HX 2585   1.040   2.464  10.463 -1.3388  1.2879  2.5532
   20SAPC    HY 2586   0.975   2.631  10.506 -1.2916  1.0569 -0.0549
   20SAPC   O31 2587   1.027   2.604  10.301  0.0015  0.0131  0.0026
   20SAPC   C31 2588   1.012   2.730  10.273 -0.2192  0.0740 -0.0904
   20SAPC   O32 2589   0.957   2.816  10.340 -0.0439 -0.4782 -0.1900
   20SAPC   C32 2590   1.090   2.759  10.148  0.4935  0.0649  0.4601
   20SAPC   H2X 2591   1.195   2.723  10.161  1.0115  1.6375  0.8894
   20SAPC   H2Y 2592   1.098   2.869  10.145  0.4612  0.1780  2.5391
   20SAPC   C23 2593   0.643   2.203  10.065  1.0391 -0.0803 -0.4930
   20SAPC   H3R 2594   0.688   2.265   9.985 -0.1710 -0.2480 -1.3302
   20SAPC   H3S 2595   0.536   2.228  10.082  1.1481 -0.3944  0.8146
   20SAPC   C24 2596   0.668   2.064  10.003 -0.3884  0.1642  0.5619
   20SAPC   H4R 2597   0.592   2.039   9.926  0.3359 -3.0832  0.7773
   20SAPC   H4S 2598   0.631   1.986  10.073 -2.3888 -0.3313 -0.9598
   20SAPC   C25 2599   0.809   2.029   9.969 -0.7065 -0.2295  0.3751
   20SAPC   H5R 2600   0.875   2.014  10.057  1.0799  1.8113 -0.5276
   20SAPC   C26 2601   0.855   2.017   9.841 -0.2084 -0.5389  0.2938
   20SAPC   H6R 2602   0.960   1.989   9.822  0.7161  1.5954  1.8775
   20SAPC   C27 2603   0.773   2.044   9.716 -0.1112 -0.4697 -0.0105
   20SAPC   H7R 2604   0.677   2.085   9.752  1.7021  3.3701  1.0482
   20SAPC   H7S 2605   0.778   1.947   9.662  0.4997 -0.7246  0.4808
   20SAPC   C28 2606   0.830   2.166   9.642  0.4145 -0.1260  0.2876
   20SAPC   H8R 2607   0.843   2.259   9.700  0.7156  0.2169 -0.3179
   20SAPC   C29 2608   0.858   2.164   9.509 -0.1411 -0.1180 -0.0217
   20SAPC   H9R 2609   0.917   2.247   9.467  1.0370  0.0749  1.9185
   20SAPC  C210 2610   0.839   2.050   9.411  0.0647  0.0315 -0.7742
   20SAPC  H10R 2611   0.822   1.952   9.463 -1.5889  1.5886  1.8750
   20SAPC  H10S 2612   0.933   2.038   9.353  2.0220 -0.0377  2.1782
   20SAPC  C211 2613   0.713   2.086   9.332  0.5404 -0.3574 -1.3300
   20SAPC  H11R 2614   0.621   2.102   9.390  1.7655 -0.1283  0.6288
   20SAPC  C212 2615   0.708   2.115   9.202 -1.2252  0.0392 -0.3038
   20SAPC  H12R 2616   0.612   2.146   9.158 -0.6305 -1.1905 -2.6436
   20SAPC  C213 2617   0.824   2.117   9.104 -0.1474  0.0194 -0.0139
   20SAPC  H13R 2618   0.852   2.010   9.091  0.9449 -0.0342  2.2485
   20SAPC  H13S 2619   0.915   2.156   9.155 -1.3859  0.9691  1.5608
   20SAPC  C214 2620   0.811   2.199   8.981  0.1001 -0.2725  0.3332
   20SAPC  H14R 2621   0.845   2.302   8.993  1.0827 -0.4794 -0.5411
   20SAPC  C215 2622   0.759   2.157   8.863  0.3166  0.1773  0.7248
   20SAPC  H15R 2623   0.746   2.229   8.781  1.4940  0.0344  0.3869
   20SAPC  C216 2624   0.706   2.025   8.838 -0.4504 -0.2334 -0.3701
   20SAPC  H16R 2625   0.601   2.038   8.802 -0.5372  0.5593  0.1636
   20SAPC  H16S 2626   0.685   1.970   8.932 -0.5147 -1.4130 -1.0525
   20SAPC  C217 2627   0.779   1.926   8.739  0.2245 -0.0866  0.0151
   20SAPC  H17R 2628   0.882   1.910   8.778  1.1177 -0.5832 -2.3969
   20SAPC  H17S 2629   0.792   1.955   8.633  1.6624 -0.3815  0.0884
   20SAPC  C218 2630   0.700   1.792   8.725  0.2119 -0.2847 -0.5077
   20SAPC  H18R 2631   0.672   1.767   8.829  0.6974  2.7788  0.4626
   20SAPC  H18S 2632   0.761   1.710   8.682 -1.5578 -1.2146 -1.3521
   20SAPC  C219 2633   0.562   1.797   8.651 -0.0679  0.6134 -0.2541
   20SAPC  H19R 2634   0.486   1.841   8.719  0.6333 -0.5963  1.3795
   20SAPC  H19S 2635   0.524   1.693   8.650 -1.3441  1.0633 -0.0542
   20SAPC  C220 2636   0.567   1.842   8.513 -0.4161  0.8639  0.4853
   20SAPC  H20R 2637   0.472   1.839   8.455 -1.4120 -3.0601  1.9706
   20SAPC  H20S 2638   0.634   1.768   8.464  0.8984  1.7566  0.9032
   20SAPC  H20T 2639   0.608   1.945   8.504 -3.3751  2.0868 -0.1736
   20SAPC   C33 2640   1.019   2.705  10.018 -0.2367 -0.4026 -0.0475
   20SAPC   H3X 2641   1.049   2.767   9.931  0.1919  1.0270  1.0936
   20SAPC   H3Y 2642   0.908   2.713  10.021 -0.2296 -0.6112  1.4607
   20SAPC   C34 2643   1.056   2.559   9.995  0.1603 -0.6258 -0.2176
   20SAPC   H4X 2644   1.009   2.500  10.076  0.3394  0.0915  0.4170
   20SAPC   H4Y 2645   1.167   2.552   9.996  0.1099 -2.1047 -1.4862
   20SAPC   C35 2646   1.005   2.483   9.872 -0.6227  0.3127 -0.1170
   20SAPC   H5X 2647   0.897   2.458   9.880 -0.5928 -0.0140 -0.6696
   20SAPC   H5Y 2648   1.051   2.382   9.875  2.1070  1.4817  1.1409
   20SAPC   C36 2649   1.023   2.569   9.745 -0.2487  0.5263  0.4022
   20SAPC   H6X 2650   1.130   2.599   9.738 -0.5052  2.0890  2.3524
   20SAPC   H6Y 2651   0.965   2.663   9.761 -0.8555  0.0827  0.8507
   20SAPC   C37 2652   0.967   2.507   9.621 -0.5160  0.4463 -0.1910
   20SAPC   H7X 2653   0.866   2.466   9.642 -0.5136  0.3575 -0.3532
   20SAPC   H7Y 2654   1.030   2.418   9.600 -0.6573  0.2813  0.0787
   20SAPC   C38 2655   0.962   2.606   9.508 -0.0241 -0.6788 -0.3241
   20SAPC   H8X 2656   1.063   2.650   9.495 -0.4825  1.4832  2.6387
   20SAPC   H8Y 2657   0.908   2.699   9.534  0.3086 -0.5263 -0.1806
   20SAPC   C39 2658   0.901   2.564   9.372 -0.3141  0.3953 -0.1715
   20SAPC   H9X 2659   0.798   2.524   9.384  0.1421 -0.9322 -0.5223
   20SAPC   H9Y 2660   0.951   2.471   9.338 -0.4038  0.5708 -0.7954
   20SAPC  C310 2661   0.901   2.676   9.261  0.0283 -0.2761 -0.1434
   20SAPC  H10X 2662   1.009   2.696   9.244  0.5747 -0.9574  2.1496
   20SAPC  H10Y 2663   0.865   2.773   9.301 -2.0910 -0.5752 -1.1936
   20SAPC  C311 2664   0.849   2.631   9.133 -0.6715 -0.1439 -0.1478
   20SAPC  H11X 2665   0.741   2.615   9.155 -0.8614  1.9246  0.6020
   20SAPC  H11Y 2666   0.904   2.539   9.102  0.3393 -0.5987  2.6996
   20SAPC  C312 2667   0.859   2.736   9.022  0.2936 -0.6798  0.3542
   20SAPC  H12X 2668   0.782   2.705   8.949 -1.6993 -0.4607  2.2485
   20SAPC  H12Y 2669   0.956   2.746   8.970  0.9875  0.8049  1.8521
   20SAPC  C313 2670   0.817   2.877   9.064  0.6344  0.5732 -0.0090
   20SAPC  H13X 2671   0.901   2.918   9.123  0.2105  2.7038 -0.7843
   20SAPC  H13Y 2672   0.729   2.867   9.131  1.8044  0.7014  1.6125
   20SAPC  C314 2673   0.762   2.979   8.957 -0.5259  0.0890  0.0543
   20SAPC  H14X 2674   0.715   3.069   9.002  0.5275  0.8837 -0.3918
   20SAPC  H14Y 2675   0.680   2.928   8.901 -0.6225  0.1665  0.1252
   20SAPC  C315 2676   0.873   3.017   8.859 -0.4315  0.2616 -0.0948
   20SAPC  H15X 2677   0.885   2.928   8.793 -0.3025 -1.5270  2.2096
   20SAPC  H15Y 2678   0.959   3.025   8.929 -1.2488  0.1823  0.9248
   20SAPC  C316 2679   0.851   3.134   8.777  0.2029 -0.1811  0.2317
   20SAPC  H16X 2680   0.794   3.213   8.831 -0.2070  0.7384 -1.4664
   20SAPC  H16Y 2681   0.789   3.097   8.692  1.2073 -1.6112  0.0934
   20SAPC  C317 2682   0.968   3.198   8.720 -0.4083 -0.1929  0.3993
   20SAPC  H17X 2683   1.027   3.128   8.657  1.7081  0.8860  1.0983
   20SAPC  H17Y 2684   1.027   3.223   8.811 -0.1356 -1.1487  0.4890
   20SAPC  C318 2685   0.934   3.324   8.639 -0.0754  0.6740 -0.5200
   20SAPC  H18X 2686   1.029   3.371   8.605  0.6286 -0.4919 -0.2420
   20SAPC  H18Y 2687   0.879   3.398   8.701 -0.4267 -0.0966  0.1044
   20SAPC  H18Z 2688   0.871   3.304   8.550 -2.5912  0.5615  1.1953
   21SAPC     N 2689   2.843   3.536  10.841 -0.0900 -0.0164 -0.2019
   21SAPC   C12 2690   2.734   3.491  10.748  0.7958  0.0430 -0.3082
   21SAPC  H12A 2691   2.724   3.561  10.666  1.0068  1.0567  0.5079
   21SAPC  H12B 2692   2.641   3.503  10.803  0.6675 -1.4165 -0.1798
   21SAPC   C13 2693   2.829   3.686  10.872  0.0167  0.3287  0.1890
   21SAPC  H13A 2694   2.908   3.725  10.934  0.9581  0.3883 -1.0153
   21SAPC  H13B 2695   2.831   3.725  10.771  0.0393 -1.0617 -0.3702
   21SAPC  H13C 2696   2.739   3.710  10.926 -0.6386 -1.3228 -0.1092
   21SAPC   C14 2697   2.834   3.457  10.969  0.2089  0.5198 -0.3472
   21SAPC  H14A 2698   2.912   3.485  11.039  1.6215 -2.3788 -0.5970
   21SAPC  H14B 2699   2.737   3.479  11.012 -0.4205 -1.1176 -0.8597
   21SAPC  H14C 2700   2.831   3.352  10.942  1.3457  0.0411  1.2472
   21SAPC   C15 2701   2.976   3.512  10.778 -0.8029 -1.0471  0.1226
   21SAPC  H15A 2702   3.052   3.539  10.850 -0.8658  2.0065 -0.7901
   21SAPC  H15B 2703   2.986   3.416  10.730  2.4267  0.5201 -2.7615
   21SAPC  H15C 2704   3.001   3.578  10.697  1.2700 -0.1412  1.4045
   21SAPC   C11 2705   2.717   3.346  10.692 -0.1640  0.2364  0.4244
   21SAPC  H11A 2706   2.822   3.313  10.680 -0.9249 -2.3522  0.2450
   21SAPC  H11B 2707   2.674   3.350  10.589  1.4813  0.8139 -0.2725
   21SAPC     P 2708   2.490   3.272  10.786  0.3923  0.3286 -0.2843
   21SAPC   O13 2709   2.441   3.182  10.892  0.3142  0.5393 -0.0563
   21SAPC   O14 2710   2.456   3.412  10.798  0.0895 -0.3777  0.4146
   21SAPC   O12 2711   2.645   3.265  10.786 -0.6139 -0.4023  0.3031
   21SAPC   O11 2712   2.446   3.217  10.649  0.1168 -0.0348 -0.1447
   21SAPC    C1 2713   2.364   3.288  10.556  0.2326 -0.1781  0.2954
   21SAPC    HA 2714   2.258   3.256  10.563 -0.2957  0.8234 -2.1370
   21SAPC    HB 2715   2.364   3.398  10.566 -0.9592  0.0819 -1.9585
   21SAPC    C2 2716   2.400   3.246  10.415  0.2830  0.2581  0.0805
   21SAPC    HS 2717   2.424   3.137  10.419 -0.1995  0.1100 -0.7508
   21SAPC   O21 2718   2.506   3.332  10.374  0.0695 -0.0222  0.4288
   21SAPC   C21 2719   2.586   3.269  10.287  0.2283 -0.0782 -0.4353
   21SAPC   O22 2720   2.579   3.154  10.252 -0.4917  0.1339  0.0321
   21SAPC   C22 2721   2.692   3.354  10.230 -0.6171 -0.4816  0.0131
   21SAPC   H2R 2722   2.643   3.444  10.188 -1.0782  0.2192  1.9590
   21SAPC   H2S 2723   2.769   3.390  10.302  0.5705  0.1932 -1.5396
   21SAPC    C3 2724   2.272   3.256  10.318  0.0298  0.2462  0.1913
   21SAPC    HX 2725   2.227   3.356  10.337  0.0162  0.3620 -0.4201
   21SAPC    HY 2726   2.205   3.172  10.345 -0.9299  0.7342 -0.6267
   21SAPC   O31 2727   2.302   3.258  10.180  0.1090  0.6575  0.0714
   21SAPC   C31 2728   2.317   3.145  10.116 -0.9846  0.1033  0.7691
   21SAPC   O32 2729   2.322   3.030  10.165  0.2745 -0.4215  0.2066
   21SAPC   C32 2730   2.353   3.179   9.971  0.1997  0.1678 -0.0723
   21SAPC   H2X 2731   2.406   3.276   9.974 -2.5985  1.8848 -1.5882
   21SAPC   H2Y 2732   2.253   3.182   9.922  0.6023  2.3278 -0.8348
   21SAPC   C23 2733   2.772   3.278  10.121 -0.3051  0.1782 -0.2634
   21SAPC   H3R 2734   2.710   3.214  10.054 -0.4252  0.4840 -0.4460
   21SAPC   H3S 2735   2.861   3.231  10.167  0.5943  4.1799  2.5775
   21SAPC   C24 2736   2.857   3.374  10.027  0.9317  0.2758  0.1494
   21SAPC   H4R 2737   2.929   3.313   9.968  0.9619 -1.9042  2.3011
   21SAPC   H4S 2738   2.923   3.436  10.092  0.8146 -0.3388  0.8644
   21SAPC   C25 2739   2.765   3.455   9.939  0.1282 -0.5943  0.3527
   21SAPC   H5R 2740   2.695   3.390   9.884  0.8972  0.2064 -1.6797
   21SAPC   C26 2741   2.796   3.572   9.889 -0.1942 -0.4738  0.1445
   21SAPC   H6R 2742   2.718   3.620   9.828 -0.1754 -0.8907 -0.2128
   21SAPC   C27 2743   2.923   3.661   9.909  0.4680  0.2086  0.2007
   21SAPC   H7R 2744   3.006   3.597   9.946  1.2376  1.3010  0.4303
   21SAPC   H7S 2745   2.900   3.726   9.996  0.8921 -1.6723  1.8042
   21SAPC   C28 2746   2.973   3.742   9.795 -0.4672  0.2271  0.1527
   21SAPC   H8R 2747   2.962   3.851   9.809 -0.4705 -0.0361  2.4411
   21SAPC   C29 2748   3.009   3.693   9.672  0.0550  0.1564  0.3768
   21SAPC   H9R 2749   3.063   3.766   9.610  3.4859  0.9586  3.9381
   21SAPC  C210 2750   3.004   3.547   9.629  0.3054  0.4601  0.0957
   21SAPC  H10R 2751   2.897   3.523   9.613  0.4016  0.5444 -0.6964
   21SAPC  H10S 2752   3.044   3.483   9.710 -0.1914 -0.3389 -0.2852
   21SAPC  C211 2753   3.079   3.510   9.497  0.1326 -0.2131 -0.2946
   21SAPC  H11R 2754   3.168   3.446   9.511 -0.1338 -0.4188  0.5018
   21SAPC  C212 2755   3.030   3.539   9.373  0.5740 -0.0055 -0.4515
   21SAPC  H12R 2756   3.090   3.498   9.290 -1.1990 -0.2871 -1.6446
   21SAPC  C213 2757   2.899   3.612   9.340  0.1088 -0.6976  0.6666
   21SAPC  H13R 2758   2.824   3.614   9.423 -1.8562  0.1787 -1.0574
   21SAPC  H13S 2759   2.857   3.556   9.254 -0.1134  1.4846 -0.6978
   21SAPC  C214 2760   2.936   3.753   9.291  0.3169 -0.1981  0.9561
   21SAPC  H14R 2761   2.971   3.830   9.362  1.8136  0.9472 -0.9016
   21SAPC  C215 2762   2.930   3.791   9.165 -0.7246  0.0246  0.0515
   21SAPC  H15R 2763   2.944   3.898   9.143  0.5503  0.2272  1.6963
   21SAPC  C216 2764   2.885   3.713   9.045  0.0127  0.0130  0.5479
   21SAPC  H16R 2765   2.778   3.720   9.017  0.1545  0.5359  0.1153
   21SAPC  H16S 2766   2.914   3.607   9.062  0.0694 -0.1038 -0.2519
   21SAPC  C217 2767   2.956   3.764   8.919 -0.1441  0.7041  0.7250
   21SAPC  H17R 2768   3.066   3.748   8.926 -0.4637 -1.1811  2.3654
   21SAPC  H17S 2769   2.953   3.872   8.895  1.3916  0.5633 -0.2624
   21SAPC  C218 2770   2.912   3.690   8.788 -0.2715 -0.1718 -0.6287
   21SAPC  H18R 2771   2.802   3.707   8.782 -0.5411 -1.7762 -0.6355
   21SAPC  H18S 2772   2.940   3.584   8.801  1.3232  0.3373  0.3734
   21SAPC  C219 2773   2.967   3.750   8.658 -0.1141 -0.1280  0.5348
   21SAPC  H19R 2774   2.915   3.840   8.619  2.3798  0.8530 -0.7099
   21SAPC  H19S 2775   2.935   3.675   8.583 -0.4885  1.3125 -0.7883
   21SAPC  C220 2776   3.126   3.764   8.673 -1.0432 -0.3276  0.6182
   21SAPC  H20R 2777   3.153   3.862   8.718  1.0423  0.3103 -1.7399
   21SAPC  H20S 2778   3.171   3.759   8.571 -0.2600 -2.8373  1.0312
   21SAPC  H20T 2779   3.167   3.682   8.736  1.1757  1.0260  1.0743
   21SAPC   C33 2780   2.414   3.065   9.885 -0.7684 -1.3929  0.0656
   21SAPC   H3X 2781   2.367   2.966   9.904 -2.0050 -0.9207 -0.4386
   21SAPC   H3Y 2782   2.522   3.073   9.911 -0.6479 -0.1853 -0.7291
   21SAPC   C34 2783   2.412   3.107   9.738 -0.1395 -0.3321 -0.3213
   21SAPC   H4X 2784   2.483   3.190   9.718  1.8021 -1.1713  2.4850
   21SAPC   H4Y 2785   2.314   3.145   9.703 -0.2147  2.2075  2.2329
   21SAPC   C35 2786   2.450   2.994   9.649 -0.0700  0.0035 -0.1263
   21SAPC   H5X 2787   2.380   2.909   9.658  0.1867 -0.0246  2.4150
   21SAPC   H5Y 2788   2.551   2.959   9.679 -1.1731 -2.1625  1.2514
   21SAPC   C36 2789   2.452   3.040   9.501 -0.4887 -0.2049 -0.7961
   21SAPC   H6X 2790   2.503   2.964   9.438 -0.2987 -0.7084 -0.0488
   21SAPC   H6Y 2791   2.506   3.136   9.488 -0.1748 -0.3452 -0.5346
   21SAPC   C37 2792   2.320   3.058   9.434 -0.0204  0.9211  0.2512
   21SAPC   H7X 2793   2.266   3.144   9.480  0.6066  1.3607  0.1826
   21SAPC   H7Y 2794   2.263   2.966   9.460 -0.6310  0.7820 -1.4353
   21SAPC   C38 2795   2.331   3.061   9.283  0.4521  0.6912 -0.4283
   21SAPC   H8X 2796   2.373   2.966   9.243 -0.8588 -0.8035  1.5225
   21SAPC   H8Y 2797   2.399   3.135   9.236  2.1663 -1.0982 -0.9155
   21SAPC   C39 2798   2.198   3.094   9.217  0.0409 -0.0497  0.5116
   21SAPC   H9X 2799   2.144   3.174   9.272  1.3467  3.0634 -2.3826
   21SAPC   H9Y 2800   2.132   3.005   9.209 -0.3064  0.0851  1.6431
   21SAPC  C310 2801   2.216   3.146   9.073  0.1380 -0.1990 -0.4768
   21SAPC  H10X 2802   2.253   3.062   9.011 -0.1298 -1.2401  0.7348
   21SAPC  H10Y 2803   2.295   3.224   9.068 -0.4080  0.3034 -1.6290
   21SAPC  C311 2804   2.083   3.200   9.002 -0.3978  0.2492 -0.1822
   21SAPC  H11X 2805   2.056   3.297   9.049 -0.8521  0.7922 -1.4906
   21SAPC  H11Y 2806   2.003   3.130   9.030 -0.2180  0.4564  0.8812
   21SAPC  C312 2807   2.087   3.209   8.848 -0.2766  0.4052 -0.3259
   21SAPC  H12X 2808   2.106   3.107   8.807 -1.4274  0.7579 -1.8286
   21SAPC  H12Y 2809   2.178   3.267   8.822  2.3310 -2.3569  1.8168
   21SAPC  C313 2810   1.965   3.259   8.774 -0.2138 -0.1972  0.4571
   21SAPC  H13X 2811   1.987   3.267   8.665  1.1404 -0.5479  0.6919
   21SAPC  H13Y 2812   1.954   3.359   8.821 -0.0584 -0.2082  0.5161
   21SAPC  C314 2813   1.832   3.177   8.789  0.4302 -0.3121  0.3604
   21SAPC  H14X 2814   1.805   3.164   8.896 -0.0784 -0.7370  0.1871
   21SAPC  H14Y 2815   1.849   3.076   8.747 -1.5959  0.1849 -1.9050
   21SAPC  C315 2816   1.721   3.245   8.702  0.5785 -0.2561  0.1272
   21SAPC  H15X 2817   1.739   3.250   8.593  1.7255  0.3991  0.3287
   21SAPC  H15Y 2818   1.733   3.348   8.741  1.3483  0.4941 -1.9522
   21SAPC  C316 2819   1.586   3.177   8.722  0.4298  0.4603  0.2012
   21SAPC  H16X 2820   1.543   3.192   8.822  1.4591 -0.6285  0.8407
   21SAPC  H16Y 2821   1.600   3.072   8.688  0.9264  0.3297  0.7880
   21SAPC  C317 2822   1.472   3.228   8.632 -0.2238  0.0896 -0.4663
   21SAPC  H17X 2823   1.457   3.338   8.641  2.3505  0.3443  1.9558
   21SAPC  H17Y 2824   1.376   3.175   8.647 -1.5029  1.6618 -2.5832
   21SAPC  C318 2825   1.493   3.194   8.485  0.2288  0.1857  0.3051
   21SAPC  H18X 2826   1.413   3.238   8.422  2.2136  2.0122 -1.0671
   21SAPC  H18Y 2827   1.505   3.083   8.479  0.2470  0.2577 -1.3177
   21SAPC  H18Z 2828   1.587   3.239   8.448  0.5152  0.5193  1.4066
   22SAPC     N 2829   0.413   5.088  10.698  0.0927 -0.7014  0.4546
   22SAPC   C12 2830   0.488   5.227  10.695  0.1883  0.6813 -0.5466
   22SAPC  H12A 2831   0.595   5.213  10.698  0.5737  2.7372 -2.3213
   22SAPC  H12B 2832   0.464   5.277  10.788  0.9448  1.7548 -0.9006
   22SAPC   C13 2833   0.266   5.097  10.703 -1.0158 -0.1045  0.0122
   22SAPC  H13A 2834   0.226   5.150  10.617 -3.1619 -1.1976  0.2594
   22SAPC  H13B 2835   0.222   4.999  10.701 -0.0753 -0.5190 -0.8925
   22SAPC  H13C 2836   0.229   5.151  10.790 -0.9952 -0.2056  0.0836
   22SAPC   C14 2837   0.454   5.005  10.582 -0.1735  0.3622  0.3750
   22SAPC  H14A 2838   0.561   4.988  10.578 -0.3841 -1.6344  1.5994
   22SAPC  H14B 2839   0.413   4.905  10.590  2.8069 -0.9402  0.9583
   22SAPC  H14C 2840   0.419   5.053  10.492 -0.5498 -1.0623 -0.2667
   22SAPC   C15 2841   0.456   5.013  10.817  0.0440 -0.0788 -0.6289
   22SAPC  H15A 2842   0.414   4.913  10.809  0.4442 -0.1919 -1.3625
   22SAPC  H15B 2843   0.564   5.008  10.821  0.2186  2.4384 -0.9477
   22SAPC  H15C 2844   0.412   5.051  10.908 -0.8070 -2.1784 -0.0933
   22SAPC   C11 2845   0.446   5.314  10.575 -0.1094 -0.1711  0.8359
   22SAPC  H11A 2846   0.335   5.322  10.569 -0.0646  0.0266  0.2064
   22SAPC  H11B 2847   0.494   5.274  10.483  0.5077  1.7856  0.2525
   22SAPC     P 2848   0.647   5.486  10.581  0.2464  0.1439  0.1704
   22SAPC   O13 2849   0.657   5.613  10.504  0.1006  0.1511  0.1206
   22SAPC   O14 2850   0.698   5.479  10.721  0.1622 -0.2267  0.2165
   22SAPC   O12 2851   0.494   5.451  10.593 -0.2169 -0.0753 -0.5278
   22SAPC   O11 2852   0.716   5.366  10.499 -0.2241  0.2670  0.0090
   22SAPC    C1 2853   0.711   5.373  10.357  0.7516 -0.7024 -0.0427
   22SAPC    HA 2854   0.687   5.274  10.312 -0.3002  0.1772 -1.5263
   22SAPC    HB 2855   0.632   5.441  10.319  1.2084  0.0478  0.3356
   22SAPC    C2 2856   0.848   5.416  10.286 -0.2331  0.0311 -0.1580
   22SAPC    HS 2857   0.854   5.521  10.323 -0.7886  0.0846 -0.2090
   22SAPC   O21 2858   0.828   5.413  10.140 -0.0851 -0.0068 -0.7529
   22SAPC   C21 2859   0.889   5.511  10.073  0.2157 -0.7936  0.6860
   22SAPC   O22 2860   0.960   5.597  10.122  0.7051  0.2621  0.2520
   22SAPC   C22 2861   0.847   5.512   9.925  0.1625  0.2237 -0.1809
   22SAPC   H2R 2862   0.919   5.456   9.862 -2.8919 -3.1414 -1.0923
   22SAPC   H2S 2863   0.746   5.464   9.920 -0.6553  1.7592  0.8754
   22SAPC    C3 2864   0.963   5.324  10.331  0.1396  0.3664  0.6641
   22SAPC    HX 2865   0.946   5.216  10.310  1.4516 -0.1896  2.2495
   22SAPC    HY 2866   0.981   5.337  10.440  0.0199  0.4388  0.6754
   22SAPC   O31 2867   1.086   5.359  10.262 -0.3591 -0.4827  0.3774
   22SAPC   C31 2868   1.161   5.449  10.312 -0.6112 -0.0177 -0.0344
   22SAPC   O32 2869   1.142   5.509  10.418  0.1840  0.0134  0.2682
   22SAPC   C32 2870   1.277   5.484  10.209  1.3678  0.2491 -0.2895
   22SAPC   H2X 2871   1.367   5.483  10.274  1.7248  3.7404 -0.5451
   22SAPC   H2Y 2872   1.266   5.586  10.168  0.5245  0.5332  0.5897
   22SAPC   C23 2873   0.831   5.649   9.861  0.0807 -0.1403  0.0962
   22SAPC   H3R 2874   0.930   5.689   9.831  1.1285 -2.1807  0.6902
   22SAPC   H3S 2875   0.770   5.717   9.925  0.8289 -0.5205  1.2382
   22SAPC   C24 2876   0.731   5.619   9.747  0.4385  0.1845  0.0323
   22SAPC   H4R 2877   0.682   5.714   9.717  0.1359 -0.4266 -1.4640
   22SAPC   H4S 2878   0.645   5.556   9.779  1.8570 -2.7875 -1.6884
   22SAPC   C25 2879   0.798   5.552   9.632 -0.0768  0.2477 -0.1356
   22SAPC   H5R 2880   0.815   5.444   9.644  2.4886  0.5001 -0.7938
   22SAPC   C26 2881   0.835   5.610   9.515  0.3458  0.6049 -0.7978
   22SAPC   H6R 2882   0.862   5.543   9.432 -1.2796 -0.1819 -0.7278
   22SAPC   C27 2883   0.825   5.757   9.466  0.5589  0.1000  0.0980
   22SAPC   H7R 2884   0.803   5.817   9.557 -1.6261 -0.1108 -0.2352
   22SAPC   H7S 2885   0.745   5.766   9.389  1.2688  2.1627 -0.4653
   22SAPC   C28 2886   0.958   5.811   9.423  0.1831 -0.4224  0.2526
   22SAPC   H8R 2887   1.035   5.840   9.495  1.4101 -0.2244 -1.1017
   22SAPC   C29 2888   0.987   5.832   9.294 -0.1230 -0.2321  0.1630
   22SAPC   H9R 2889   1.081   5.885   9.269 -0.1282 -0.0870  0.4438
   22SAPC  C210 2890   0.887   5.799   9.181 -0.2329  0.1741 -0.2580
   22SAPC  H10R 2891   0.787   5.843   9.199  0.1678  1.4505 -0.9962
   22SAPC  H10S 2892   0.867   5.690   9.178  2.0521 -0.2882 -0.8903
   22SAPC  C211 2893   0.936   5.838   9.045 -0.2548 -0.0833  0.7812
   22SAPC  H11R 2894   1.042   5.868   9.040 -0.1933  0.1725  2.8158
   22SAPC  C212 2895   0.856   5.866   8.938 -0.2341  0.1489 -0.8030
   22SAPC  H12R 2896   0.904   5.903   8.846 -0.0188 -0.4191 -0.9251
   22SAPC  C213 2897   0.706   5.863   8.912 -0.0221  0.5935  0.5189
   22SAPC  H13R 2898   0.661   5.958   8.948 -1.0243  0.3393 -0.0524
   22SAPC  H13S 2899   0.661   5.777   8.965  0.4034  0.8330  1.2875
   22SAPC  C214 2900   0.668   5.850   8.762 -0.0034  0.4160  0.0695
   22SAPC  H14R 2901   0.642   5.946   8.715 -1.1625  0.2267  0.2893
   22SAPC  C215 2902   0.666   5.739   8.686 -0.4302 -0.0897  0.0398
   22SAPC  H15R 2903   0.631   5.736   8.581  3.0482 -0.9042 -1.2356
   22SAPC  C216 2904   0.697   5.596   8.725  0.3015  0.0587 -0.2807
   22SAPC  H16R 2905   0.782   5.592   8.797 -0.3528 -0.0040  0.5067
   22SAPC  H16S 2906   0.720   5.533   8.637  0.3099  1.3960 -1.2599
   22SAPC  C217 2907   0.578   5.527   8.794 -0.6068 -0.2098 -0.3366
   22SAPC  H17R 2908   0.508   5.510   8.710  0.4987 -0.7535 -1.1695
   22SAPC  H17S 2909   0.529   5.596   8.867 -0.4001  0.0785 -0.4658
   22SAPC  C218 2910   0.614   5.397   8.871 -0.2624  0.2776  0.0282
   22SAPC  H18R 2911   0.669   5.322   8.811 -1.6972 -1.4340  0.7718
   22SAPC  H18S 2912   0.519   5.351   8.904 -0.1363 -0.4086 -0.5536
   22SAPC  C219 2913   0.684   5.433   9.004 -0.6115  0.3266 -0.0369
   22SAPC  H19R 2914   0.611   5.488   9.068 -1.9199 -1.1719 -0.1708
   22SAPC  H19S 2915   0.771   5.498   8.979  0.6076 -1.0585  0.4683
   22SAPC  C220 2916   0.718   5.296   9.068  0.5876  0.2944  0.3945
   22SAPC  H20R 2917   0.631   5.231   9.047 -0.2154  1.3630  0.3015
   22SAPC  H20S 2918   0.728   5.309   9.177 -0.6201 -0.1641  0.5782
   22SAPC  H20T 2919   0.810   5.251   9.025 -1.0059 -2.8876  0.0146
   22SAPC   C33 2920   1.304   5.369  10.115 -0.0990  0.2458  0.3624
   22SAPC   H3X 2921   1.212   5.316  10.083  1.3151 -2.9394  1.2278
   22SAPC   H3Y 2922   1.368   5.293  10.163 -0.4848 -2.2318 -2.7449
   22SAPC   C34 2923   1.358   5.412   9.979 -0.2753 -0.0837 -0.0142
   22SAPC   H4X 2924   1.423   5.332   9.937  0.7616  0.2358  0.9325
   22SAPC   H4Y 2925   1.427   5.496   9.998 -0.2992 -0.2638  0.9161
   22SAPC   C35 2926   1.247   5.463   9.891  0.0456  0.5324  0.7005
   22SAPC   H5X 2927   1.223   5.566   9.924  1.1304  0.4766  1.7412
   22SAPC   H5Y 2928   1.153   5.404   9.899 -0.0069  0.5575  0.2801
   22SAPC   C36 2929   1.284   5.467   9.745 -0.0991 -0.2142  0.6406
   22SAPC   H6X 2930   1.307   5.361   9.719 -0.2325  0.0711 -0.7382
   22SAPC   H6Y 2931   1.379   5.523   9.738 -0.0779 -0.4079 -1.3400
   22SAPC   C37 2932   1.181   5.536   9.651 -0.0750  0.2814  0.6249
   22SAPC   H7X 2933   1.159   5.637   9.692  1.0266  1.0109 -0.5230
   22SAPC   H7Y 2934   1.087   5.479   9.634  1.1717 -1.6611 -0.1038
   22SAPC   C38 2935   1.253   5.557   9.516  0.2909 -0.8345 -0.2794
   22SAPC   H8X 2936   1.359   5.522   9.517  0.1179 -1.3685  0.6086
   22SAPC   H8Y 2937   1.263   5.666   9.496  2.2210 -1.3983 -3.0087
   22SAPC   C39 2938   1.177   5.490   9.403 -0.9057  0.2297  0.6555
   22SAPC   H9X 2939   1.068   5.507   9.411 -1.3756 -1.6201 -0.9317
   22SAPC   H9Y 2940   1.199   5.382   9.390 -0.9432  0.5577 -3.1140
   22SAPC  C310 2941   1.228   5.547   9.265 -0.3061 -0.0350 -0.3493
   22SAPC  H10X 2942   1.333   5.521   9.241 -0.0924  1.0558 -0.6464
   22SAPC  H10Y 2943   1.207   5.656   9.260 -2.8098 -0.4344 -0.2284
   22SAPC  C311 2944   1.150   5.493   9.147 -0.0817  0.2342 -0.8044
   22SAPC  H11X 2945   1.047   5.533   9.164  0.6886  1.9451  0.0194
   22SAPC  H11Y 2946   1.143   5.383   9.162  2.1389  0.0393 -0.9489
   22SAPC  C312 2947   1.211   5.543   9.015 -0.3665  0.0985 -0.2472
   22SAPC  H12X 2948   1.321   5.531   9.003 -0.4768 -0.6730 -0.5134
   22SAPC  H12Y 2949   1.194   5.652   9.006  1.3298  0.5266  1.0907
   22SAPC  C313 2950   1.146   5.483   8.889  0.2539 -0.3361  0.0112
   22SAPC  H13X 2951   1.044   5.528   8.883  1.0449  1.4266 -0.8704
   22SAPC  H13Y 2952   1.152   5.372   8.896 -0.3821 -0.4588 -1.2492
   22SAPC  C314 2953   1.216   5.530   8.759 -0.5980 -0.3391 -0.6474
   22SAPC  H14X 2954   1.298   5.458   8.738 -0.6649 -0.9713  1.0968
   22SAPC  H14Y 2955   1.257   5.629   8.787 -2.2310  0.4458 -0.8856
   22SAPC  C315 2956   1.120   5.546   8.640  0.3685  0.0710 -0.3792
   22SAPC  H15X 2957   1.166   5.575   8.543 -0.1783  1.2694 -0.2963
   22SAPC  H15Y 2958   1.048   5.627   8.664 -0.0474 -0.0854 -1.0816
   22SAPC  C316 2959   1.048   5.412   8.623 -0.4743 -0.3210  0.1238
   22SAPC  H16X 2960   0.982   5.367   8.699 -1.5737  1.2557  0.1385
   22SAPC  H16Y 2961   1.133   5.341   8.610 -0.2030 -0.0699  0.4978
   22SAPC  C317 2962   0.968   5.409   8.492  0.0772 -0.2155 -0.1587
   22SAPC  H17X 2963   1.029   5.472   8.425 -0.7090  1.4920  0.6661
   22SAPC  H17Y 2964   0.879   5.473   8.510 -0.6956 -0.9987 -1.0620
   22SAPC  C318 2965   0.933   5.271   8.434  0.1964 -0.3804  0.5196
   22SAPC  H18X 2966   1.004   5.252   8.351  1.5054  0.7203  1.3468
   22SAPC  H18Y 2967   0.833   5.288   8.387  1.6349 -0.6113 -2.9012
   22SAPC  H18Z 2968   0.946   5.185   8.503  0.0903 -1.8598 -1.2412
   23SAPC     N 2969   1.666   1.615  10.707 -0.1177  0.0648 -0.1279
   23SAPC   C12 2970   1.624   1.662  10.573 -0.2940  0.0500 -0.4159
   23SAPC  H12A 2971   1.517   1.674  10.568 -0.2416  1.2589  0.7803
   23SAPC  H12B 2972   1.655   1.584  10.505  0.7777 -1.0993  1.3050
   23SAPC   C13 2973   1.604   1.486  10.752  0.1127  0.0244  0.3783
   23SAPC  H13A 2974   1.639   1.398  10.701  0.4348 -0.1124  0.8356
   23SAPC  H13B 2975   1.635   1.470  10.854 -0.0237 -0.3654  0.3590
   23SAPC  H13C 2976   1.496   1.497  10.754 -0.0591 -1.2825 -0.4429
   23SAPC   C14 2977   1.819   1.582  10.691 -0.4765  0.6633 -0.2560
   23SAPC  H14A 2978   1.851   1.503  10.756  0.2023  0.6477 -0.5973
   23SAPC  H14B 2979   1.849   1.559  10.589  2.0895  2.2096  0.0666
   23SAPC  H14C 2980   1.872   1.672  10.719 -0.6055  0.0488  2.1174
   23SAPC   C15 2981   1.638   1.712  10.818 -0.0828  0.3996 -0.1178
   23SAPC  H15A 2982   1.678   1.811  10.801 -0.5636  0.4011 -1.3734
   23SAPC  H15B 2983   1.534   1.739  10.818 -0.8600 -1.9500 -3.3000
   23SAPC  H15C 2984   1.668   1.685  10.918  1.1518  3.1917  0.3713
   23SAPC   C11 2985   1.683   1.798  10.527 -0.5895 -0.0606  0.4588
   23SAPC  H11A 2986   1.667   1.803  10.418  0.5202  0.6970  0.3196
   23SAPC  H11B 2987   1.792   1.790  10.547 -0.0713  1.6329 -1.4484
   23SAPC     P 2988   1.473   1.953  10.572  0.2223  0.4169 -0.1481
   23SAPC   O13 2989   1.385   1.834  10.579 -0.2391 -0.4913  0.6249
   23SAPC   O14 2990   1.449   2.068  10.663  0.1384 -0.0527  0.1011
   23SAPC   O12 2991   1.621   1.908  10.595  0.5331  0.4946  0.5359
   23SAPC   O11 2992   1.471   1.994  10.422 -0.2197 -0.0819 -0.2066
   23SAPC    C1 2993   1.517   2.118  10.373  0.6734 -0.2196 -0.1960
   23SAPC    HA 2994   1.445   2.198  10.401  1.2697 -0.1644  1.2648
   23SAPC    HB 2995   1.615   2.138  10.421 -0.4279 -0.0798  2.1378
   23SAPC    C2 2996   1.526   2.117  10.216  0.0739  1.0167 -0.4753
   23SAPC    HS 2997   1.428   2.077  10.181  1.4431 -1.9780 -1.1991
   23SAPC   O21 2998   1.633   2.032  10.185  0.0095  0.3318 -0.2546
   23SAPC   C21 2999   1.605   1.947  10.081  0.3440  0.0883 -0.1556
   23SAPC   O22 3000   1.507   1.950  10.011  0.4820 -0.1462  0.4170
   23SAPC   C22 3001   1.731   1.861  10.066 -0.2074  0.2339 -0.2321
   23SAPC   H2R 3002   1.815   1.929  10.040 -1.2969  1.0080 -1.9086
   23SAPC   H2S 3003   1.755   1.824  10.168 -0.6822  1.0432  0.1911
   23SAPC    C3 3004   1.545   2.255  10.158  0.3987 -0.5437 -0.4967
   23SAPC    HX 3005   1.643   2.286  10.200  0.2502  1.0222 -1.2440
   23SAPC    HY 3006   1.465   2.322  10.197 -0.1633 -0.6442 -1.4547
   23SAPC   O31 3007   1.551   2.261  10.015  0.7049  0.2633 -0.2465
   23SAPC   C31 3008   1.446   2.242   9.944  0.1309 -0.6166 -0.4441
   23SAPC   O32 3009   1.330   2.252   9.991  0.0011  0.3848 -0.1985
   23SAPC   C32 3010   1.492   2.213   9.801 -0.0776 -0.1232  0.3394
   23SAPC   H2X 3011   1.536   2.113   9.782  1.5601  0.7438 -0.6823
   23SAPC   H2Y 3012   1.587   2.269   9.795  1.5719 -2.0471  4.6084
   23SAPC   C23 3013   1.710   1.726   9.981 -0.3503 -0.7491 -0.1509
   23SAPC   H3R 3014   1.619   1.688  10.031 -0.1859 -0.7165  0.1768
   23SAPC   H3S 3015   1.797   1.664  10.013 -0.2626 -0.0005  1.1384
   23SAPC   C24 3016   1.709   1.739   9.830  0.5604 -0.1648 -0.0221
   23SAPC   H4R 3017   1.630   1.814   9.806 -1.0246 -1.8781 -0.4348
   23SAPC   H4S 3018   1.656   1.650   9.790 -2.2773  0.7778  1.3467
   23SAPC   C25 3019   1.834   1.772   9.761  0.2755  0.1684  0.2025
   23SAPC   H5R 3020   1.927   1.741   9.810  0.1807 -1.7182 -0.7182
   23SAPC   C26 3021   1.858   1.830   9.639  0.8263  0.3057 -0.4125
   23SAPC   H6R 3022   1.962   1.826   9.605  0.6095  0.6364 -1.1441
   23SAPC   C27 3023   1.766   1.882   9.538 -0.1743 -0.1597  0.0326
   23SAPC   H7R 3024   1.826   1.963   9.491  1.4212 -1.0557  0.4683
   23SAPC   H7S 3025   1.673   1.930   9.577 -1.8860 -3.0708 -0.2089
   23SAPC   C28 3026   1.727   1.772   9.446 -0.2818  0.5143 -0.0502
   23SAPC   H8R 3027   1.673   1.693   9.500  1.1213  0.3495  1.1665
   23SAPC   C29 3028   1.745   1.775   9.315  0.0482  0.0881  0.4587
   23SAPC   H9R 3029   1.715   1.677   9.273 -0.6260 -0.1173  1.3791
   23SAPC  C210 3030   1.818   1.866   9.222 -0.5097  0.2813  0.4790
   23SAPC  H10R 3031   1.902   1.814   9.171  0.3003  0.9493  1.1021
   23SAPC  H10S 3032   1.879   1.938   9.281  0.2213  1.2688 -1.3935
   23SAPC  C211 3033   1.718   1.941   9.137  0.0747 -0.4923 -0.5062
   23SAPC  H11R 3034   1.663   2.025   9.183  0.8053  0.0461 -0.5977
   23SAPC  C212 3035   1.707   1.927   9.002 -0.5847 -0.5166 -0.0693
   23SAPC  H12R 3036   1.619   1.975   8.956  0.3443  1.9043  0.5446
   23SAPC  C213 3037   1.780   1.822   8.916 -0.6242 -0.0279 -0.2092
   23SAPC  H13R 3038   1.709   1.747   8.877  0.4417 -0.7740 -0.7617
   23SAPC  H13S 3039   1.844   1.757   8.979 -4.3842 -1.3214  2.6516
   23SAPC  C214 3040   1.857   1.907   8.809  0.5636  0.0067 -0.7642
   23SAPC  H14R 3041   1.861   2.017   8.819  0.3928 -0.0167 -0.3995
   23SAPC  C215 3042   1.925   1.857   8.710 -0.1838 -0.0703 -0.4474
   23SAPC  H15R 3043   1.967   1.929   8.637 -2.8903 -0.0083 -2.0753
   23SAPC  C216 3044   1.948   1.711   8.674 -0.2391 -1.0090 -0.4812
   23SAPC  H16R 3045   1.858   1.663   8.717  0.1633 -2.5474 -1.2706
   23SAPC  H16S 3046   2.036   1.670   8.729  0.1067 -1.2935 -1.2277
   23SAPC  C217 3047   1.979   1.690   8.522  0.4620  1.3979 -0.3045
   23SAPC  H17R 3048   2.007   1.584   8.504 -1.0382  1.0147 -0.5102
   23SAPC  H17S 3049   2.066   1.756   8.497  1.2944  0.6896  0.6373
   23SAPC  C218 3050   1.857   1.701   8.427  0.2684  0.1198  0.0341
   23SAPC  H18R 3051   1.824   1.806   8.413 -1.2871 -0.1768  1.2128
   23SAPC  H18S 3052   1.763   1.645   8.448 -1.3222  2.2443 -0.9123
   23SAPC  C219 3053   1.884   1.640   8.294 -0.4524 -0.1857 -0.5016
   23SAPC  H19R 3054   1.870   1.530   8.301 -0.1562 -0.1827  0.2692
   23SAPC  H19S 3055   1.982   1.673   8.254 -0.5372 -0.3495 -0.8471
   23SAPC  C220 3056   1.783   1.685   8.191 -0.3570 -0.0774 -0.1013
   23SAPC  H20R 3057   1.798   1.623   8.100 -4.3347 -1.2344 -0.1454
   23SAPC  H20S 3058   1.801   1.789   8.159  3.2932 -0.9126 -1.2836
   23SAPC  H20T 3059   1.680   1.667   8.228  0.1902 -0.1204  1.4742
   23SAPC   C33 3060   1.374   2.243   9.709  0.4806 -0.1475  0.0865
   23SAPC   H3X 3061   1.316   2.333   9.740 -1.5042 -1.6920  1.1293
   23SAPC   H3Y 3062   1.303   2.160   9.729  1.3751 -0.8550  0.3276
   23SAPC   C34 3063   1.420   2.247   9.560 -0.8106 -0.4133 -0.7375
   23SAPC   H4X 3064   1.485   2.159   9.536 -1.1622 -0.6001 -1.0077
   23SAPC   H4Y 3065   1.480   2.338   9.539  0.0209 -0.6729  0.3929
   23SAPC   C35 3066   1.305   2.242   9.453 -0.4468 -0.5093  0.1271
   23SAPC   H5X 3067   1.255   2.341   9.462 -1.7361 -1.2819  2.0324
   23SAPC   H5Y 3068   1.241   2.164   9.500  0.4601 -0.8607  0.7965
   23SAPC   C36 3069   1.363   2.201   9.319 -0.3823  0.7334 -0.4012
   23SAPC   H6X 3070   1.405   2.099   9.309  1.0907  1.1938  0.7160
   23SAPC   H6Y 3071   1.444   2.272   9.290  2.2373 -2.1322 -0.6563
   23SAPC   C37 3072   1.256   2.209   9.203 -0.0635  0.0479 -0.1108
   23SAPC   H7X 3073   1.220   2.314   9.214  4.0401  1.7772 -1.1774
   23SAPC   H7Y 3074   1.175   2.136   9.224  0.2262 -0.5583 -1.0649
   23SAPC   C38 3075   1.316   2.191   9.064 -0.6192 -0.3831 -0.7870
   23SAPC   H8X 3076   1.350   2.086   9.066  0.4615 -0.0374 -0.0352
   23SAPC   H8Y 3077   1.405   2.257   9.051  1.5717 -2.9860  0.0189
   23SAPC   C39 3078   1.222   2.202   8.948  0.0239 -0.2396 -0.4595
   23SAPC   H9X 3079   1.127   2.147   8.964 -0.8342  0.2943 -3.1979
   23SAPC   H9Y 3080   1.262   2.170   8.849  2.3122  2.7796 -0.6477
   23SAPC  C310 3081   1.165   2.346   8.924 -0.3888  0.4305 -0.3174
   23SAPC  H10X 3082   1.248   2.419   8.920 -0.5473  0.6024 -4.5610
   23SAPC  H10Y 3083   1.097   2.365   9.010 -2.1106 -1.6619 -1.1192
   23SAPC  C311 3084   1.095   2.362   8.791 -0.3209  0.0509  0.0473
   23SAPC  H11X 3085   1.010   2.292   8.779  0.2486 -0.2891 -2.6606
   23SAPC  H11Y 3086   1.171   2.313   8.727  0.3491  0.3012  0.6309
   23SAPC  C312 3087   1.058   2.508   8.743 -0.6754  0.3384  0.6785
   23SAPC  H12X 3088   1.113   2.525   8.648 -1.5368 -2.5679 -0.4589
   23SAPC  H12Y 3089   1.100   2.575   8.821  1.8715  0.0144 -0.3150
   23SAPC  C313 3090   0.902   2.510   8.732  0.3054  0.6123 -0.0971
   23SAPC  H13X 3091   0.853   2.490   8.830 -1.8977  0.2749 -1.2083
   23SAPC  H13Y 3092   0.857   2.440   8.658 -0.2629  0.4364  0.4090
   23SAPC  C314 3093   0.858   2.656   8.688 -0.6633  1.0936 -0.0898
   23SAPC  H14X 3094   0.904   2.735   8.751 -1.3520  0.2003  1.5901
   23SAPC  H14Y 3095   0.750   2.672   8.710 -1.2801  0.1047 -2.1561
   23SAPC  C315 3096   0.881   2.691   8.542 -0.0656  0.1091 -0.1904
   23SAPC  H15X 3097   0.839   2.612   8.476 -0.7112  0.9340 -0.7860
   23SAPC  H15Y 3098   0.989   2.698   8.518  0.7775 -1.1284  2.7476
   23SAPC  C316 3099   0.818   2.832   8.512  0.5250 -0.2726 -0.1439
   23SAPC  H16X 3100   0.859   2.868   8.416  2.1460  0.8823  0.9348
   23SAPC  H16Y 3101   0.857   2.900   8.591  1.6343 -1.9865  0.8451
   23SAPC  C317 3102   0.663   2.833   8.510 -0.6676  0.5399  0.5043
   23SAPC  H17X 3103   0.624   2.812   8.612  0.5742 -2.5860  0.4401
   23SAPC  H17Y 3104   0.643   2.745   8.446  1.2574 -1.1370  2.0783
   23SAPC  C318 3105   0.605   2.967   8.460 -0.8249 -0.4754  0.6276
   23SAPC  H18X 3106   0.619   2.985   8.351 -0.7319  0.4468  0.7899
   23SAPC  H18Y 3107   0.642   3.055   8.516  0.0369 -0.1922 -0.3617
   23SAPC  H18Z 3108   0.498   2.962   8.490 -0.6356  1.3543  1.7348
   24SAPC     N 3109   6.150   2.163  11.381 -0.0054 -0.2970  1.0278
   24SAPC   C12 3110   6.177   2.211  11.241 -0.1208 -0.0584  0.7000
   24SAPC  H12A 3111   6.263   2.168  11.191 -1.5127 -0.6912 -1.2679
   24SAPC  H12B 3112   6.187   2.319  11.246 -0.8752  0.1079 -0.9887
   24SAPC   C13 3113   6.260   2.209  11.467 -0.5751  0.5851  0.3363
   24SAPC  H13A 3114   6.232   2.196  11.570  2.3029  1.0279  1.2635
   24SAPC  H13B 3115   6.350   2.153  11.444  0.0952  1.3663  0.9946
   24SAPC  H13C 3116   6.287   2.313  11.462  0.6774  0.2268 -1.2284
   24SAPC   C14 3117   6.022   2.224  11.431 -0.2431  0.5946 -0.6121
   24SAPC  H14A 3118   5.966   2.160  11.497 -0.2667  0.4771 -0.7452
   24SAPC  H14B 3119   6.043   2.310  11.493  3.6657 -0.6595  0.1381
   24SAPC  H14C 3120   5.960   2.253  11.348 -4.1658  1.6044  2.3894
   24SAPC   C15 3121   6.137   2.008  11.384 -0.0212  0.3287  0.0674
   24SAPC  H15A 3122   6.151   1.964  11.482 -1.2945  1.9618  1.0453
   24SAPC  H15B 3123   6.044   1.972  11.343 -0.0911 -0.7085  1.0855
   24SAPC  H15C 3124   6.209   1.966  11.316 -1.0031  1.8206 -2.0142
   24SAPC   C11 3125   6.081   2.180  11.126 -0.8308  0.6119 -0.1249
   24SAPC  H11A 3126   6.069   2.069  11.121  5.0312 -0.3366  0.2712
   24SAPC  H11B 3127   6.120   2.211  11.027 -2.5593  1.7868 -0.4877
   24SAPC     P 3128   5.936   2.399  11.106  0.5260 -0.3062 -0.3335
   24SAPC   O13 3129   5.795   2.435  11.112 -0.1236  0.1218 -0.5932
   24SAPC   O14 3130   6.034   2.483  11.175 -0.5861  1.0977  0.1728
   24SAPC   O12 3131   5.965   2.249  11.154 -0.3080 -0.3908  0.1679
   24SAPC   O11 3132   5.968   2.402  10.949  0.0897 -0.3191  0.6471
   24SAPC    C1 3133   5.871   2.387  10.850  0.1888  0.2765  0.6850
   24SAPC    HA 3134   5.920   2.363  10.753  0.6270  2.5021  0.3044
   24SAPC    HB 3135   5.809   2.298  10.874  2.2149 -2.0295 -1.9080
   24SAPC    C2 3136   5.797   2.519  10.808  0.3961 -0.4722 -0.5978
   24SAPC    HS 3137   5.748   2.554  10.901 -0.6680 -2.3055 -0.4127
   24SAPC   O21 3138   5.703   2.505  10.707  1.0288  0.8938  0.0924
   24SAPC   C21 3139   5.605   2.412  10.712 -0.2169  0.3815 -0.5951
   24SAPC   O22 3140   5.589   2.341  10.806 -0.5695 -0.5101 -0.1381
   24SAPC   C22 3141   5.509   2.420  10.593 -0.1212 -0.4711  0.6947
   24SAPC   H2R 3142   5.492   2.529  10.576  1.7882 -0.4788 -1.7097
   24SAPC   H2S 3143   5.561   2.378  10.505 -0.6653  1.0319 -0.3835
   24SAPC    C3 3144   5.875   2.646  10.775 -0.6057 -0.2917  0.3973
   24SAPC    HX 3145   5.933   2.675  10.865 -2.2587 -0.6778  1.6336
   24SAPC    HY 3146   5.812   2.737  10.764 -0.1119  0.1257  0.9894
   24SAPC   O31 3147   5.945   2.630  10.645  0.0671 -1.2261 -0.1304
   24SAPC   C31 3148   6.071   2.612  10.657  0.4250 -0.7013  0.7778
   24SAPC   O32 3149   6.141   2.615  10.754  0.8467 -0.0632  0.7521
   24SAPC   C32 3150   6.130   2.579  10.525 -0.1526 -0.2256  0.0057
   24SAPC   H2X 3151   6.115   2.671  10.464  0.3267  0.4976  0.9437
   24SAPC   H2Y 3152   6.061   2.502  10.483 -1.2391  0.0590  1.2034
   24SAPC   C23 3153   5.390   2.335  10.614 -0.5644  0.2529 -0.9230
   24SAPC   H3R 3154   5.331   2.375  10.700  2.3942  1.3481  0.7307
   24SAPC   H3S 3155   5.431   2.233  10.622 -1.7969 -0.2570 -0.8344
   24SAPC   C24 3156   5.287   2.343  10.496 -0.4583  0.0080  0.2126
   24SAPC   H4R 3157   5.344   2.325  10.402 -1.2185 -0.6272 -0.1428
   24SAPC   H4S 3158   5.243   2.444  10.493 -2.9729 -0.9667  1.1281
   24SAPC   C25 3159   5.174   2.246  10.511 -0.2955  1.5460  0.7390
   24SAPC   H5R 3160   5.201   2.154  10.564  0.2219  1.4581  0.3199
   24SAPC   C26 3161   5.042   2.274  10.503 -0.7692  0.0095  0.1151
   24SAPC   H6R 3162   4.975   2.189  10.522 -0.3009 -0.2896  0.4650
   24SAPC   C27 3163   4.979   2.394  10.453 -0.2359 -0.4315 -0.1998
   24SAPC   H7R 3164   4.982   2.392  10.342 -3.0837  0.0986 -0.3831
   24SAPC   H7S 3165   5.031   2.489  10.478 -1.5563  0.2105  0.2549
   24SAPC   C28 3166   4.831   2.416  10.496 -0.3161 -0.1967  0.2432
   24SAPC   H8R 3167   4.813   2.452  10.599 -0.8638  1.0660 -0.2669
   24SAPC   C29 3168   4.719   2.384  10.423  0.9020 -0.3546 -0.3951
   24SAPC   H9R 3169   4.616   2.415  10.446  0.6550 -1.3183 -0.1498
   24SAPC  C210 3170   4.721   2.336  10.281  1.2768  0.0563  0.4758
   24SAPC  H10R 3171   4.811   2.378  10.232  1.6982 -1.1920  0.1530
   24SAPC  H10S 3172   4.638   2.386  10.225  1.3621  2.2045  2.1263
   24SAPC  C211 3173   4.715   2.189  10.256 -0.4529 -0.3158  0.0799
   24SAPC  H11R 3174   4.735   2.124  10.343  0.1750 -3.5306 -2.2539
   24SAPC  C212 3175   4.683   2.120  10.142 -0.2422  0.4771 -0.1313
   24SAPC  H12R 3176   4.695   2.010  10.143  0.7600  0.5802  0.1908
   24SAPC  C213 3177   4.639   2.176  10.009 -0.4391 -1.1775  0.3483
   24SAPC  H13R 3178   4.584   2.272  10.025  0.7744 -0.3292 -0.3952
   24SAPC  H13S 3179   4.564   2.106   9.966 -1.5369  1.2490 -2.0412
   24SAPC  C214 3180   4.740   2.198   9.898 -0.1104  0.8593 -0.0578
   24SAPC  H14R 3181   4.833   2.252   9.921  1.3007 -0.3324 -2.4833
   24SAPC  C215 3182   4.714   2.176   9.764 -0.2606 -0.0700  0.3858
   24SAPC  H15R 3183   4.790   2.198   9.688 -0.4246 -0.4391  0.1148
   24SAPC  C216 3184   4.581   2.125   9.707 -0.0715 -0.2696 -1.1397
   24SAPC  H16R 3185   4.493   2.133   9.776 -0.3141 -2.9071 -1.0485
   24SAPC  H16S 3186   4.589   2.015   9.697  1.2766 -0.1370 -1.7281
   24SAPC  C217 3187   4.541   2.182   9.568 -0.3377  0.3562 -0.1732
   24SAPC  H17R 3188   4.542   2.292   9.578 -0.4280  0.2367  1.2995
   24SAPC  H17S 3189   4.434   2.152   9.559 -0.6315  1.7027 -1.5885
   24SAPC  C218 3190   4.624   2.133   9.443 -0.6276 -0.1958 -0.2674
   24SAPC  H18R 3191   4.595   2.027   9.426 -0.5563  0.0636 -2.2970
   24SAPC  H18S 3192   4.730   2.130   9.474 -0.3576 -0.2886 -1.1831
   24SAPC  C219 3193   4.622   2.228   9.323  0.1787 -0.1556  0.2567
   24SAPC  H19R 3194   4.668   2.177   9.236  2.1365  1.8351  0.0247
   24SAPC  H19S 3195   4.689   2.316   9.334 -0.2979  0.7775 -3.1663
   24SAPC  C220 3196   4.481   2.288   9.283  0.0235 -0.5884 -1.0955
   24SAPC  H20R 3197   4.498   2.383   9.229  0.8762  0.5400  1.0280
   24SAPC  H20S 3198   4.419   2.321   9.369  1.7467 -3.2383  1.3362
   24SAPC  H20T 3199   4.415   2.224   9.221 -0.6431  0.9197 -1.9873
   24SAPC   C33 3200   6.275   2.534  10.527  0.6811 -0.0199 -0.3377
   24SAPC   H3X 3201   6.280   2.460  10.610  1.1562  0.8708  0.4388
   24SAPC   H3Y 3202   6.346   2.609  10.568 -0.1580  0.4662  0.2392
   24SAPC   C34 3203   6.324   2.470  10.397  0.5157  0.1798  0.5077
   24SAPC   H4X 3204   6.299   2.545  10.319 -1.1747  0.8362  1.6202
   24SAPC   H4Y 3205   6.279   2.377  10.356  2.2046  0.2857 -1.7640
   24SAPC   C35 3206   6.475   2.436  10.398 -0.8902  0.0029 -0.4574
   24SAPC   H5X 3207   6.488   2.334  10.440 -1.5104  0.5026  0.9836
   24SAPC   H5Y 3208   6.540   2.508  10.451 -2.8382  1.2282  0.3623
   24SAPC   C36 3209   6.530   2.436  10.253 -0.6612 -0.0809 -0.7353
   24SAPC   H6X 3210   6.636   2.405  10.247 -0.5059  0.6996 -2.6006
   24SAPC   H6Y 3211   6.534   2.538  10.211 -0.6329  1.0239  1.7883
   24SAPC   C37 3212   6.452   2.347  10.162 -0.1338 -0.9318  0.0284
   24SAPC   H7X 3213   6.340   2.348  10.159 -0.2606 -2.1960  2.3269
   24SAPC   H7Y 3214   6.481   2.241  10.175  2.8013 -0.1385  0.5343
   24SAPC   C38 3215   6.508   2.361  10.014  0.4864 -0.5687  0.4397
   24SAPC   H8X 3216   6.607   2.313   9.999 -0.6422 -2.0970 -3.4071
   24SAPC   H8Y 3217   6.533   2.465   9.983  2.6299 -0.3462  2.6413
   24SAPC   C39 3218   6.420   2.282   9.918  0.3108  0.0550  0.7569
   24SAPC   H9X 3219   6.319   2.310   9.955  0.4195  0.3328  0.8405
   24SAPC   H9Y 3220   6.433   2.172   9.931 -1.6185 -0.0652  2.0726
   24SAPC  C310 3221   6.437   2.324   9.766  1.1786 -1.5619 -0.3776
   24SAPC  H10X 3222   6.414   2.432   9.758  0.4622 -1.6462  0.3449
   24SAPC  H10Y 3223   6.356   2.274   9.707 -0.8780 -0.7773  1.6112
   24SAPC  C311 3224   6.571   2.289   9.690 -0.5412 -0.2513  0.3042
   24SAPC  H11X 3225   6.614   2.191   9.720 -1.8021 -1.4051 -1.4076
   24SAPC  H11Y 3226   6.637   2.375   9.713 -1.3036  0.1458  1.0419
   24SAPC  C312 3227   6.551   2.302   9.541 -0.4760 -0.3963  1.0798
   24SAPC  H12X 3228   6.527   2.408   9.515 -0.9556 -0.4634  1.2274
   24SAPC  H12Y 3229   6.475   2.237   9.493 -0.0077  2.8848 -5.1211
   24SAPC  C313 3230   6.675   2.266   9.460  0.0707  0.3280  0.5112
   24SAPC  H13X 3231   6.706   2.161   9.482 -1.8147 -0.3770  0.0316
   24SAPC  H13Y 3232   6.760   2.335   9.479  0.6103  0.1193 -0.9688
   24SAPC  C314 3233   6.645   2.261   9.308 -0.2959  0.2435 -0.8535
   24SAPC  H14X 3234   6.750   2.258   9.271 -0.5667 -2.2188 -1.5944
   24SAPC  H14Y 3235   6.595   2.357   9.281  1.6606  1.0550 -1.8048
   24SAPC  C315 3236   6.574   2.137   9.254 -0.1810  0.2660  0.2997
   24SAPC  H15X 3237   6.465   2.160   9.262 -0.7381 -1.5229 -1.3276
   24SAPC  H15Y 3238   6.596   2.055   9.325 -3.8042  0.1434  1.5194
   24SAPC  C316 3239   6.605   2.092   9.108  0.4160 -0.1276  0.8777
   24SAPC  H16X 3240   6.713   2.085   9.084 -0.0927 -1.9199 -1.1061
   24SAPC  H16Y 3241   6.550   2.166   9.045 -0.2806 -1.4117 -0.0496
   24SAPC  C317 3242   6.565   1.947   9.081 -0.2294  0.0162 -0.4333
   24SAPC  H17X 3243   6.464   1.937   9.126  1.4654 -4.4551  3.2280
   24SAPC  H17Y 3244   6.633   1.880   9.139  1.2847  1.1950 -0.7715
   24SAPC  C318 3245   6.566   1.889   8.935 -0.1858 -0.6424  0.1614
   24SAPC  H18X 3246   6.664   1.897   8.883 -0.1570 -1.4725  0.0871
   24SAPC  H18Y 3247   6.494   1.934   8.863  0.3195 -2.7381 -1.7657
   24SAPC  H18Z 3248   6.548   1.780   8.931 -1.0289 -0.4922 -0.5506
   25SAPC     N 3249   2.462   1.237   6.322 -0.1396  1.0082 -0.4208
   25SAPC   C12 3250   2.356   1.342   6.281  0.1972 -0.0606 -0.1683
   25SAPC  H12A 3251   2.402   1.436   6.256 -0.3246  0.7410  1.6987
   25SAPC  H12B 3252   2.282   1.365   6.357  0.8269  1.2541  0.0720
   25SAPC   C13 3253   2.546   1.307   6.422 -0.5869 -0.3322  0.5136
   25SAPC  H13A 3254   2.630   1.247   6.452 -0.1647  0.0427  0.0921
   25SAPC  H13B 3255   2.579   1.402   6.383 -0.2168 -0.8672 -0.5358
   25SAPC  H13C 3256   2.483   1.324   6.508 -1.4600 -0.1963 -0.1390
   25SAPC   C14 3257   2.393   1.121   6.378 -0.2893  0.2603 -0.1476
   25SAPC  H14A 3258   2.341   1.143   6.470  1.0221 -0.0406  0.6909
   25SAPC  H14B 3259   2.321   1.088   6.304  0.5686  0.0967 -0.9270
   25SAPC  H14C 3260   2.459   1.040   6.405 -2.9381 -2.0011  0.1132
   25SAPC   C15 3261   2.552   1.200   6.208  0.1083 -0.2593 -0.4325
   25SAPC  H15A 3262   2.499   1.142   6.134 -2.2791 -1.3121  1.9262
   25SAPC  H15B 3263   2.598   1.291   6.173  2.3970 -0.9237  0.6623
   25SAPC  H15C 3264   2.631   1.135   6.242 -0.9207 -2.6428 -2.2288
   25SAPC   C11 3265   2.262   1.303   6.162 -0.0500 -0.1112  0.7372
   25SAPC  H11A 3266   2.317   1.320   6.067 -0.1920  2.9166  1.0867
   25SAPC  H11B 3267   2.185   1.383   6.153 -1.0126 -1.1112 -0.1010
   25SAPC     P 3268   2.185   1.086   6.049  0.0008  0.2553 -0.3618
   25SAPC   O13 3269   2.122   1.172   5.942 -0.3058 -0.1369  0.2674
   25SAPC   O14 3270   2.309   1.032   5.995 -0.3456  0.5008  0.3142
   25SAPC   O12 3271   2.201   1.174   6.179 -0.0098  0.3694  0.0897
   25SAPC   O11 3272   2.098   0.951   6.081  0.1763 -0.3951  0.4564
   25SAPC    C1 3273   2.016   0.958   6.197 -0.6399 -0.2624 -0.0365
   25SAPC    HA 3274   1.977   1.061   6.216  0.0340 -0.5336  3.5118
   25SAPC    HB 3275   1.932   0.887   6.187 -0.0218 -0.9977 -0.1229
   25SAPC    C2 3276   2.099   0.904   6.320 -0.2398 -0.2792 -0.5492
   25SAPC    HS 3277   2.184   0.975   6.334 -1.4359  1.8467 -2.9974
   25SAPC   O21 3278   2.136   0.768   6.294  0.0696  0.0842 -0.0965
   25SAPC   C21 3279   2.242   0.736   6.357  0.0859  0.2873 -0.3077
   25SAPC   O22 3280   2.326   0.816   6.395 -0.4803 -0.4362 -0.3976
   25SAPC   C22 3281   2.246   0.588   6.367 -0.4183 -0.2963  0.2428
   25SAPC   H2R 3282   2.140   0.554   6.361 -0.3218 -0.5460 -0.0619
   25SAPC   H2S 3283   2.308   0.534   6.293  0.2280  0.9577 -0.1401
   25SAPC    C3 3284   2.018   0.913   6.455  0.9123 -0.9619 -0.5708
   25SAPC    HX 3285   1.921   0.859   6.443  0.9689 -0.4176 -4.9767
   25SAPC    HY 3286   1.992   1.018   6.480  0.2345 -1.4036  0.6985
   25SAPC   O31 3287   2.090   0.862   6.568 -0.5558  0.3594  0.6823
   25SAPC   C31 3288   2.160   0.951   6.640 -0.2073 -0.5039 -0.0969
   25SAPC   O32 3289   2.190   1.059   6.607  0.0262 -0.4928 -0.1639
   25SAPC   C32 3290   2.198   0.886   6.773 -0.0506 -0.0680  0.5502
   25SAPC   H2X 3291   2.260   0.794   6.758 -0.8629 -0.5558  0.1249
   25SAPC   H2Y 3292   2.102   0.865   6.825 -1.4065  1.2730 -1.2948
   25SAPC   C23 3293   2.297   0.543   6.506  0.3697  0.5372 -0.2552
   25SAPC   H3R 3294   2.248   0.607   6.582 -1.7927 -0.3471 -0.8215
   25SAPC   H3S 3295   2.407   0.558   6.512  0.3503  0.3377  0.9249
   25SAPC   C24 3296   2.263   0.390   6.528  0.0226 -0.6301 -0.2772
   25SAPC   H4R 3297   2.335   0.362   6.608 -0.3144  2.2192  1.1551
   25SAPC   H4S 3298   2.295   0.327   6.443  2.9422 -1.7006  1.4458
   25SAPC   C25 3299   2.119   0.366   6.564  0.3038 -1.0837  0.1023
   25SAPC   H5R 3300   2.053   0.404   6.485 -0.2582  0.7853  1.3880
   25SAPC   C26 3301   2.069   0.293   6.670  0.4158  0.0677  0.2779
   25SAPC   H6R 3302   1.960   0.281   6.677  0.5183 -0.9606  0.3488
   25SAPC   C27 3303   2.158   0.221   6.764 -0.7291  0.4084  0.0143
   25SAPC   H7R 3304   2.180   0.297   6.842 -1.0642 -0.2935  0.8205
   25SAPC   H7S 3305   2.253   0.188   6.715  0.0545  2.3737  0.1340
   25SAPC   C28 3306   2.089   0.099   6.821  0.7402  0.2284 -0.1291
   25SAPC   H8R 3307   1.984   0.079   6.796  0.3552 -1.4920  2.4615
   25SAPC   C29 3308   2.160   0.012   6.898 -0.2366 -0.1343 -0.2431
   25SAPC   H9R 3309   2.109  -0.070   6.952 -0.6120  2.2706  3.4087
   25SAPC  C210 3310   2.298   0.038   6.944  0.1174  0.1208 -0.5040
   25SAPC  H10R 3311   2.335   0.139   6.915  0.6606 -0.1148 -0.6418
   25SAPC  H10S 3312   2.363  -0.032   6.888  0.0495 -0.4795  0.1496
   25SAPC  C211 3313   2.318   0.045   7.096  0.7493  0.0159  0.3578
   25SAPC  H11R 3314   2.237   0.098   7.147 -0.1720 -0.6744 -0.3620
   25SAPC  C212 3315   2.417   0.010   7.170 -0.3951 -0.4743 -0.6062
   25SAPC  H12R 3316   2.401   0.018   7.278  0.6242 -1.4182 -0.3710
   25SAPC  C213 3317   2.541  -0.059   7.116 -0.0321  0.1543 -0.5271
   25SAPC  H13R 3318   2.566  -0.014   7.018  0.2449  0.4278 -0.3348
   25SAPC  H13S 3319   2.509  -0.164   7.101 -3.6966  1.0681 -0.0317
   25SAPC  C214 3320   2.662  -0.058   7.213 -0.3948 -0.0595  0.2748
   25SAPC  H14R 3321   2.727   0.029   7.200 -0.0826  0.0934  2.4331
   25SAPC  C215 3322   2.696  -0.163   7.293 -0.1388  1.6559  0.2353
   25SAPC  H15R 3323   2.781  -0.155   7.363  1.1286 -2.0616 -0.6623
   25SAPC  C216 3324   2.620  -0.292   7.298  0.8360 -0.4190  0.6028
   25SAPC  H16R 3325   2.622  -0.333   7.195 -3.7323 -0.1204  0.2016
   25SAPC  H16S 3326   2.519  -0.286   7.344  1.1844 -0.5779  1.4232
   25SAPC  C217 3327   2.698  -0.404   7.374 -0.4113 -0.3933  0.3469
   25SAPC  H17R 3328   2.807  -0.386   7.362 -0.8016  2.6610  0.5036
   25SAPC  H17S 3329   2.670  -0.502   7.330  0.8003 -0.6565  0.1043
   25SAPC  C218 3330   2.658  -0.408   7.523 -0.3660  0.4214  0.5675
   25SAPC  H18R 3331   2.548  -0.414   7.538 -0.3006  1.6230  1.7793
   25SAPC  H18S 3332   2.678  -0.316   7.583  2.1604 -0.1299  0.6973
   25SAPC  C219 3333   2.719  -0.527   7.601 -0.1146 -0.6179 -1.0846
   25SAPC  H19R 3334   2.829  -0.509   7.594 -0.0346 -1.4146 -2.2888
   25SAPC  H19S 3335   2.688  -0.623   7.556 -2.6654 -1.4468  2.0757
   25SAPC  C220 3336   2.690  -0.541   7.750 -0.4213  0.3160  0.7109
   25SAPC  H20R 3337   2.601  -0.492   7.796 -0.5759 -1.5989  2.6241
   25SAPC  H20S 3338   2.769  -0.496   7.813 -0.5229  0.3901  0.7871
   25SAPC  H20T 3339   2.674  -0.645   7.787 -0.8822  0.0582 -0.1916
   25SAPC   C33 3340   2.279   0.983   6.858 -0.0521 -0.0767 -0.1663
   25SAPC   H3X 3341   2.228   1.081   6.866 -1.5513 -0.8253 -0.1004
   25SAPC   H3Y 3342   2.379   1.009   6.817  0.4229  1.0068  1.5891
   25SAPC   C34 3343   2.297   0.924   6.999  0.0659 -0.0525 -0.2953
   25SAPC   H4X 3344   2.332   0.818   6.993 -1.6944 -0.5996 -2.2861
   25SAPC   H4Y 3345   2.196   0.926   7.046  0.8942  3.5628  1.6940
   25SAPC   C35 3346   2.396   1.000   7.088 -0.5040 -0.5747 -0.0979
   25SAPC   H5X 3347   2.358   1.101   7.116 -1.4915 -0.2428 -2.4416
   25SAPC   H5Y 3348   2.488   1.012   7.028  0.9994  0.6624  2.2738
   25SAPC   C36 3349   2.431   0.911   7.209 -0.6427  0.2120 -0.4236
   25SAPC   H6X 3350   2.473   0.815   7.173  0.8345  0.3648  0.7981
   25SAPC   H6Y 3351   2.335   0.900   7.263  0.3860 -1.5795  1.1817
   25SAPC   C37 3352   2.529   0.972   7.306 -0.3110  0.3918  0.1015
   25SAPC   H7X 3353   2.509   1.080   7.325 -1.0676  0.2063  0.3998
   25SAPC   H7Y 3354   2.628   0.970   7.256 -1.1136 -1.3111 -1.5266
   25SAPC   C38 3355   2.516   0.905   7.438 -0.2957 -0.3403 -0.0444
   25SAPC   H8X 3356   2.540   0.797   7.429  2.5764  0.1300  0.9534
   25SAPC   H8Y 3357   2.417   0.933   7.481  0.4440  0.1294  1.4094
   25SAPC   C39 3358   2.613   0.965   7.538 -0.4113  0.1160 -0.2138
   25SAPC   H9X 3359   2.593   1.075   7.536  0.3682  0.2640 -2.1152
   25SAPC   H9Y 3360   2.718   0.950   7.508 -0.4126  2.0497 -1.3836
   25SAPC  C310 3361   2.589   0.915   7.683  0.0440  0.5409  0.3500
   25SAPC  H10X 3362   2.569   0.806   7.684  1.9209  0.1537  1.4743
   25SAPC  H10Y 3363   2.492   0.950   7.724 -1.6360 -2.0201 -1.1627
   25SAPC  C311 3364   2.693   0.958   7.775 -0.1697 -0.0730 -0.2011
   25SAPC  H11X 3365   2.697   1.068   7.766 -1.1244  0.0534  0.7423
   25SAPC  H11Y 3366   2.795   0.922   7.748 -0.4699 -0.0585 -1.4186
   25SAPC  C312 3367   2.674   0.907   7.920  0.4526  0.5240  0.3130
   25SAPC  H12X 3368   2.726   0.812   7.947  1.4861  1.0497  0.2407
   25SAPC  H12Y 3369   2.565   0.899   7.935 -0.3728  1.7444 -3.7188
   25SAPC  C313 3370   2.729   1.010   8.019 -0.0159  0.5757  0.1251
   25SAPC  H13X 3371   2.681   0.983   8.115 -3.0437  1.5123 -0.9822
   25SAPC  H13Y 3372   2.682   1.103   7.980  0.9326  0.5457 -1.1604
   25SAPC  C314 3373   2.882   1.012   8.041  0.5358 -0.1594  0.3120
   25SAPC  H14X 3374   2.908   1.103   8.099  3.1468 -1.8752  2.0447
   25SAPC  H14Y 3375   2.926   1.024   7.940 -0.5542 -0.2892 -0.1880
   25SAPC  C315 3376   2.925   0.887   8.121 -0.1468  0.2081 -0.5528
   25SAPC  H15X 3377   2.896   0.800   8.058 -2.1748  1.6372 -1.6931
   25SAPC  H15Y 3378   2.863   0.878   8.213 -2.6461  0.0018 -2.1622
   25SAPC  C316 3379   3.071   0.893   8.171 -0.1070  0.4383 -0.1214
   25SAPC  H16X 3380   3.137   0.917   8.084 -1.2505  0.7964 -0.9105
   25SAPC  H16Y 3381   3.101   0.794   8.211  2.9528  0.9631 -0.8585
   25SAPC  C317 3382   3.096   0.999   8.275  0.1051  0.0507  0.4720
   25SAPC  H17X 3383   3.024   0.985   8.360 -1.5758 -0.2410 -0.9367
   25SAPC  H17Y 3384   3.085   1.097   8.225 -1.3563  0.2780  1.1754
   25SAPC  C318 3385   3.234   0.982   8.333 -0.4765  0.4275 -0.0599
   25SAPC  H18X 3386   3.251   1.051   8.418 -2.5505  1.4727 -0.4322
   25SAPC  H18Y 3387   3.317   0.999   8.261 -1.3941 -0.6928 -1.4251
   25SAPC  H18Z 3388   3.243   0.881   8.379 -2.8146  0.8359  1.4679
   26SAPC     N 3389   3.494   1.351   6.062 -0.1617  0.4832  0.0218
   26SAPC   C12 3390   3.599   1.266   5.988  0.6456 -0.2006  0.1915
   26SAPC  H12A 3391   3.674   1.332   5.946 -2.3204  3.3011 -0.0487
   26SAPC  H12B 3392   3.547   1.227   5.902 -1.0747  0.7709  0.7373
   26SAPC   C13 3393   3.471   1.478   5.987 -0.0911 -0.5361  0.2465
   26SAPC  H13A 3394   3.562   1.531   5.965 -0.5048  0.1468  0.1654
   26SAPC  H13B 3395   3.421   1.461   5.893  0.3214  1.9608 -0.4884
   26SAPC  H13C 3396   3.407   1.547   6.040 -0.7109 -0.3895 -0.6650
   26SAPC   C14 3397   3.362   1.282   6.077  0.2379 -0.6380 -1.0689
   26SAPC  H14A 3398   3.386   1.185   6.117  2.8815  0.1002 -0.6620
   26SAPC  H14B 3399   3.295   1.338   6.141 -0.6563 -1.9926 -0.7700
   26SAPC  H14C 3400   3.313   1.263   5.983  2.0310 -2.7736 -1.6709
   26SAPC   C15 3401   3.534   1.377   6.204  0.1432 -0.2824 -0.4688
   26SAPC  H15A 3402   3.550   1.278   6.244 -0.5441 -0.1518  0.1404
   26SAPC  H15B 3403   3.621   1.438   6.223 -0.7547  0.6359  0.8829
   26SAPC  H15C 3404   3.448   1.419   6.253  0.9729  0.4848  0.3728
   26SAPC   C11 3405   3.672   1.150   6.068 -0.2023  0.4895 -0.2014
   26SAPC  H11A 3406   3.758   1.203   6.115  0.8144 -0.7978 -0.5453
   26SAPC  H11B 3407   3.718   1.078   5.997  1.1529 -0.5972  1.6912
   26SAPC     P 3408   3.606   1.001   6.281 -0.0313 -0.2015 -0.0271
   26SAPC   O13 3409   3.477   0.941   6.318  0.1120  0.1070 -1.0190
   26SAPC   O14 3410   3.717   0.907   6.253 -0.0922 -0.0384 -0.0408
   26SAPC   O12 3411   3.582   1.099   6.164 -0.6851 -0.0986 -0.1406
   26SAPC   O11 3412   3.662   1.094   6.399  0.3611 -0.8204  0.6945
   26SAPC    C1 3413   3.582   1.183   6.469  0.9665 -0.6397  0.4348
   26SAPC    HA 3414   3.648   1.272   6.481 -1.0491  1.0119 -0.1147
   26SAPC    HB 3415   3.487   1.201   6.415  1.3652 -1.7947 -0.6999
   26SAPC    C2 3416   3.554   1.144   6.620  0.7774  0.2562  0.2976
   26SAPC    HS 3417   3.444   1.148   6.634  0.4576 -0.9525 -1.5479
   26SAPC   O21 3418   3.623   1.224   6.718  0.0849  0.2004 -0.2416
   26SAPC   C21 3419   3.597   1.356   6.724  0.4725 -0.0379 -0.1634
   26SAPC   O22 3420   3.498   1.405   6.672  0.3504  0.2930 -0.4443
   26SAPC   C22 3421   3.703   1.432   6.811  0.1585  0.5489 -0.3539
   26SAPC   H2R 3422   3.775   1.354   6.843  0.8684  1.2488 -0.2007
   26SAPC   H2S 3423   3.755   1.505   6.745  1.6826 -0.1105  0.0623
   26SAPC    C3 3424   3.590   0.995   6.648  0.4646 -0.1008  0.2882
   26SAPC    HX 3425   3.697   0.977   6.622  0.3565 -0.3045 -0.0252
   26SAPC    HY 3426   3.536   0.933   6.573  1.1422 -0.9376  0.4764
   26SAPC   O31 3427   3.548   0.957   6.779  0.1792 -0.4273  0.4589
   26SAPC   C31 3428   3.642   0.967   6.870 -0.3725  0.6631  0.4169
   26SAPC   O32 3429   3.759   0.985   6.845 -0.2967  0.3348  0.1395
   26SAPC   C32 3430   3.591   0.943   7.015  0.1705 -0.1220 -0.4596
   26SAPC   H2X 3431   3.493   0.893   6.998 -1.0176  2.0257 -0.2679
   26SAPC   H2Y 3432   3.573   1.047   7.050 -0.9307 -0.4494  0.0256
   26SAPC   C23 3433   3.658   1.494   6.948 -0.5356  0.4439  0.2855
   26SAPC   H3R 3434   3.575   1.565   6.926  0.0901  0.5456 -1.9650
   26SAPC   H3S 3435   3.746   1.548   6.989 -0.1753 -0.5227  0.8168
   26SAPC   C24 3436   3.606   1.381   7.046 -0.0681  0.2838 -0.3131
   26SAPC   H4R 3437   3.522   1.320   7.004  1.2667 -0.5845 -1.8310
   26SAPC   H4S 3438   3.561   1.441   7.128  1.6378 -0.0656  0.9257
   26SAPC   C25 3439   3.704   1.281   7.108 -0.0481 -0.0837  0.2227
   26SAPC   H5R 3440   3.785   1.243   7.045  0.8621 -2.7257  2.7502
   26SAPC   C26 3441   3.720   1.249   7.239 -0.4490 -0.1164  1.4912
   26SAPC   H6R 3442   3.799   1.177   7.264 -2.7263 -2.9494  1.0455
   26SAPC   C27 3443   3.654   1.308   7.356  0.5247  0.0468 -0.4300
   26SAPC   H7R 3444   3.636   1.227   7.429 -0.1470  1.6878  1.2856
   26SAPC   H7S 3445   3.559   1.360   7.330 -0.5476 -1.3541  0.5438
   26SAPC   C28 3446   3.745   1.417   7.421  0.3492  0.0477 -0.4226
   26SAPC   H8R 3447   3.774   1.496   7.350  0.8718 -0.8603 -1.2466
   26SAPC   C29 3448   3.771   1.432   7.549 -0.2893  0.0826  0.0222
   26SAPC   H9R 3449   3.840   1.511   7.582  0.6890 -0.8410  0.2351
   26SAPC  C210 3450   3.710   1.355   7.660  0.1967 -0.1287 -0.3527
   26SAPC  H10R 3451   3.603   1.334   7.635 -1.4301  3.4653  2.5577
   26SAPC  H10S 3452   3.696   1.423   7.747  1.7334 -0.2824  0.0348
   26SAPC  C211 3453   3.774   1.229   7.717  0.1164 -0.6176 -0.2625
   26SAPC  H11R 3454   3.757   1.150   7.643 -0.8257  1.4872 -2.4372
   26SAPC  C212 3455   3.820   1.197   7.836  0.2717 -0.1026  0.0412
   26SAPC  H12R 3456   3.880   1.104   7.839  0.2635 -0.1767 -1.3705
   26SAPC  C213 3457   3.825   1.277   7.963 -0.0656 -0.0529  0.4952
   26SAPC  H13R 3458   3.728   1.270   8.016  0.4317 -2.5613  1.1778
   26SAPC  H13S 3459   3.836   1.387   7.953 -0.5198  0.2841  3.0030
   26SAPC  C214 3460   3.936   1.213   8.048  0.0834 -0.3434 -0.2367
   26SAPC  H14R 3461   4.002   1.137   8.003 -1.1606 -1.1309 -0.8221
   26SAPC  C215 3462   3.961   1.240   8.178  0.2734  0.3723 -0.0943
   26SAPC  H15R 3463   4.028   1.174   8.237  2.4148  1.3617 -1.3034
   26SAPC  C216 3464   3.879   1.330   8.263  0.0324 -0.1041 -0.7209
   26SAPC  H16R 3465   3.784   1.353   8.211 -1.0103 -1.4604  0.5337
   26SAPC  H16S 3466   3.916   1.435   8.261  0.7831 -0.3519 -0.2742
   26SAPC  C217 3467   3.839   1.289   8.403  1.0861  0.3565  0.1986
   26SAPC  H17R 3468   3.761   1.359   8.442  0.6381  0.4520 -0.8410
   26SAPC  H17S 3469   3.925   1.292   8.474 -0.9882  2.9472  2.9099
   26SAPC  C218 3470   3.784   1.151   8.420  0.3307  0.0399 -0.0906
   26SAPC  H18R 3471   3.865   1.077   8.401 -0.0108 -0.0365 -1.2908
   26SAPC  H18S 3472   3.713   1.124   8.339  2.5601 -1.3202 -1.7251
   26SAPC  C219 3473   3.724   1.127   8.557 -0.6415 -0.1867 -0.1577
   26SAPC  H19R 3474   3.641   1.198   8.580  1.1950  2.1108 -0.1830
   26SAPC  H19S 3475   3.807   1.142   8.629  0.4542 -0.2485 -1.3613
   26SAPC  C220 3476   3.671   0.985   8.571  0.6106 -0.5960 -0.3356
   26SAPC  H20R 3477   3.577   0.977   8.512 -0.2726  3.7027  0.1526
   26SAPC  H20S 3478   3.649   0.958   8.676  0.6341  2.2530  0.4766
   26SAPC  H20T 3479   3.749   0.916   8.531  0.1336 -1.3525  0.0305
   26SAPC   C33 3480   3.686   0.880   7.123 -0.1975  0.3948  0.3052
   26SAPC   H3X 3481   3.788   0.922   7.109 -1.4901  2.6642 -4.1112
   26SAPC   H3Y 3482   3.695   0.771   7.102  0.8332 -0.3605  3.9439
   26SAPC   C34 3483   3.626   0.904   7.262 -0.7145  0.7522  0.1316
   26SAPC   H4X 3484   3.518   0.878   7.266 -0.7116 -0.5943 -4.1505
   26SAPC   H4Y 3485   3.657   1.005   7.299 -0.1753 -0.5032  3.4578
   26SAPC   C35 3486   3.671   0.788   7.359 -0.2103  0.1569 -0.0443
   26SAPC   H5X 3487   3.779   0.808   7.375  0.0274  0.9752 -2.2956
   26SAPC   H5Y 3488   3.654   0.693   7.306 -0.5209  0.3567 -0.3014
   26SAPC   C36 3489   3.594   0.779   7.494  0.0647 -0.2278 -0.4422
   26SAPC   H6X 3490   3.491   0.736   7.493 -0.0882  0.1386 -0.6194
   26SAPC   H6Y 3491   3.576   0.886   7.518 -0.7110  0.1106 -2.3563
   26SAPC   C37 3492   3.680   0.692   7.594  0.5154 -0.1288 -0.3482
   26SAPC   H7X 3493   3.781   0.738   7.604  0.5495 -0.1144 -0.7422
   26SAPC   H7Y 3494   3.691   0.589   7.553 -2.4233 -1.7222  2.4513
   26SAPC   C38 3495   3.618   0.672   7.733 -0.2724 -0.3830 -0.2520
   26SAPC   H8X 3496   3.521   0.617   7.733 -1.1500  1.1098  0.1847
   26SAPC   H8Y 3497   3.590   0.772   7.772 -0.2157 -1.1927  1.9702
   26SAPC   C39 3498   3.701   0.595   7.842 -0.0403  0.2020  0.1997
   26SAPC   H9X 3499   3.809   0.621   7.844  0.4280 -1.5904  0.2187
   26SAPC   H9Y 3500   3.703   0.494   7.795  0.9937  0.5773 -0.5946
   26SAPC  C310 3501   3.632   0.601   7.977 -1.0040  0.5883  0.9086
   26SAPC  H10X 3502   3.655   0.511   8.037 -4.7920 -0.1666  1.5170
   26SAPC  H10Y 3503   3.522   0.584   7.971 -0.8380 -0.5294  0.7730
   26SAPC  C311 3504   3.675   0.724   8.059  0.1112  0.8435 -0.1024
   26SAPC  H11X 3505   3.652   0.816   8.002  0.5283  1.8637  1.3270
   26SAPC  H11Y 3506   3.784   0.712   8.075  0.4922  2.7489 -1.0488
   26SAPC  C312 3507   3.600   0.722   8.189 -0.5222  0.2066 -0.6809
   26SAPC  H12X 3508   3.490   0.731   8.171 -0.3579  0.2001 -1.7606
   26SAPC  H12Y 3509   3.623   0.813   8.248  0.0535 -0.8457  0.8015
   26SAPC  C313 3510   3.621   0.607   8.281  0.3560  0.4173  1.0992
   26SAPC  H13X 3511   3.731   0.603   8.295  0.2776 -2.7940  1.6223
   26SAPC  H13Y 3512   3.581   0.519   8.225  0.4393  0.1147  1.5106
   26SAPC  C314 3513   3.554   0.613   8.417  1.3062  0.4286 -0.5415
   26SAPC  H14X 3514   3.447   0.642   8.407  0.5709 -1.1229  1.9363
   26SAPC  H14Y 3515   3.592   0.700   8.475 -0.2745  0.5354  0.4052
   26SAPC  C315 3516   3.548   0.484   8.493 -0.0013  0.1766  0.0504
   26SAPC  H15X 3517   3.539   0.388   8.438  1.3462  0.2402 -0.3288
   26SAPC  H15Y 3518   3.463   0.492   8.564  0.4756  0.3270  0.6079
   26SAPC  C316 3519   3.688   0.470   8.570  0.1967  0.3766 -0.2075
   26SAPC  H16X 3520   3.698   0.561   8.635 -1.6735  2.3762 -2.5455
   26SAPC  H16Y 3521   3.765   0.470   8.490 -0.7475  0.3328 -1.1210
   26SAPC  C317 3522   3.695   0.350   8.659  0.3517  0.2298  0.2913
   26SAPC  H17X 3523   3.682   0.256   8.601  2.4207 -1.3016  2.1540
   26SAPC  H17Y 3524   3.613   0.368   8.732 -0.2466  0.0182 -0.3152
   26SAPC  C318 3525   3.826   0.331   8.735  0.2134  0.0465 -0.0287
   26SAPC  H18X 3526   3.820   0.252   8.812 -0.6382  1.2787  1.2199
   26SAPC  H18Y 3527   3.858   0.421   8.791 -2.3657  0.2504  1.2699
   26SAPC  H18Z 3528   3.903   0.303   8.660  0.3863 -0.6841  0.4119
   27SAPC     N 3529   6.328   2.871   6.703 -0.2317 -0.1926 -0.4153
   27SAPC   C12 3530   6.347   2.963   6.822 -0.7414 -0.4617 -0.1398
   27SAPC  H12A 3531   6.400   3.056   6.803 -1.4716  0.1251  0.6123
   27SAPC  H12B 3532   6.414   2.917   6.893 -0.5740  1.0538  0.7304
   27SAPC   C13 3533   6.235   2.924   6.604  0.1895  0.2937  0.0522
   27SAPC  H13A 3534   6.256   3.025   6.573  0.7270  0.8544  2.0973
   27SAPC  H13B 3535   6.226   2.868   6.513 -1.8805  2.0710 -0.9405
   27SAPC  H13C 3536   6.137   2.945   6.644 -0.1620 -1.4527  0.1898
   27SAPC   C14 3537   6.455   2.838   6.625 -0.0542  0.2791 -0.2365
   27SAPC  H14A 3538   6.508   2.929   6.600 -1.5312  0.9751 -0.9421
   27SAPC  H14B 3539   6.523   2.777   6.683 -1.3426 -1.2677 -0.2711
   27SAPC  H14C 3540   6.439   2.792   6.529  0.9670 -0.7815  0.0719
   27SAPC   C15 3541   6.265   2.746   6.754  0.1269  0.1129  0.1576
   27SAPC  H15A 3542   6.312   2.702   6.841  0.2094 -1.5944 -0.7181
   27SAPC  H15B 3543   6.163   2.775   6.774  0.0835  0.6269 -0.7549
   27SAPC  H15C 3544   6.265   2.664   6.684  3.3842 -0.7939  1.0499
   27SAPC   C11 3545   6.218   2.995   6.911 -0.2041  0.3163 -0.5975
   27SAPC  H11A 3546   6.246   3.039   7.009 -0.5884  0.5606 -0.5986
   27SAPC  H11B 3547   6.178   2.894   6.938 -0.8996  0.7447  0.0179
   27SAPC     P 3548   6.119   3.225   6.843  0.2873  0.1891  0.1825
   27SAPC   O13 3549   6.238   3.268   6.919  0.3420 -0.2658 -0.0866
   27SAPC   O14 3550   6.092   3.273   6.708 -1.0051 -0.1450 -0.2526
   27SAPC   O12 3551   6.115   3.065   6.843  0.5536 -0.1731  0.0293
   27SAPC   O11 3552   5.996   3.271   6.928  0.4958 -0.2245 -0.1904
   27SAPC    C1 3553   5.933   3.184   7.012  0.6831 -0.5317 -0.5832
   27SAPC    HA 3554   5.830   3.162   6.976 -0.2306 -0.1466  1.5977
   27SAPC    HB 3555   5.980   3.087   7.036 -1.0546 -0.8034  2.2598
   27SAPC    C2 3556   5.918   3.244   7.164  0.5168 -0.3676  0.3354
   27SAPC    HS 3557   5.857   3.173   7.225 -2.0028  0.5622 -0.9563
   27SAPC   O21 3558   5.843   3.366   7.175 -0.2808 -0.5949  0.3889
   27SAPC   C21 3559   5.718   3.357   7.142 -0.2885 -0.0967 -0.5593
   27SAPC   O22 3560   5.665   3.253   7.105 -0.3312 -0.0359 -0.2621
   27SAPC   C22 3561   5.646   3.487   7.165  0.5998  0.8128  0.1335
   27SAPC   H2R 3562   5.715   3.557   7.218  0.4040  1.6190 -0.6539
   27SAPC   H2S 3563   5.627   3.539   7.069 -1.7876 -1.2791 -0.6339
   27SAPC    C3 3564   6.061   3.261   7.222  0.0883  0.0882  0.4198
   27SAPC    HX 3565   6.060   3.312   7.321 -0.1255  0.8397  0.0363
   27SAPC    HY 3566   6.115   3.332   7.157 -0.9294  2.1925  1.7551
   27SAPC   O31 3567   6.128   3.137   7.234  0.4238  0.1174 -0.0204
   27SAPC   C31 3568   6.087   3.048   7.327  0.0899 -0.3377  0.2430
   27SAPC   O32 3569   5.987   3.064   7.397 -0.7492  0.0869  0.2193
   27SAPC   C32 3570   6.181   2.933   7.304 -0.7934 -0.3843 -0.0306
   27SAPC   H2X 3571   6.283   2.970   7.280 -1.2295  1.5596  0.9356
   27SAPC   H2Y 3572   6.146   2.873   7.218  1.4998 -1.6622 -0.1346
   27SAPC   C23 3573   5.514   3.473   7.247 -0.8329  0.3775  0.2001
   27SAPC   H3R 3574   5.429   3.422   7.195 -1.2344 -1.0911  2.1905
   27SAPC   H3S 3575   5.482   3.576   7.274 -0.5083  0.3839  0.5626
   27SAPC   C24 3576   5.528   3.400   7.385 -0.0602  0.3414  0.1988
   27SAPC   H4R 3577   5.556   3.294   7.368  0.8108  0.4406  0.9583
   27SAPC   H4S 3578   5.424   3.401   7.423 -0.3460 -1.1406 -0.4591
   27SAPC   C25 3579   5.619   3.469   7.481 -0.8999 -0.6700 -0.2089
   27SAPC   H5R 3580   5.667   3.558   7.438 -2.1275  0.4196  0.5968
   27SAPC   C26 3581   5.668   3.416   7.597 -0.2761 -0.3705 -0.4837
   27SAPC   H6R 3582   5.742   3.479   7.649 -0.4802  0.4392 -1.1606
   27SAPC   C27 3583   5.635   3.276   7.663  0.1208  0.1461  0.1109
   27SAPC   H7R 3584   5.534   3.239   7.638 -0.7822  0.1554  3.3573
   27SAPC   H7S 3585   5.621   3.289   7.772 -1.4723 -0.2922 -0.0227
   27SAPC   C28 3586   5.754   3.182   7.633 -0.3820  0.4907 -0.6661
   27SAPC   H8R 3587   5.825   3.214   7.555  1.6592  0.8029  1.2092
   27SAPC   C29 3588   5.780   3.073   7.706  0.8451 -0.2853  0.4255
   27SAPC   H9R 3589   5.860   3.008   7.668  1.1353 -0.6358  1.5702
   27SAPC  C210 3590   5.691   3.020   7.818 -0.5841  0.8336  0.1938
   27SAPC  H10R 3591   5.679   2.914   7.786  1.3801 -0.0242  2.0226
   27SAPC  H10S 3592   5.589   3.063   7.822 -0.7135  0.9567 -2.5735
   27SAPC  C211 3593   5.765   3.036   7.947  0.4217 -0.2673 -0.3058
   27SAPC  H11R 3594   5.790   3.139   7.976 -0.3139  0.2501 -1.4313
   27SAPC  C212 3595   5.812   2.936   8.019 -0.1511  0.3526  1.3706
   27SAPC  H12R 3596   5.880   2.950   8.104  0.5487 -0.7418  1.0051
   27SAPC  C213 3597   5.803   2.785   7.990  0.8892 -0.9858 -0.0919
   27SAPC  H13R 3598   5.898   2.733   8.013 -0.5785 -3.9762 -0.3185
   27SAPC  H13S 3599   5.794   2.773   7.880  1.4904 -0.9894 -0.1442
   27SAPC  C214 3600   5.689   2.710   8.060  0.5923  0.0060 -0.0100
   27SAPC  H14R 3601   5.587   2.727   8.023  0.5559 -1.7075 -0.7971
   27SAPC  C215 3602   5.703   2.629   8.166 -0.0355 -0.2090 -0.8915
   27SAPC  H15R 3603   5.618   2.566   8.195  1.0560 -1.8460 -1.1366
   27SAPC  C216 3604   5.831   2.588   8.235  0.1698  0.2603  0.0452
   27SAPC  H16R 3605   5.910   2.593   8.158  0.5558  1.9668  0.5083
   27SAPC  H16S 3606   5.810   2.485   8.273  0.7415  0.0512 -0.2082
   27SAPC  C217 3607   5.884   2.667   8.359 -0.1517 -0.1681 -0.7483
   27SAPC  H17R 3608   5.916   2.768   8.324  1.5214 -0.7898 -1.0724
   27SAPC  H17S 3609   5.976   2.614   8.391  1.3806  3.0861  0.7826
   27SAPC  C218 3610   5.792   2.679   8.482  0.3534  0.2489 -0.1429
   27SAPC  H18R 3611   5.708   2.750   8.469 -0.5832 -0.5086  1.4902
   27SAPC  H18S 3612   5.857   2.727   8.559 -1.5109  2.0331  0.3927
   27SAPC  C219 3613   5.741   2.541   8.542  0.3171  0.3086 -0.0150
   27SAPC  H19R 3614   5.829   2.476   8.558 -0.2155 -0.7995 -1.3590
   27SAPC  H19S 3615   5.674   2.494   8.467  1.4253 -0.1411 -0.7515
   27SAPC  C220 3616   5.665   2.556   8.676  0.4479  0.0924  0.1965
   27SAPC  H20R 3617   5.734   2.599   8.752  0.3329  1.7413 -0.5855
   27SAPC  H20S 3618   5.641   2.454   8.713 -0.4471  0.0331 -0.5112
   27SAPC  H20T 3619   5.572   2.617   8.673  0.8149  0.6912  0.7196
   27SAPC   C33 3620   6.206   2.833   7.427  0.8214 -1.0815  0.2153
   27SAPC   H3X 3621   6.233   2.891   7.519 -1.2401  0.3883 -0.0249
   27SAPC   H3Y 3622   6.288   2.759   7.418  2.0134 -0.0333  1.7638
   27SAPC   C34 3623   6.081   2.739   7.441 -0.0208 -0.0568 -0.0930
   27SAPC   H4X 3624   6.064   2.678   7.351 -0.3993  0.4553 -0.3749
   27SAPC   H4Y 3625   5.988   2.789   7.476 -0.2032 -0.6809  0.3264
   27SAPC   C35 3626   6.117   2.629   7.545 -1.0498  0.7130  0.4119
   27SAPC   H5X 3627   6.205   2.577   7.500 -0.1030  0.5163  2.3854
   27SAPC   H5Y 3628   6.042   2.547   7.540 -1.5711  1.2434 -1.0646
   27SAPC   C36 3629   6.155   2.679   7.691 -0.6781  0.0754 -0.0592
   27SAPC   H6X 3630   6.079   2.748   7.732 -1.0286 -0.3154 -0.0469
   27SAPC   H6Y 3631   6.257   2.723   7.687 -1.3900  1.6420 -2.5097
   27SAPC   C37 3632   6.149   2.566   7.792 -0.4608 -1.1736 -0.2363
   27SAPC   H7X 3633   6.199   2.469   7.772  0.6875 -1.1508  2.1965
   27SAPC   H7Y 3634   6.040   2.548   7.804 -0.5515  0.4146  1.9876
   27SAPC   C38 3635   6.200   2.616   7.930 -0.0458 -0.5157  0.0080
   27SAPC   H8X 3636   6.128   2.692   7.968  0.3235 -0.7603  1.2536
   27SAPC   H8Y 3637   6.297   2.667   7.908 -0.1002 -0.0849  0.7483
   27SAPC   C39 3638   6.243   2.502   8.023 -0.8851 -0.0843 -0.5645
   27SAPC   H9X 3639   6.293   2.420   7.968  1.5497  0.5535  0.5689
   27SAPC   H9Y 3640   6.151   2.462   8.072 -0.0963 -0.5294  0.6265
   27SAPC  C310 3641   6.335   2.557   8.137  0.1718  0.0208  0.1279
   27SAPC  H10X 3642   6.282   2.645   8.179  1.2752 -0.1351  1.9599
   27SAPC  H10Y 3643   6.428   2.593   8.089 -0.9807 -1.1165 -3.2113
   27SAPC  C311 3644   6.372   2.453   8.243 -0.6468  0.3656  0.5855
   27SAPC  H11X 3645   6.434   2.495   8.325  2.0945 -0.1841 -1.1114
   27SAPC  H11Y 3646   6.431   2.372   8.196 -0.5425  0.6508  0.2199
   27SAPC  C312 3647   6.255   2.386   8.329 -0.0456 -0.3016  0.0487
   27SAPC  H12X 3648   6.192   2.336   8.253  0.1299  0.1281 -0.3839
   27SAPC  H12Y 3649   6.191   2.473   8.357  0.4140  0.7238 -1.8996
   27SAPC  C313 3650   6.286   2.288   8.441 -0.9072  0.6049  0.9437
   27SAPC  H13X 3651   6.352   2.208   8.401 -1.0345  1.7205 -1.6958
   27SAPC  H13Y 3652   6.188   2.245   8.467 -1.5680  1.8837  0.6738
   27SAPC  C314 3653   6.352   2.339   8.572 -0.3798  0.1497 -0.4493
   27SAPC  H14X 3654   6.451   2.384   8.549 -1.2164  1.0197 -2.5859
   27SAPC  H14Y 3655   6.361   2.255   8.645 -0.4650  1.3487  0.9913
   27SAPC  C315 3656   6.262   2.424   8.659 -0.2799  0.2566  0.1184
   27SAPC  H15X 3657   6.167   2.374   8.686  1.2161 -2.1883  1.2233
   27SAPC  H15Y 3658   6.245   2.514   8.596  0.0526  0.1104 -0.1853
   27SAPC  C316 3659   6.325   2.452   8.798  0.3589 -0.2292  0.4462
   27SAPC  H16X 3660   6.283   2.550   8.830  1.7980  0.7575 -0.5248
   27SAPC  H16Y 3661   6.432   2.481   8.784  0.1661  1.4607  1.9807
   27SAPC  C317 3662   6.307   2.342   8.897  0.2318  0.3986 -0.2448
   27SAPC  H17X 3663   6.356   2.244   8.877 -0.8960  0.0751 -1.5881
   27SAPC  H17Y 3664   6.201   2.308   8.890  0.6670 -1.3641  0.9109
   27SAPC  C318 3665   6.321   2.394   9.039 -0.6287 -0.9017 -0.1227
   27SAPC  H18X 3666   6.288   2.318   9.113  0.5840 -0.3069  1.0542
   27SAPC  H18Y 3667   6.267   2.491   9.042 -0.2292 -0.5313 -2.4536
   27SAPC  H18Z 3668   6.428   2.412   9.062 -0.8460  1.0690 -0.4754
   28SAPC     N 3669   5.838   5.621   6.326  0.4317 -0.3161 -0.0178
   28SAPC   C12 3670   5.947   5.518   6.338  0.4213  0.3634  0.0104
   28SAPC  H12A 3671   6.040   5.569   6.318  0.0534 -0.0463 -3.2868
   28SAPC  H12B 3672   5.929   5.446   6.260 -0.1283  2.2780 -1.7238
   28SAPC   C13 3673   5.878   5.730   6.424 -0.6438  0.0931 -0.4564
   28SAPC  H13A 3674   5.973   5.777   6.403 -1.8161  2.5959 -0.5005
   28SAPC  H13B 3675   5.800   5.805   6.424  0.9477  1.8306 -1.5399
   28SAPC  H13C 3676   5.880   5.682   6.521  0.5310 -1.5517 -1.2587
   28SAPC   C14 3677   5.843   5.679   6.190  0.1577  0.3546  0.0390
   28SAPC  H14A 3678   5.749   5.686   6.138  0.6645 -0.7925 -1.0957
   28SAPC  H14B 3679   5.874   5.782   6.199 -0.3130  0.5379 -0.3939
   28SAPC  H14C 3680   5.905   5.622   6.123  1.0799 -0.2458  1.3762
   28SAPC   C15 3681   5.699   5.565   6.351  0.1538 -0.4676 -0.4852
   28SAPC  H15A 3682   5.697   5.524   6.450 -1.7908  2.6536  0.9147
   28SAPC  H15B 3683   5.627   5.646   6.356 -0.9901 -1.5646  2.0373
   28SAPC  H15C 3684   5.677   5.504   6.264 -3.1095 -0.9014  0.5257
   28SAPC   C11 3685   5.957   5.449   6.474  0.0361 -0.5499  0.5854
   28SAPC  H11A 3686   6.001   5.348   6.458 -0.0370 -0.6479  0.9842
   28SAPC  H11B 3687   5.858   5.427   6.519  0.4610 -2.3382  0.7383
   28SAPC     P 3688   6.183   5.533   6.571  0.2483 -0.4750 -0.0128
   28SAPC   O13 3689   6.232   5.534   6.430  0.0856  0.2598  0.1804
   28SAPC   O14 3690   6.230   5.652   6.655 -0.1166  0.1643 -0.1778
   28SAPC   O12 3691   6.028   5.529   6.569 -0.3481  0.6858  0.6920
   28SAPC   O11 3692   6.221   5.391   6.626 -0.0443  0.2980 -0.2356
   28SAPC    C1 3693   6.167   5.332   6.744 -0.3192 -0.0063 -0.9049
   28SAPC    HA 3694   6.117   5.406   6.810 -1.2805  0.1707 -1.8143
   28SAPC    HB 3695   6.089   5.254   6.730 -0.3544 -0.5177  1.5844
   28SAPC    C2 3696   6.284   5.265   6.833  0.6360 -0.2627 -0.3523
   28SAPC    HS 3697   6.243   5.217   6.925  0.2166  0.7589  0.0096
   28SAPC   O21 3698   6.380   5.371   6.877  0.4537 -0.0762  0.0231
   28SAPC   C21 3699   6.337   5.437   6.983 -0.6943  0.6662  0.5364
   28SAPC   O22 3700   6.228   5.425   7.039  0.4160 -0.6283  0.2599
   28SAPC   C22 3701   6.451   5.522   7.025  0.2743  0.3853 -0.0971
   28SAPC   H2R 3702   6.503   5.482   7.115 -0.9028  1.6440  1.1903
   28SAPC   H2S 3703   6.532   5.530   6.949  1.3557 -0.3818  0.9260
   28SAPC    C3 3704   6.362   5.160   6.756  0.6015  0.2068  0.3962
   28SAPC    HX 3705   6.427   5.208   6.680  1.3270 -2.1701 -0.5978
   28SAPC    HY 3706   6.297   5.089   6.700  1.0905 -0.0178  0.0946
   28SAPC   O31 3707   6.423   5.077   6.857 -0.1718  0.2119 -0.1731
   28SAPC   C31 3708   6.520   5.006   6.807  1.0286 -0.2822  0.3983
   28SAPC   O32 3709   6.566   5.014   6.694  0.5746  0.3970  0.5913
   28SAPC   C32 3710   6.575   4.907   6.897 -0.0919 -0.4936 -0.2991
   28SAPC   H2X 3711   6.611   4.825   6.831 -0.3312 -1.1070  0.3132
   28SAPC   H2Y 3712   6.497   4.871   6.968 -1.0062  0.0550 -1.0035
   28SAPC   C23 3713   6.391   5.665   7.056 -0.2247  0.9504 -0.5232
   28SAPC   H3R 3714   6.310   5.658   7.132 -1.0209  1.7667 -1.2596
   28SAPC   H3S 3715   6.346   5.711   6.965 -0.4135  0.6247 -0.5944
   28SAPC   C24 3716   6.506   5.752   7.114  0.0327 -0.2302  0.1186
   28SAPC   H4R 3717   6.552   5.700   7.200  0.9874  0.5691  0.1141
   28SAPC   H4S 3718   6.586   5.761   7.036 -0.7907  1.1435 -0.6039
   28SAPC   C25 3719   6.449   5.888   7.146 -0.1406 -0.3298 -0.4314
   28SAPC   H5R 3720   6.397   5.941   7.065  1.7921  0.5921 -1.1375
   28SAPC   C26 3721   6.457   5.953   7.262 -0.6537 -0.8536 -0.1612
   28SAPC   H6R 3722   6.411   6.052   7.268  0.1836 -0.5413  2.5050
   28SAPC   C27 3723   6.538   5.904   7.386 -0.6602  0.0481  0.0668
   28SAPC   H7R 3724   6.617   5.979   7.408  1.5643 -2.1643  0.1132
   28SAPC   H7S 3725   6.581   5.802   7.379  2.8610  1.0785  3.5813
   28SAPC   C28 3726   6.445   5.897   7.505  0.6065 -0.1997  0.9175
   28SAPC   H8R 3727   6.340   5.873   7.487  1.0986 -1.2124 -0.9661
   28SAPC   C29 3728   6.481   5.919   7.628  0.6362 -0.4694 -0.5482
   28SAPC   H9R 3729   6.409   5.905   7.710  1.7176  1.0676  0.7365
   28SAPC  C210 3730   6.614   5.959   7.683  0.4607  0.0082 -0.2904
   28SAPC  H10R 3731   6.665   6.024   7.610  0.5791 -2.2048 -2.3136
   28SAPC  H10S 3732   6.678   5.868   7.692  0.9999  0.5506  2.2671
   28SAPC  C211 3733   6.613   6.023   7.823  0.0770  0.0305 -0.3104
   28SAPC  H11R 3734   6.591   6.131   7.818  2.2046  0.5210 -0.4532
   28SAPC  C212 3735   6.630   5.978   7.945 -0.3196  0.2955 -0.2428
   28SAPC  H12R 3736   6.657   6.045   8.028  0.8632 -0.6595  0.1800
   28SAPC  C213 3737   6.648   5.834   7.982 -0.2306 -0.3452  0.5017
   28SAPC  H13R 3738   6.723   5.817   8.063  1.5303 -1.0302 -1.1885
   28SAPC  H13S 3739   6.702   5.781   7.900 -1.8081  0.5409 -1.1786
   28SAPC  C214 3740   6.515   5.771   8.020  0.9737  0.6114 -0.6154
   28SAPC  H14R 3741   6.433   5.776   7.946 -0.2926  0.8265  0.7447
   28SAPC  C215 3742   6.487   5.731   8.142  0.1619  1.0371 -0.0561
   28SAPC  H15R 3743   6.391   5.683   8.164  0.6479 -0.7445 -1.6126
   28SAPC  C216 3744   6.585   5.720   8.250 -0.0961 -0.6750 -0.5768
   28SAPC  H16R 3745   6.536   5.740   8.348  1.2487 -1.3444  0.2644
   28SAPC  H16S 3746   6.663   5.798   8.241 -2.0511  1.3130 -1.0972
   28SAPC  C217 3747   6.661   5.593   8.256  0.1189  0.8435 -0.8019
   28SAPC  H17R 3748   6.723   5.571   8.167  0.3097 -0.4266 -0.3780
   28SAPC  H17S 3749   6.603   5.500   8.277  1.7628 -0.3486 -1.3715
   28SAPC  C218 3750   6.759   5.589   8.377 -0.2957 -0.3447  0.2074
   28SAPC  H18R 3751   6.826   5.678   8.372 -1.8248  1.0202  2.3210
   28SAPC  H18S 3752   6.834   5.508   8.366 -2.8571 -3.0562  1.4815
   28SAPC  C219 3753   6.696   5.594   8.516 -0.0682 -0.0914  0.2226
   28SAPC  H19R 3754   6.634   5.684   8.535  1.2395  0.7120  0.8111
   28SAPC  H19S 3755   6.775   5.618   8.590 -3.1293  2.6713  2.9480
   28SAPC  C220 3756   6.637   5.459   8.570 -0.1277  0.0598 -0.3014
   28SAPC  H20R 3757   6.707   5.376   8.544  1.0358  0.3413  1.7442
   28SAPC  H20S 3758   6.543   5.445   8.513 -0.3511  1.8962 -0.4378
   28SAPC  H20T 3759   6.617   5.465   8.679  0.5829  1.2107 -0.2166
   28SAPC   C33 3760   6.696   4.968   6.975 -0.1444  0.4121  0.6036
   28SAPC   H3X 3761   6.661   5.016   7.068  0.8772 -0.3491  1.3991
   28SAPC   H3Y 3762   6.752   5.045   6.918  1.0915 -0.1062  1.0854
   28SAPC   C34 3763   6.787   4.857   7.020  0.8706 -0.2066  0.3617
   28SAPC   H4X 3764   6.840   4.818   6.930 -1.3758 -2.0903 -0.2451
   28SAPC   H4Y 3765   6.724   4.775   7.061 -2.0347  1.5734 -0.1915
   28SAPC   C35 3766   6.899   4.909   7.117  0.2255 -0.0450  0.0657
   28SAPC   H5X 3767   6.951   4.983   7.053  2.3109 -2.3927 -1.1329
   28SAPC   H5Y 3768   6.967   4.824   7.141 -0.9726 -1.8185 -2.3241
   28SAPC   C36 3769   6.845   4.963   7.255  0.1239 -0.3498  0.2957
   28SAPC   H6X 3770   6.787   5.055   7.234  1.8894  0.8644  0.5995
   28SAPC   H6Y 3771   6.940   4.968   7.311 -0.9852 -1.5355  2.4214
   28SAPC   C37 3772   6.778   4.867   7.353 -0.2355  0.6803  0.3819
   28SAPC   H7X 3773   6.830   4.769   7.347  0.1976  0.8084  1.7760
   28SAPC   H7Y 3774   6.673   4.844   7.326 -0.7529  1.4773  1.6657
   28SAPC   C38 3775   6.777   4.919   7.496  0.3921 -0.0728  0.5862
   28SAPC   H8X 3776   6.746   5.025   7.496  1.5422  0.2818  1.6873
   28SAPC   H8Y 3777   6.878   4.917   7.542  1.5583 -0.7991 -1.8336
   28SAPC   C39 3778   6.664   4.859   7.584 -0.3398 -0.1613 -0.0857
   28SAPC   H9X 3779   6.677   4.750   7.600 -0.2545 -0.0262  0.8380
   28SAPC   H9Y 3780   6.572   4.880   7.525 -0.7792 -0.0118  0.6270
   28SAPC  C310 3781   6.656   4.921   7.722  0.3103  0.1785  0.6026
   28SAPC  H10X 3782   6.554   4.898   7.760 -0.4195  3.2741  0.7707
   28SAPC  H10Y 3783   6.667   5.030   7.701 -0.4284  0.1512  0.0558
   28SAPC  C311 3784   6.754   4.869   7.824  0.5846  0.0161  0.4167
   28SAPC  H11X 3785   6.851   4.903   7.782 -0.8838  3.1971 -0.7467
   28SAPC  H11Y 3786   6.750   4.758   7.824  0.0532 -0.0107 -1.5035
   28SAPC  C312 3787   6.737   4.945   7.964 -0.4047 -0.2381  0.2663
   28SAPC  H12X 3788   6.631   4.929   7.992  0.0626 -4.0754  0.4181
   28SAPC  H12Y 3789   6.761   5.053   7.955  1.5280 -0.4092  2.3541
   28SAPC  C313 3790   6.833   4.890   8.065  0.0833 -0.2350  0.3526
   28SAPC  H13X 3791   6.939   4.917   8.047  0.1414 -0.7366 -0.0694
   28SAPC  H13Y 3792   6.819   4.780   8.068  2.1219 -0.7119 -2.7210
   28SAPC  C314 3793   6.806   4.944   8.203  0.3402 -0.4709 -0.2865
   28SAPC  H14X 3794   6.891   4.915   8.268  1.1412  2.1497 -0.0425
   28SAPC  H14Y 3795   6.712   4.900   8.241  0.5057  0.7622  1.6918
   28SAPC  C315 3796   6.801   5.098   8.213  0.5842 -1.1542 -0.0081
   28SAPC  H15X 3797   6.724   5.141   8.147 -0.9358  0.0576  2.3892
   28SAPC  H15Y 3798   6.901   5.134   8.182  0.6503 -1.2033  0.1447
   28SAPC  C316 3799   6.772   5.146   8.359 -0.4277  0.0371  0.1491
   28SAPC  H16X 3800   6.772   5.256   8.345  1.2227 -0.0243 -0.6155
   28SAPC  H16Y 3801   6.859   5.127   8.425 -0.5284 -0.8691  0.0299
   28SAPC  C317 3802   6.640   5.100   8.415 -1.1167  0.0151 -0.2926
   28SAPC  H17X 3803   6.635   5.123   8.523  2.2411  0.3558 -0.1159
   28SAPC  H17Y 3804   6.629   4.989   8.421  3.3786 -0.5254  1.7246
   28SAPC  C318 3805   6.515   5.155   8.349 -0.6146 -0.4288 -0.4542
   28SAPC  H18X 3806   6.524   5.124   8.242  0.7336 -0.6881 -0.2820
   28SAPC  H18Y 3807   6.522   5.265   8.354 -1.6188 -0.3586 -0.3113
   28SAPC  H18Z 3808   6.421   5.119   8.396 -1.2782  0.2883 -1.1979
   29SAPC     N 3809   0.007   2.418   5.966 -0.0986 -0.2278 -0.1421
   29SAPC   C12 3810   0.087   2.348   6.077 -0.9237  0.0587  0.4839
   29SAPC  H12A 3811   0.192   2.361   6.058 -1.2816  0.7225 -1.2303
   29SAPC  H12B 3812   0.062   2.243   6.081 -0.1870 -0.1439 -0.0246
   29SAPC   C13 3813   0.051   2.558   5.947 -0.7043 -0.0528 -0.3117
   29SAPC  H13A 3814  -0.001   2.617   5.873  1.8101  0.7652 -1.5417
   29SAPC  H13B 3815   0.054   2.615   6.039  0.0893  0.5577 -0.7093
   29SAPC  H13C 3816   0.146   2.565   5.898 -0.4071  0.5288  0.3265
   29SAPC   C14 3817   0.026   2.335   5.842 -0.0534  0.0557  0.1659
   29SAPC  H14A 3818   0.129   2.326   5.808 -0.2558 -0.7858 -0.2479
   29SAPC  H14B 3819  -0.009   2.235   5.860 -2.6069  0.3644 -2.3616
   29SAPC  H14C 3820  -0.024   2.376   5.756 -0.1361 -1.4375 -0.5184
   29SAPC   C15 3821  -0.139   2.417   6.000  0.3860 -0.5566  0.2871
   29SAPC  H15A 3822  -0.154   2.474   6.090 -1.5268 -0.1566 -0.2363
   29SAPC  H15B 3823  -0.204   2.462   5.925  1.9173  0.9025 -0.2386
   29SAPC  H15C 3824  -0.175   2.317   6.018 -0.9370  0.0546  1.1847
   29SAPC   C11 3825   0.075   2.406   6.222  0.6820  0.4538  0.3029
   29SAPC  H11A 3826   0.079   2.516   6.231 -2.7541  0.6988  0.1076
   29SAPC  H11B 3827   0.159   2.369   6.284  0.3080 -1.5905 -0.3238
   29SAPC     P 3828  -0.095   2.232   6.323 -0.1439 -0.3215  0.4538
   29SAPC   O13 3829  -0.236   2.230   6.352  0.3016  0.5418 -0.4682
   29SAPC   O14 3830  -0.051   2.132   6.224  0.0882 -0.6855  0.6283
   29SAPC   O12 3831  -0.053   2.383   6.281  0.7398  0.2793  0.2370
   29SAPC   O11 3832  -0.006   2.213   6.451 -0.5501 -0.5228 -0.0179
   29SAPC    C1 3833  -0.013   2.311   6.553 -0.3177  0.7766 -0.0142
   29SAPC    HA 3834   0.001   2.417   6.525 -1.8234  1.3196  1.1504
   29SAPC    HB 3835  -0.111   2.309   6.606 -0.4918 -0.5614 -0.3489
   29SAPC    C2 3836   0.095   2.279   6.665  0.3810 -0.5789  0.3857
   29SAPC    HS 3837   0.195   2.291   6.617  0.3142 -0.2934  0.3149
   29SAPC   O21 3838   0.068   2.144   6.716 -0.2893  0.3309 -0.3345
   29SAPC   C21 3839   0.176   2.072   6.749  0.4954  0.1797  0.2726
   29SAPC   O22 3840   0.291   2.110   6.747  0.8260 -0.5292  0.4606
   29SAPC   C22 3841   0.140   1.938   6.807  0.4333 -0.4934  0.1106
   29SAPC   H2R 3842   0.035   1.949   6.842  0.7256 -0.6648  1.0701
   29SAPC   H2S 3843   0.138   1.865   6.723 -0.9501 -0.9056  0.4702
   29SAPC    C3 3844   0.091   2.385   6.781  0.5062  0.4110  0.0366
   29SAPC    HX 3845  -0.014   2.397   6.814  0.7169  2.8097  0.0262
   29SAPC    HY 3846   0.120   2.480   6.730 -1.3679  0.1007 -1.7153
   29SAPC   O31 3847   0.170   2.352   6.896 -0.5350  0.1114 -0.7669
   29SAPC   C31 3848   0.287   2.398   6.892  1.2878 -0.8819  0.5896
   29SAPC   O32 3849   0.340   2.464   6.796 -0.2378  0.1354 -0.2174
   29SAPC   C32 3850   0.360   2.373   7.022 -0.3802  0.7187 -0.3038
   29SAPC   H2X 3851   0.408   2.470   7.043 -1.3017  1.5583 -1.8517
   29SAPC   H2Y 3852   0.442   2.301   6.999 -1.6700 -0.8132 -0.2945
   29SAPC   C23 3853   0.224   1.892   6.937  0.0347  0.3200  0.6390
   29SAPC   H3R 3854   0.213   1.967   7.018 -3.1488 -0.9499  1.5339
   29SAPC   H3S 3855   0.327   1.888   6.895 -0.4450 -0.5354 -0.5322
   29SAPC   C24 3856   0.170   1.756   6.973  0.1612 -0.3234  0.1311
   29SAPC   H4R 3857   0.244   1.690   7.024  1.6914 -2.3992 -4.2494
   29SAPC   H4S 3858   0.148   1.694   6.884 -0.6393 -1.5685  1.1755
   29SAPC   C25 3859   0.037   1.772   7.041  0.4568  0.9189 -0.8083
   29SAPC   H5R 3860  -0.050   1.771   6.973 -1.6827 -0.6860  1.7248
   29SAPC   C26 3861   0.021   1.780   7.178  0.5653 -0.1608  0.1767
   29SAPC   H6R 3862  -0.078   1.808   7.216  0.6343 -1.4621  1.4076
   29SAPC   C27 3863   0.139   1.786   7.279 -0.2520 -0.3882 -0.2347
   29SAPC   H7R 3864   0.218   1.717   7.242 -0.1786 -0.3328 -0.1824
   29SAPC   H7S 3865   0.095   1.744   7.372 -2.5992  0.3358 -0.9489
   29SAPC   C28 3866   0.198   1.923   7.306 -0.0517  0.0652  0.3366
   29SAPC   H8R 3867   0.161   2.004   7.241  1.3730  0.7562  0.3382
   29SAPC   C29 3868   0.298   1.956   7.398  0.8046 -0.6177 -0.1563
   29SAPC   H9R 3869   0.328   2.061   7.405  1.0614 -0.7129  0.2320
   29SAPC  C210 3870   0.375   1.864   7.492  0.2370  0.0662  0.1704
   29SAPC  H10R 3871   0.483   1.891   7.496  0.2105  0.1894  0.0671
   29SAPC  H10S 3872   0.373   1.758   7.456  2.5774  0.0509 -0.0761
   29SAPC  C211 3873   0.320   1.864   7.631  0.2761 -0.3652  0.4606
   29SAPC  H11R 3874   0.263   1.772   7.652 -0.3544 -0.4353 -1.4040
   29SAPC  C212 3875   0.337   1.960   7.726 -0.2227  0.2872 -0.7872
   29SAPC  H12R 3876   0.294   1.949   7.827  2.3416  0.6784  0.4413
   29SAPC  C213 3877   0.417   2.086   7.716  0.7063 -0.1445  0.4423
   29SAPC  H13R 3878   0.434   2.110   7.609  0.3017 -3.5088 -0.5117
   29SAPC  H13S 3879   0.521   2.078   7.753  1.6137  1.2284 -1.6362
   29SAPC  C214 3880   0.346   2.210   7.776 -0.8862 -0.3868 -0.7195
   29SAPC  H14R 3881   0.269   2.258   7.714 -2.2659  1.3856  2.1359
   29SAPC  C215 3882   0.361   2.268   7.902  0.0751 -0.0709  0.6642
   29SAPC  H15R 3883   0.298   2.356   7.927 -0.6780 -0.6130  0.7252
   29SAPC  C216 3884   0.451   2.228   8.016 -0.3204  0.4612  0.1045
   29SAPC  H16R 3885   0.527   2.308   8.030  1.0316 -0.6340 -0.7009
   29SAPC  H16S 3886   0.512   2.136   8.001 -0.7123 -0.7212  4.4041
   29SAPC  C217 3887   0.371   2.201   8.147 -0.6871  0.2029  0.9579
   29SAPC  H17R 3888   0.310   2.108   8.137  0.6497 -0.8000  1.7122
   29SAPC  H17S 3889   0.307   2.287   8.175  1.1530  1.0981  2.6803
   29SAPC  C218 3890   0.469   2.158   8.262  0.1180  0.6823 -0.0035
   29SAPC  H18R 3891   0.562   2.113   8.222  0.3636  1.0309  0.1772
   29SAPC  H18S 3892   0.407   2.095   8.329  0.0903  0.2308 -0.4493
   29SAPC  C219 3893   0.518   2.274   8.344 -0.7973  0.0861 -0.2465
   29SAPC  H19R 3894   0.432   2.330   8.386 -0.7010 -1.9542  3.0411
   29SAPC  H19S 3895   0.572   2.331   8.265 -1.1565 -0.5253 -0.9410
   29SAPC  C220 3896   0.618   2.229   8.454 -0.7195  0.4614  0.2078
   29SAPC  H20R 3897   0.578   2.139   8.506  0.7884  0.1065  0.7899
   29SAPC  H20S 3898   0.630   2.300   8.538  0.3654 -2.0510  2.2914
   29SAPC  H20T 3899   0.718   2.206   8.411 -2.3693 -0.9878 -3.2974
   29SAPC   C33 3900   0.277   2.313   7.128 -0.2936 -0.0795 -0.1947
   29SAPC   H3X 3901   0.238   2.214   7.100 -0.1826  0.3271 -1.8640
   29SAPC   H3Y 3902   0.193   2.375   7.167 -0.5908 -0.6403  0.0730
   29SAPC   C34 3903   0.350   2.295   7.267 -0.5408  0.0446 -0.3166
   29SAPC   H4X 3904   0.450   2.248   7.255 -1.3412 -1.8582  0.0685
   29SAPC   H4Y 3905   0.285   2.238   7.337 -1.6776  0.0192 -1.3566
   29SAPC   C35 3906   0.368   2.431   7.339 -0.3884 -0.7957  0.2753
   29SAPC   H5X 3907   0.273   2.489   7.327  0.5469  0.5665 -0.9831
   29SAPC   H5Y 3908   0.444   2.495   7.290 -0.4628 -0.5259  0.5094
   29SAPC   C36 3909   0.410   2.414   7.489  0.2030  0.0849  0.1390
   29SAPC   H6X 3910   0.488   2.338   7.509  0.1549  0.4152  1.7114
   29SAPC   H6Y 3911   0.321   2.372   7.541  0.8903 -0.1635  1.1483
   29SAPC   C37 3912   0.451   2.553   7.554 -0.1814 -0.3058  0.2486
   29SAPC   H7X 3913   0.525   2.610   7.494 -2.5417 -0.7515 -3.3331
   29SAPC   H7Y 3914   0.504   2.534   7.650  1.5746  1.3388 -0.3269
   29SAPC   C38 3915   0.327   2.632   7.589 -0.1736 -0.6360 -0.2579
   29SAPC   H8X 3916   0.241   2.621   7.519 -0.4764 -0.4532  0.0845
   29SAPC   H8Y 3917   0.353   2.740   7.588  2.1421 -1.1483 -1.0373
   29SAPC   C39 3918   0.261   2.587   7.718 -0.2930  0.3896 -0.3661
   29SAPC   H9X 3919   0.333   2.594   7.802  0.1233 -1.1967 -0.5594
   29SAPC   H9Y 3920   0.218   2.485   7.711 -0.1672  0.2835  0.3986
   29SAPC  C310 3921   0.137   2.674   7.746 -0.9552  0.8961  0.0608
   29SAPC  H10X 3922   0.068   2.657   7.660 -0.3171  0.4820 -0.3856
   29SAPC  H10Y 3923   0.162   2.781   7.761  0.4470  0.5594  0.3387
   29SAPC  C311 3924   0.072   2.626   7.875 -0.5691 -0.6488 -1.1543
   29SAPC  H11X 3925   0.144   2.628   7.959 -2.3899 -2.2969  0.5314
   29SAPC  H11Y 3926   0.037   2.521   7.864 -0.6409 -0.5690 -1.7275
   29SAPC  C312 3927  -0.043   2.717   7.906 -0.4678 -0.6446  0.2007
   29SAPC  H12X 3928  -0.110   2.724   7.818  0.4470 -0.4501 -0.5011
   29SAPC  H12Y 3929  -0.001   2.820   7.916  2.4012 -1.6251 -0.8565
   29SAPC  C313 3930  -0.129   2.679   8.026  0.3369 -0.2202 -0.3865
   29SAPC  H13X 3931  -0.164   2.574   8.037  3.0505 -1.0502  1.4329
   29SAPC  H13Y 3932  -0.215   2.749   8.018 -0.2747 -1.0075 -0.9923
   29SAPC  C314 3933  -0.055   2.705   8.157 -0.8327 -0.6424  0.3767
   29SAPC  H14X 3934  -0.008   2.805   8.143 -1.1437 -0.7744 -1.9574
   29SAPC  H14Y 3935   0.020   2.625   8.173  0.1833  0.3021  0.4519
   29SAPC  C315 3936  -0.151   2.717   8.267 -0.0466 -0.2712  0.0172
   29SAPC  H15X 3937  -0.199   2.620   8.289  0.2496 -1.3719 -3.5445
   29SAPC  H15Y 3938  -0.231   2.793   8.255  0.6128  0.3209 -0.8419
   29SAPC  C316 3939  -0.071   2.754   8.395  0.0712 -0.0034 -0.2784
   29SAPC  H16X 3940  -0.014   2.847   8.375  0.3499 -0.3703 -1.2759
   29SAPC  H16Y 3941   0.004   2.676   8.419 -0.7430 -1.2893 -1.7180
   29SAPC  C317 3942  -0.168   2.776   8.518 -0.4672 -0.4084  0.8644
   29SAPC  H17X 3943  -0.202   2.671   8.536 -3.2187  0.3594  0.6001
   29SAPC  H17Y 3944  -0.247   2.849   8.490  1.0617  1.6554  1.7040
   29SAPC  C318 3945  -0.104   2.832   8.651  0.5249 -0.3285 -0.6173
   29SAPC  H18X 3946  -0.036   2.747   8.671 -3.4173 -3.7335 -0.3362
   29SAPC  H18Y 3947  -0.182   2.852   8.727  0.7525  0.5735 -0.6125
   29SAPC  H18Z 3948  -0.045   2.924   8.631  0.7739  0.3053  2.6143
   30SAPC     N 3949   1.518   2.559   6.059  0.0288  0.3452  0.0110
   30SAPC   C12 3950   1.605   2.543   6.180  0.5196  0.1169  0.2058
   30SAPC  H12A 3951   1.590   2.441   6.212 -3.7292  0.4543 -0.1774
   30SAPC  H12B 3952   1.560   2.595   6.263  1.5061  0.0916  0.7770
   30SAPC   C13 3953   1.383   2.499   6.083 -0.4411 -0.0325 -0.0575
   30SAPC  H13A 3954   1.386   2.391   6.086  1.2077 -0.0611 -1.1294
   30SAPC  H13B 3955   1.331   2.538   6.169 -0.4587 -0.5450  0.1678
   30SAPC  H13C 3956   1.326   2.527   5.997 -0.4866 -0.4350 -0.1616
   30SAPC   C14 3957   1.500   2.701   6.025 -0.2092  0.5637 -0.2022
   30SAPC  H14A 3958   1.597   2.745   6.011 -1.2223  2.7082 -0.9302
   30SAPC  H14B 3959   1.436   2.698   5.939  1.7230 -1.6292 -1.6604
   30SAPC  H14C 3960   1.446   2.755   6.102 -0.4436  0.7241 -0.4789
   30SAPC   C15 3961   1.579   2.492   5.939 -0.0955 -0.6740 -0.1488
   30SAPC  H15A 3962   1.682   2.522   5.937 -0.1036 -0.6303  0.0942
   30SAPC  H15B 3963   1.566   2.384   5.936 -0.6556 -0.7112  1.9006
   30SAPC  H15C 3964   1.536   2.526   5.846 -2.2270 -0.2672  0.9234
   30SAPC   C11 3965   1.755   2.580   6.182  0.4349  0.9081  0.1980
   30SAPC  H11A 3966   1.799   2.579   6.284  1.1300  0.9305 -0.0987
   30SAPC  H11B 3967   1.784   2.679   6.141  0.8850  0.7534  0.1400
   30SAPC     P 3968   1.825   2.323   6.156 -0.2847 -0.2163 -0.0483
   30SAPC   O13 3969   1.696   2.255   6.142 -0.3405 -0.1368 -0.0084
   30SAPC   O14 3970   1.937   2.258   6.081  0.1413 -0.5588 -0.4228
   30SAPC   O12 3971   1.823   2.482   6.114  0.0802  0.3095  0.4428
   30SAPC   O11 3972   1.862   2.329   6.309  0.5742 -0.5056  0.2624
   30SAPC    C1 3973   1.997   2.354   6.352 -0.8703 -0.1630  0.3030
   30SAPC    HA 3974   2.063   2.403   6.278  2.0434 -1.3028  1.9664
   30SAPC    HB 3975   1.995   2.423   6.439  1.5795 -0.8407  0.9644
   30SAPC    C2 3976   2.073   2.229   6.413 -0.0720  0.5105  0.1667
   30SAPC    HS 3977   2.083   2.158   6.328 -1.1375  1.2299 -0.5860
   30SAPC   O21 3978   1.981   2.179   6.514  0.3116  0.7211  0.0612
   30SAPC   C21 3979   2.000   2.055   6.545  0.5855 -0.2355 -0.1988
   30SAPC   O22 3980   2.078   1.976   6.495 -0.3907 -0.3839 -0.4179
   30SAPC   C22 3981   1.895   2.024   6.652 -0.0886  0.4951 -0.2088
   30SAPC   H2R 3982   1.900   2.114   6.718  0.2718  0.9826 -0.8925
   30SAPC   H2S 3983   1.798   2.014   6.599  0.8111  0.4019 -1.8865
   30SAPC    C3 3984   2.215   2.268   6.466  0.1271  1.0293 -0.2152
   30SAPC    HX 3985   2.284   2.271   6.379  1.6801 -1.3861  0.8021
   30SAPC    HY 3986   2.247   2.179   6.525  3.4116  1.4384 -1.1460
   30SAPC   O31 3987   2.215   2.391   6.532  0.7519 -0.0851 -0.5507
   30SAPC   C31 3988   2.182   2.400   6.660  0.3736  0.2383  0.0848
   30SAPC   O32 3989   2.127   2.310   6.721 -0.3075 -0.2563  0.1743
   30SAPC   C32 3990   2.226   2.541   6.708  0.2670  0.3686 -0.0888
   30SAPC   H2X 3991   2.144   2.598   6.659  0.5148 -2.3338 -4.1093
   30SAPC   H2Y 3992   2.324   2.566   6.663 -0.0776  1.5800 -0.2279
   30SAPC   C23 3993   1.922   1.890   6.725  0.1158  0.0185 -0.2391
   30SAPC   H3R 3994   1.915   1.811   6.647  0.5335  2.7391 -3.2057
   30SAPC   H3S 3995   1.841   1.872   6.799  0.1756 -2.0148 -0.6114
   30SAPC   C24 3996   2.063   1.874   6.792  0.0666  0.3203 -0.0353
   30SAPC   H4R 3997   2.142   1.921   6.728 -1.6813  2.1784 -0.9529
   30SAPC   H4S 3998   2.088   1.766   6.788 -1.7668 -0.1615  0.3859
   30SAPC   C25 3999   2.076   1.950   6.917 -0.0870 -0.9256 -0.1085
   30SAPC   H5R 4000   2.101   2.057   6.903 -0.6375 -0.6364  1.0136
   30SAPC   C26 4001   2.058   1.898   7.041  0.4951 -0.6005 -0.3409
   30SAPC   H6R 4002   2.062   1.964   7.129 -0.5783 -2.5294  1.2354
   30SAPC   C27 4003   2.013   1.763   7.080  0.5355  0.1954  0.6781
   30SAPC   H7R 4004   2.095   1.713   7.136 -1.1796 -2.2819  1.1225
   30SAPC   H7S 4005   1.966   1.708   6.996 -0.2054  0.5029  0.8858
   30SAPC   C28 4006   1.896   1.781   7.175  0.5145 -0.2859 -1.0881
   30SAPC   H8R 4007   1.810   1.832   7.130  0.5213  0.6960 -0.0359
   30SAPC   C29 4008   1.895   1.747   7.309  0.0104 -0.4890 -0.1063
   30SAPC   H9R 4009   1.806   1.768   7.370  1.1601  1.8058  0.8842
   30SAPC  C210 4010   2.006   1.685   7.393 -0.1442 -0.9250 -0.3391
   30SAPC  H10R 4011   2.096   1.667   7.331  0.2987 -2.6266  0.7461
   30SAPC  H10S 4012   1.965   1.583   7.406 -0.2527 -0.7601  0.7397
   30SAPC  C211 4013   2.031   1.747   7.529  0.6616  0.0643 -0.9857
   30SAPC  H11R 4014   2.039   1.857   7.523 -0.9399  0.1719 -1.5721
   30SAPC  C212 4015   2.032   1.684   7.649 -0.3760 -0.5106 -0.6277
   30SAPC  H12R 4016   2.067   1.743   7.734  2.6081 -1.7198 -0.9068
   30SAPC  C213 4017   1.999   1.541   7.686  0.0450 -0.3506 -0.0401
   30SAPC  H13R 4018   2.088   1.508   7.744  0.3689  2.0114  0.9422
   30SAPC  H13S 4019   2.003   1.478   7.595  2.3640 -1.1572  0.5763
   30SAPC  C214 4020   1.867   1.531   7.762  0.6003 -0.1211  0.5323
   30SAPC  H14R 4021   1.777   1.572   7.713  1.0143  0.2017  0.0419
   30SAPC  C215 4022   1.851   1.479   7.884  0.3972 -1.1347  0.2076
   30SAPC  H15R 4023   1.747   1.477   7.919 -0.6199 -0.8199 -2.5130
   30SAPC  C216 4024   1.964   1.433   7.976 -0.3001 -0.0454  0.0391
   30SAPC  H16R 4025   1.936   1.418   8.082  0.3228 -0.2417  0.1801
   30SAPC  H16S 4026   2.047   1.507   7.980 -1.1792  0.8991  1.8414
   30SAPC  C217 4027   2.027   1.293   7.936  0.7992 -0.3580 -0.0359
   30SAPC  H17R 4028   2.087   1.302   7.843  0.2426 -0.0716 -0.3783
   30SAPC  H17S 4029   1.949   1.216   7.913  0.6693 -0.6661  1.3459
   30SAPC  C218 4030   2.131   1.249   8.041 -0.1469  0.0706 -0.2099
   30SAPC  H18R 4031   2.135   1.138   8.031 -0.4153 -0.0878  1.2807
   30SAPC  H18S 4032   2.079   1.266   8.137 -0.1594 -0.7482 -0.0610
   30SAPC  C219 4033   2.270   1.304   8.022 -0.1946 -0.1256 -0.3398
   30SAPC  H19R 4034   2.269   1.410   8.054 -0.4450  0.0713 -0.9769
   30SAPC  H19S 4035   2.295   1.309   7.914 -0.0907 -0.8571 -0.3582
   30SAPC  C220 4036   2.375   1.232   8.100 -0.4860  0.3842  0.1058
   30SAPC  H20R 4037   2.472   1.286   8.108  0.2206 -1.0386  2.1575
   30SAPC  H20S 4038   2.410   1.135   8.056 -0.6035 -0.0198  0.8824
   30SAPC  H20T 4039   2.334   1.201   8.198  1.8686  1.1126  1.3996
   30SAPC   C33 4040   2.227   2.557   6.862 -0.2317 -0.6007  0.4291
   30SAPC   H3X 4041   2.131   2.536   6.914 -0.0532  2.3298  2.1691
   30SAPC   H3Y 4042   2.258   2.663   6.871  0.1062 -0.5725 -0.8415
   30SAPC   C34 4043   2.342   2.492   6.934  0.0600  0.5974  0.0684
   30SAPC   H4X 4044   2.428   2.505   6.865 -0.5028  0.7249 -0.6199
   30SAPC   H4Y 4045   2.333   2.381   6.937 -0.0563  0.6335  1.2522
   30SAPC   C35 4046   2.379   2.550   7.073  0.3947 -0.3207  0.2898
   30SAPC   H5X 4047   2.367   2.661   7.075 -3.1376 -0.5395 -1.1335
   30SAPC   H5Y 4048   2.486   2.543   7.101  1.3275  2.0985 -2.2024
   30SAPC   C36 4049   2.280   2.498   7.182  0.4761 -0.1460 -0.2121
   30SAPC   H6X 4050   2.300   2.389   7.188  2.1406  0.1080 -0.5781
   30SAPC   H6Y 4051   2.178   2.514   7.140  1.4964 -1.5155 -3.5446
   30SAPC   C37 4052   2.307   2.569   7.320 -0.3016 -0.5115 -0.3914
   30SAPC   H7X 4053   2.283   2.678   7.324 -2.9271 -0.9815 -0.9601
   30SAPC   H7Y 4054   2.413   2.549   7.342  0.3098  3.0607  0.6100
   30SAPC   C38 4055   2.232   2.506   7.441  0.3158 -0.4183  0.9261
   30SAPC   H8X 4056   2.263   2.402   7.464 -1.8868 -0.6314  3.2864
   30SAPC   H8Y 4057   2.122   2.507   7.424  0.5913 -1.0705 -1.3146
   30SAPC   C39 4058   2.251   2.590   7.566  0.7639 -0.5549  0.4721
   30SAPC   H9X 4059   2.199   2.686   7.545 -0.1540 -0.5264  2.6125
   30SAPC   H9Y 4060   2.359   2.613   7.580  0.2693  3.7079 -1.3020
   30SAPC  C310 4061   2.193   2.539   7.694  0.5771 -0.1791 -0.1151
   30SAPC  H10X 4062   2.249   2.444   7.711  0.5808 -0.2773 -0.6747
   30SAPC  H10Y 4063   2.086   2.508   7.690  0.2593  0.9880 -0.8915
   30SAPC  C311 4064   2.234   2.624   7.819  0.1657  0.3210 -0.0119
   30SAPC  H11X 4065   2.316   2.694   7.790 -0.1947  1.3328  1.3441
   30SAPC  H11Y 4066   2.287   2.558   7.891  1.3128  1.3044  0.0649
   30SAPC  C312 4067   2.122   2.712   7.881  0.3789  0.2421  0.2854
   30SAPC  H12X 4068   2.037   2.644   7.899  1.1715 -1.3592 -1.6734
   30SAPC  H12Y 4069   2.104   2.802   7.818  0.4223  0.2508  0.2850
   30SAPC  C313 4070   2.190   2.780   7.996  0.2879  0.6162  0.2143
   30SAPC  H13X 4071   2.252   2.865   7.961  0.0942  0.2194 -1.1451
   30SAPC  H13Y 4072   2.237   2.699   8.056  0.2226  0.1720 -0.3273
   30SAPC  C314 4073   2.092   2.855   8.088  0.8139  0.1734 -0.5381
   30SAPC  H14X 4074   2.012   2.780   8.107  0.2878  1.0340  0.8127
   30SAPC  H14Y 4075   2.049   2.937   8.026  1.3579  0.8196 -0.0759
   30SAPC  C315 4076   2.153   2.885   8.217 -1.0761  0.3612 -0.2239
   30SAPC  H15X 4077   2.254   2.929   8.200 -0.5836 -0.9249 -0.7313
   30SAPC  H15Y 4078   2.173   2.794   8.278  0.0092  2.1447  2.2820
   30SAPC  C316 4079   2.064   2.985   8.294  0.3287 -0.4572  0.0649
   30SAPC  H16X 4080   2.062   3.078   8.234  1.2439  0.3277  1.2010
   30SAPC  H16Y 4081   2.112   3.027   8.384 -1.2515  2.3899 -0.3097
   30SAPC  C317 4082   1.924   2.948   8.329 -0.1598  0.5016  0.2029
   30SAPC  H17X 4083   1.924   2.849   8.379 -1.0434  0.4480  0.1074
   30SAPC  H17Y 4084   1.877   2.941   8.229  0.7152  1.4590 -0.3006
   30SAPC  C318 4085   1.850   3.056   8.408 -0.5295  0.2183  0.4023
   30SAPC  H18X 4086   1.858   3.156   8.360 -1.6481 -0.9306 -2.4242
   30SAPC  H18Y 4087   1.884   3.050   8.513  1.6986  0.2133 -0.2752
   30SAPC  H18Z 4088   1.740   3.049   8.421 -0.2345 -0.4191  2.9260
   31SAPC     N 4089   4.644   1.784   6.020  0.2555 -0.2181 -0.2785
   31SAPC   C12 4090   4.585   1.909   6.088  0.2511  0.2988  0.4443
   31SAPC  H12A 4091   4.535   1.884   6.181  0.4866  0.4234  0.6069
   31SAPC  H12B 4092   4.500   1.938   6.029  0.0645 -2.5096 -0.7946
   31SAPC   C13 4093   4.719   1.829   5.894  0.5158  0.3398 -0.6173
   31SAPC  H13A 4094   4.744   1.735   5.846  0.5598  0.9950 -1.9257
   31SAPC  H13B 4095   4.656   1.882   5.824 -0.4563  0.8735  0.6305
   31SAPC  H13C 4096   4.806   1.888   5.922 -0.0263  0.4344  0.9413
   31SAPC   C14 4097   4.735   1.713   6.119  1.1229  0.0066  0.0566
   31SAPC  H14A 4098   4.791   1.633   6.072  1.6918 -0.3338  1.2541
   31SAPC  H14B 4099   4.806   1.784   6.159  1.4704 -0.2491 -0.0954
   31SAPC  H14C 4100   4.685   1.660   6.199  0.9172 -0.2818 -0.2636
   31SAPC   C15 4101   4.534   1.693   5.973 -0.7496  0.9857  0.1070
   31SAPC  H15A 4102   4.474   1.736   5.894 -2.1331 -3.0226 -1.2714
   31SAPC  H15B 4103   4.581   1.604   5.934  0.6847  1.0196  1.6305
   31SAPC  H15C 4104   4.467   1.666   6.053  1.5603 -0.3646  1.6915
   31SAPC   C11 4105   4.674   2.036   6.103 -0.1191  0.3665 -0.6127
   31SAPC  H11A 4106   4.622   2.125   6.144  1.6479  1.5526 -0.8196
   31SAPC  H11B 4107   4.690   2.061   5.996 -0.3605 -0.3593 -0.8255
   31SAPC     P 4108   4.808   1.988   6.322  0.2951  0.4982 -0.2679
   31SAPC   O13 4109   4.692   1.908   6.368  0.0520 -0.1894  0.2622
   31SAPC   O14 4110   4.943   1.954   6.368 -0.1158 -0.1955 -0.3317
   31SAPC   O12 4111   4.800   2.013   6.160  0.5328 -0.3647 -0.6153
   31SAPC   O11 4112   4.798   2.136   6.367 -0.1373  0.1708 -0.0942
   31SAPC    C1 4113   4.676   2.200   6.414 -0.0059  0.0728  0.9558
   31SAPC    HA 4114   4.684   2.304   6.377 -1.5917  0.1534  0.7710
   31SAPC    HB 4115   4.586   2.167   6.359  1.1111  0.5446 -1.2443
   31SAPC    C2 4116   4.650   2.206   6.557  0.1702 -0.7626 -0.9243
   31SAPC    HS 4117   4.714   2.290   6.593  0.9013 -1.9865  0.7662
   31SAPC   O21 4118   4.671   2.078   6.621  0.2245 -0.2955 -0.8782
   31SAPC   C21 4119   4.791   2.072   6.691  0.0779 -0.0733  0.7342
   31SAPC   O22 4120   4.875   2.161   6.690  0.7431  0.4968  0.3467
   31SAPC   C22 4121   4.821   1.937   6.750  0.5814  0.9190 -0.3497
   31SAPC   H2R 4122   4.734   1.904   6.810 -0.5398  0.4038 -2.1857
   31SAPC   H2S 4123   4.809   1.868   6.664 -0.1805 -1.5622  1.6125
   31SAPC    C3 4124   4.506   2.257   6.588  0.3643  0.0519  0.0100
   31SAPC    HX 4125   4.429   2.190   6.545  1.1234  0.3174 -1.8345
   31SAPC    HY 4126   4.489   2.350   6.530  0.6827  0.7856  1.0602
   31SAPC   O31 4127   4.488   2.287   6.732 -0.0748  0.0209  0.5256
   31SAPC   C31 4128   4.415   2.198   6.792 -0.0075  0.6020  0.4993
   31SAPC   O32 4129   4.365   2.096   6.744 -0.2785  0.4249  0.2452
   31SAPC   C32 4130   4.391   2.264   6.927  0.1084 -0.8447  0.3062
   31SAPC   H2X 4131   4.295   2.319   6.923 -0.0484 -1.0645  0.9514
   31SAPC   H2Y 4132   4.466   2.341   6.953  0.9681 -1.8428  0.8398
   31SAPC   C23 4133   4.950   1.924   6.825 -1.2132 -0.3470 -0.1689
   31SAPC   H3R 4134   4.947   1.976   6.923 -0.0070 -0.6159  0.0277
   31SAPC   H3S 4135   5.031   1.970   6.764  0.8802 -0.4894  2.3318
   31SAPC   C24 4136   4.982   1.777   6.860 -0.1121 -0.0300  0.9179
   31SAPC   H4R 4137   4.974   1.719   6.766 -0.5276  0.4947  0.6280
   31SAPC   H4S 4138   4.902   1.742   6.929 -0.1298  2.5446  2.3473
   31SAPC   C25 4139   5.125   1.753   6.915  0.5212 -0.7688 -0.1097
   31SAPC   H5R 4140   5.193   1.690   6.856  1.3800 -1.2016  1.3008
   31SAPC   C26 4141   5.165   1.791   7.040 -0.8672 -1.1995  0.1701
   31SAPC   H6R 4142   5.265   1.762   7.075  0.2277  0.3375 -1.5129
   31SAPC   C27 4143   5.078   1.858   7.148  0.1058  0.2131  0.0842
   31SAPC   H7R 4144   5.099   1.804   7.243  2.0272 -0.9959 -0.9695
   31SAPC   H7S 4145   4.974   1.836   7.117  0.6274  0.6805 -2.1889
   31SAPC   C28 4146   5.100   2.006   7.153  0.8497  1.8990  0.0674
   31SAPC   H8R 4147   5.088   2.056   7.056 -0.8495 -1.0559 -1.3919
   31SAPC   C29 4148   5.135   2.079   7.263  0.4963 -0.3940  0.2046
   31SAPC   H9R 4149   5.150   2.188   7.257 -0.4051 -0.1264  2.1421
   31SAPC  C210 4150   5.163   2.031   7.400  0.2072 -0.0812 -0.2629
   31SAPC  H10R 4151   5.257   2.079   7.434  0.7095 -1.6133  0.5919
   31SAPC  H10S 4152   5.182   1.921   7.398 -2.3553 -0.5844 -0.8405
   31SAPC  C211 4153   5.044   2.055   7.487 -0.0097  0.6969 -0.1413
   31SAPC  H11R 4154   4.952   2.034   7.430 -0.4846 -0.9843  1.1796
   31SAPC  C212 4155   5.045   2.093   7.618  0.6612 -0.0843 -0.7873
   31SAPC  H12R 4156   4.945   2.098   7.664  1.4498 -1.4964  1.2136
   31SAPC  C213 4157   5.161   2.113   7.711  0.7127 -0.2440  1.5545
   31SAPC  H13R 4158   5.243   2.149   7.646  0.7714 -0.5796  1.4421
   31SAPC  H13S 4159   5.196   2.014   7.747 -1.4399 -1.4784  0.4308
   31SAPC  C214 4160   5.133   2.208   7.818 -0.0322 -0.0218  0.2891
   31SAPC  H14R 4161   5.140   2.314   7.789  0.5935  0.7721  3.0428
   31SAPC  C215 4162   5.092   2.185   7.944 -0.5892  0.1648  0.0972
   31SAPC  H15R 4163   5.094   2.266   8.018 -3.0531  0.2154  0.1943
   31SAPC  C216 4164   5.059   2.044   7.992 -0.2344 -0.5908  0.2472
   31SAPC  H16R 4165   5.135   2.016   8.068 -1.0842  0.5551  1.5650
   31SAPC  H16S 4166   5.061   1.964   7.914  1.4711 -1.3321  0.9851
   31SAPC  C217 4167   4.925   2.054   8.067 -0.0440 -0.3560  0.5990
   31SAPC  H17R 4168   4.890   1.953   8.098 -0.1678 -0.0269  1.5539
   31SAPC  H17S 4169   4.847   2.101   8.004  0.2960  0.2653  0.6328
   31SAPC  C218 4170   4.917   2.146   8.195  0.2298  0.5486 -0.7202
   31SAPC  H18R 4171   4.920   2.246   8.147  1.0047 -0.1295 -2.1583
   31SAPC  H18S 4172   5.003   2.128   8.263 -1.3730 -3.1939  0.6230
   31SAPC  C219 4173   4.780   2.123   8.267 -0.0961 -0.0928 -0.6757
   31SAPC  H19R 4174   4.774   2.013   8.280 -0.7945  0.2544  2.6865
   31SAPC  H19S 4175   4.706   2.147   8.187 -0.1153 -0.8208 -0.8846
   31SAPC  C220 4176   4.744   2.183   8.401  0.1904 -0.8886 -0.3956
   31SAPC  H20R 4177   4.638   2.164   8.427  0.2297 -1.0243 -0.3362
   31SAPC  H20S 4178   4.746   2.294   8.390  3.3161 -0.7978  0.2391
   31SAPC  H20T 4179   4.814   2.161   8.484 -0.7960  2.0102  1.3668
   31SAPC   C33 4180   4.388   2.164   7.047 -0.2236  0.7016 -0.0454
   31SAPC   H3X 4181   4.493   2.131   7.064 -0.5242 -0.8214 -0.9319
   31SAPC   H3Y 4182   4.332   2.072   7.020 -0.8244  1.2433 -0.7004
   31SAPC   C34 4183   4.327   2.222   7.175 -0.5009  0.0971 -0.0578
   31SAPC   H4X 4184   4.222   2.247   7.147 -1.4167 -1.3118  1.9521
   31SAPC   H4Y 4185   4.394   2.301   7.218  2.0489 -2.6431  1.3886
   31SAPC   C35 4186   4.309   2.121   7.283 -0.4436 -0.2550 -0.0777
   31SAPC   H5X 4187   4.406   2.072   7.305  1.2573  0.4458 -4.9056
   31SAPC   H5Y 4188   4.232   2.044   7.261 -1.4043  0.8654 -0.7502
   31SAPC   C36 4189   4.276   2.182   7.419 -0.3468 -0.8490 -0.5292
   31SAPC   H6X 4190   4.172   2.222   7.420 -0.5874 -1.4705  0.7684
   31SAPC   H6Y 4191   4.338   2.272   7.442 -2.2914  1.1392 -2.5101
   31SAPC   C37 4192   4.286   2.069   7.524  0.2177  0.2514  0.0378
   31SAPC   H7X 4193   4.397   2.065   7.530  0.1828  0.9171  1.5921
   31SAPC   H7Y 4194   4.231   1.983   7.479  2.4136 -1.3196  0.1516
   31SAPC   C38 4195   4.235   2.116   7.656  0.1863 -0.4259 -0.5893
   31SAPC   H8X 4196   4.127   2.140   7.652  0.3235  0.6662  1.3772
   31SAPC   H8Y 4197   4.288   2.212   7.670 -0.1491  0.0386 -2.2419
   31SAPC   C39 4198   4.249   2.021   7.773 -0.0893 -0.6222  0.2837
   31SAPC   H9X 4199   4.348   1.971   7.767  0.6677  0.7166  1.1861
   31SAPC   H9Y 4200   4.168   1.945   7.774  1.4904 -2.3800  1.9529
   31SAPC  C310 4201   4.240   2.091   7.909  0.0968 -0.3331 -0.0991
   31SAPC  H10X 4202   4.142   2.143   7.917  1.0803  1.5087  0.6786
   31SAPC  H10Y 4203   4.310   2.178   7.913  0.2132 -0.4214 -0.2109
   31SAPC  C311 4204   4.258   1.989   8.020 -0.1779 -0.5859  0.6609
   31SAPC  H11X 4205   4.366   1.963   8.023 -0.1845 -0.8013 -0.6346
   31SAPC  H11Y 4206   4.198   1.903   7.984 -1.6664  0.5274  0.4091
   31SAPC  C312 4207   4.215   2.038   8.161 -0.4974  0.7295 -0.8175
   31SAPC  H12X 4208   4.113   2.079   8.150 -0.9966 -0.6600 -1.6299
   31SAPC  H12Y 4209   4.282   2.121   8.193 -2.7616  2.7822 -1.1772
   31SAPC  C313 4210   4.205   1.920   8.265  0.6354 -0.4296  0.0739
   31SAPC  H13X 4211   4.298   1.860   8.258  1.3137  0.5999  0.0950
   31SAPC  H13Y 4212   4.125   1.846   8.241  0.0789 -0.1925  1.1008
   31SAPC  C314 4213   4.181   1.952   8.407 -0.4290 -0.1079  0.5068
   31SAPC  H14X 4214   4.108   2.035   8.419 -0.2938  0.2336 -0.8745
   31SAPC  H14Y 4215   4.282   1.985   8.440 -0.7851  0.9625  0.5631
   31SAPC  C315 4216   4.148   1.827   8.487  0.5928  0.2239 -0.7056
   31SAPC  H15X 4217   4.172   1.847   8.593 -0.3288  1.3755 -0.6959
   31SAPC  H15Y 4218   4.205   1.748   8.433  0.8633  0.1229 -0.2701
   31SAPC  C316 4219   3.990   1.788   8.471 -0.4899  0.4602 -0.4467
   31SAPC  H16X 4220   3.982   1.739   8.372  0.0236 -0.8051  0.1212
   31SAPC  H16Y 4221   3.927   1.879   8.484 -1.0259  0.3682 -2.1179
   31SAPC  C317 4222   3.947   1.680   8.574 -0.3157 -0.2909  0.1519
   31SAPC  H17X 4223   3.842   1.645   8.561 -0.6092  0.3076  0.8574
   31SAPC  H17Y 4224   3.964   1.739   8.666 -1.3894 -1.2828  1.0166
   31SAPC  C318 4225   4.044   1.561   8.585  0.1102  0.2031 -0.8275
   31SAPC  H18X 4226   4.084   1.523   8.488  0.1141 -2.5184  0.1581
   31SAPC  H18Y 4227   4.006   1.479   8.649  2.8028  0.0931  0.7640
   31SAPC  H18Z 4228   4.127   1.586   8.654  0.0713 -0.6153 -0.4723
   32SAPC     N 4229   5.100   3.026   6.253  0.1065  0.3956 -0.1353
   32SAPC   C12 4230   5.186   2.984   6.372 -0.8019 -0.6643 -0.5783
   32SAPC  H12A 4231   5.290   2.991   6.343 -0.3065 -1.5135  0.8728
   32SAPC  H12B 4232   5.171   2.884   6.408  1.5584 -0.9359 -0.1637
   32SAPC   C13 4233   5.064   2.904   6.170  0.1985 -0.0617 -0.6442
   32SAPC  H13A 4234   4.992   2.845   6.223 -1.8910  0.5879 -2.6177
   32SAPC  H13B 4235   5.033   2.927   6.069  0.3345 -2.8257 -1.3827
   32SAPC  H13C 4236   5.146   2.835   6.156 -1.3987 -2.3230  0.4842
   32SAPC   C14 4237   4.968   3.087   6.296 -0.5065 -0.2545 -0.0275
   32SAPC  H14A 4238   4.915   3.019   6.360 -3.0710  2.2942  0.7952
   32SAPC  H14B 4239   4.979   3.176   6.356  1.4536 -0.1845 -0.4095
   32SAPC  H14C 4240   4.913   3.131   6.214  0.5195  3.7653  1.1816
   32SAPC   C15 4241   5.166   3.124   6.164  0.5663 -0.2224  0.2412
   32SAPC  H15A 4242   5.102   3.152   6.082 -0.0235 -2.7010 -0.2307
   32SAPC  H15B 4243   5.202   3.213   6.214 -0.3228  0.1679  0.1971
   32SAPC  H15C 4244   5.250   3.073   6.119  0.9198 -0.9913  1.7099
   32SAPC   C11 4245   5.180   3.072   6.499 -0.3425 -0.4631  0.1565
   32SAPC  H11A 4246   5.245   3.028   6.578  0.3850  2.3694  1.2669
   32SAPC  H11B 4247   5.076   3.074   6.538 -0.8013 -1.4081 -0.9521
   32SAPC     P 4248   5.158   3.336   6.510 -0.7006 -0.3080  0.3843
   32SAPC   O13 4249   5.235   3.452   6.451 -0.5723 -0.5626 -0.2918
   32SAPC   O14 4250   5.015   3.336   6.494 -0.3818  0.1548  0.0913
   32SAPC   O12 4251   5.225   3.201   6.464  0.3193  0.2902  0.1022
   32SAPC   O11 4252   5.183   3.349   6.668 -0.1179 -0.2408 -0.4055
   32SAPC    C1 4253   5.303   3.290   6.726  0.0522 -0.0810  0.5453
   32SAPC    HA 4254   5.321   3.188   6.688 -0.9636  0.1808 -0.6778
   32SAPC    HB 4255   5.400   3.343   6.716  2.1137 -3.6265  0.2686
   32SAPC    C2 4256   5.274   3.270   6.880 -1.3292 -0.0149  0.0944
   32SAPC    HS 4257   5.363   3.222   6.926  0.7013 -2.0502 -5.1861
   32SAPC   O21 4258   5.148   3.201   6.894 -0.2108 -0.2359  0.1084
   32SAPC   C21 4259   5.165   3.071   6.886  0.4907 -0.0166  0.3655
   32SAPC   O22 4260   5.267   3.022   6.838  0.4145  0.7341  0.1928
   32SAPC   C22 4261   5.047   2.983   6.933  0.0866 -0.5252  0.4181
   32SAPC   H2R 4262   4.980   3.041   6.999 -0.6440 -0.7879 -0.0753
   32SAPC   H2S 4263   4.990   2.951   6.843 -1.4243  0.8267  0.8424
   32SAPC    C3 4264   5.255   3.408   6.942  0.6249  0.3391 -0.0605
   32SAPC    HX 4265   5.169   3.453   6.889  2.3324  2.5496 -1.1101
   32SAPC    HY 4266   5.343   3.474   6.925  3.0184 -2.2671  1.3285
   32SAPC   O31 4267   5.223   3.408   7.080  0.3627 -0.1890  0.2042
   32SAPC   C31 4268   5.196   3.537   7.128 -0.1436 -0.1402  0.0597
   32SAPC   O32 4269   5.229   3.638   7.072  0.1700  0.1000 -0.0709
   32SAPC   C32 4270   5.122   3.537   7.256 -0.5902  0.1648 -0.3269
   32SAPC   H2X 4271   5.173   3.454   7.309  1.1004 -0.8339 -3.2783
   32SAPC   H2Y 4272   5.019   3.502   7.234 -0.0528  0.3353 -3.6354
   32SAPC   C23 4273   5.097   2.858   7.011  0.5702 -0.4465  0.2951
   32SAPC   H3R 4274   5.165   2.806   6.940 -0.3591  2.2190 -2.7847
   32SAPC   H3S 4275   5.011   2.788   7.023  0.2573 -0.0570  0.3388
   32SAPC   C24 4276   5.162   2.882   7.152 -0.1402 -0.8880 -0.3919
   32SAPC   H4R 4277   5.174   2.777   7.189 -2.2071 -1.0362 -0.0433
   32SAPC   H4S 4278   5.083   2.934   7.210  0.2340 -0.4196 -0.2932
   32SAPC   C25 4279   5.294   2.957   7.164 -0.1810  1.0847  0.4661
   32SAPC   H5R 4280   5.354   2.953   7.072  0.1332 -1.0698  0.7106
   32SAPC   C26 4281   5.330   3.037   7.259 -0.1527  0.7790 -0.2942
   32SAPC   H6R 4282   5.427   3.086   7.243  0.5666  0.5884  2.7999
   32SAPC   C27 4283   5.251   3.070   7.387 -1.0389 -0.0018  0.0533
   32SAPC   H7R 4284   5.165   3.002   7.404 -0.7951  0.1337  2.0602
   32SAPC   H7S 4285   5.208   3.172   7.380  0.5255  0.8606  2.1193
   32SAPC   C28 4286   5.332   3.070   7.508  0.2240 -1.3233 -1.2272
   32SAPC   H8R 4287   5.438   3.083   7.480 -0.1566 -1.3097 -2.7788
   32SAPC   C29 4288   5.288   3.087   7.635  0.3148  0.4811 -0.2948
   32SAPC   H9R 4289   5.362   3.120   7.709 -0.6367 -0.7434  1.2718
   32SAPC  C210 4290   5.145   3.107   7.673 -0.3494  0.2993 -0.1094
   32SAPC  H10R 4291   5.113   3.018   7.731 -1.6115 -0.1454 -1.4358
   32SAPC  H10S 4292   5.085   3.132   7.583 -0.7435  0.0250  0.0775
   32SAPC  C211 4293   5.130   3.236   7.762  0.4569 -0.0361  0.0813
   32SAPC  H11R 4294   5.109   3.329   7.707 -2.2094  0.3114  1.5211
   32SAPC  C212 4295   5.130   3.255   7.893 -0.5326  0.1480 -0.4632
   32SAPC  H12R 4296   5.119   3.353   7.941 -0.6605  0.6603 -1.5121
   32SAPC  C213 4297   5.158   3.146   8.006  0.2895  0.0150  0.7554
   32SAPC  H13R 4298   5.224   3.190   8.083  2.7416 -1.2242 -0.5103
   32SAPC  H13S 4299   5.206   3.061   7.952 -4.4065 -2.0958 -0.6636
   32SAPC  C214 4300   5.028   3.087   8.059 -0.1927 -0.2286  0.1840
   32SAPC  H14R 4301   4.959   3.068   7.976 -0.0768 -1.0498  0.2622
   32SAPC  C215 4302   4.991   3.065   8.186 -0.2161  0.4089 -0.3301
   32SAPC  H15R 4303   4.889   3.026   8.200 -0.0505  0.0161 -0.2100
   32SAPC  C216 4304   5.079   3.089   8.306 -0.1037  0.4642  0.2249
   32SAPC  H16R 4305   5.186   3.097   8.277 -0.2166 -0.4636 -0.4883
   32SAPC  H16S 4306   5.073   3.002   8.374  1.6575  0.9607  1.0578
   32SAPC  C217 4307   5.033   3.202   8.388  0.4452  0.2074 -0.4443
   32SAPC  H17R 4308   4.930   3.195   8.430  0.4874 -0.1708 -0.4067
   32SAPC  H17S 4309   5.044   3.304   8.344 -1.0395 -0.1908 -1.8061
   32SAPC  C218 4310   5.132   3.219   8.510  0.0663  0.2324 -0.1350
   32SAPC  H18R 4311   5.227   3.254   8.465  0.7014 -2.0401 -0.7283
   32SAPC  H18S 4312   5.160   3.127   8.566  2.0009  1.7755  1.6041
   32SAPC  C219 4313   5.081   3.319   8.615 -0.6991 -0.0528  0.3460
   32SAPC  H19R 4314   4.991   3.279   8.666 -1.1317  1.4344  0.8196
   32SAPC  H19S 4315   5.060   3.412   8.558  0.6114  0.8281  1.2209
   32SAPC  C220 4316   5.189   3.362   8.715 -0.1709  0.4541 -0.5071
   32SAPC  H20R 4317   5.209   3.271   8.776 -3.7447 -1.4669 -1.8959
   32SAPC  H20S 4318   5.154   3.430   8.795  1.1015  0.1034  0.3877
   32SAPC  H20T 4319   5.285   3.399   8.672  0.7394  0.6618  1.5928
   32SAPC   C33 4320   5.109   3.675   7.322 -0.0362 -0.0380  0.2695
   32SAPC   H3X 4321   5.031   3.731   7.266  1.2243  0.9406 -0.5551
   32SAPC   H3Y 4322   5.194   3.740   7.292  1.9609 -2.1026  1.1759
   32SAPC   C34 4323   5.091   3.671   7.473  0.0560 -0.0352 -0.4840
   32SAPC   H4X 4324   5.001   3.626   7.520  0.6537  2.5248  3.6884
   32SAPC   H4Y 4325   5.080   3.777   7.504  0.5982 -0.3474  0.8484
   32SAPC   C35 4326   5.217   3.604   7.528 -0.1392 -0.4796  0.3557
   32SAPC   H5X 4327   5.305   3.630   7.466  0.3107 -2.7602 -0.0556
   32SAPC   H5Y 4328   5.200   3.494   7.518  0.6632 -0.5759  0.0590
   32SAPC   C36 4329   5.236   3.626   7.676 -0.8179 -0.1253  0.4212
   32SAPC   H6X 4330   5.149   3.601   7.740  0.9145 -2.0963  2.1382
   32SAPC   H6Y 4331   5.251   3.735   7.693 -0.0677 -0.1678  0.0581
   32SAPC   C37 4332   5.360   3.557   7.727 -0.1801  0.3692  0.7175
   32SAPC   H7X 4333   5.449   3.594   7.672 -0.1388  0.1210  0.6161
   32SAPC   H7Y 4334   5.349   3.447   7.717  0.5156  0.5223 -3.3237
   32SAPC   C38 4335   5.386   3.594   7.877  0.6651  0.4089 -0.4862
   32SAPC   H8X 4336   5.299   3.570   7.941  2.3674 -0.1159  1.7393
   32SAPC   H8Y 4337   5.385   3.705   7.872  1.1881  0.5269  1.4624
   32SAPC   C39 4338   5.506   3.527   7.946 -0.0959 -0.1289 -0.2935
   32SAPC   H9X 4339   5.605   3.546   7.899  0.6715  0.3243  1.4017
   32SAPC   H9Y 4340   5.472   3.422   7.937  0.3738 -0.2368 -0.8627
   32SAPC  C310 4341   5.520   3.574   8.095  0.6865 -0.1237  0.4996
   32SAPC  H10X 4342   5.458   3.664   8.116  0.4503 -0.6623  2.2420
   32SAPC  H10Y 4343   5.622   3.613   8.117  0.0293  1.0161  1.7388
   32SAPC  C311 4344   5.488   3.468   8.211  0.6765  0.1017 -0.0187
   32SAPC  H11X 4345   5.527   3.504   8.309 -0.2490 -0.7527  0.6801
   32SAPC  H11Y 4346   5.546   3.377   8.185 -0.8583 -0.8426 -0.2542
   32SAPC  C312 4347   5.342   3.422   8.218 -0.0304  0.7626  0.1334
   32SAPC  H12X 4348   5.338   3.336   8.288 -0.8293 -0.3457 -1.2180
   32SAPC  H12Y 4349   5.311   3.392   8.115  3.9796 -3.0804 -0.2775
   32SAPC  C313 4350   5.252   3.529   8.273 -0.7301 -0.3214  0.5941
   32SAPC  H13X 4351   5.147   3.495   8.285 -0.4513 -0.8110  1.7794
   32SAPC  H13Y 4352   5.257   3.614   8.201  1.9135 -0.0319  1.0415
   32SAPC  C314 4353   5.287   3.604   8.405 -0.2386 -0.2314 -0.0928
   32SAPC  H14X 4354   5.392   3.640   8.400 -0.2010  0.2560  2.6851
   32SAPC  H14Y 4355   5.290   3.525   8.482  3.4025 -1.8268 -1.6103
   32SAPC  C315 4356   5.185   3.716   8.438  0.2847 -0.5648  0.3642
   32SAPC  H15X 4357   5.086   3.666   8.427  0.4620 -0.8678  0.1205
   32SAPC  H15Y 4358   5.174   3.792   8.357  1.0580 -1.0630 -0.2263
   32SAPC  C316 4359   5.212   3.770   8.578  0.2021  0.1196  0.1597
   32SAPC  H16X 4360   5.312   3.815   8.589  0.1321  0.6167 -1.1113
   32SAPC  H16Y 4361   5.199   3.677   8.638 -0.4052 -0.5985 -1.0440
   32SAPC  C317 4362   5.103   3.877   8.623 -0.3062  0.1147  0.0345
   32SAPC  H17X 4363   5.003   3.829   8.636  0.0152 -0.1791  1.6623
   32SAPC  H17Y 4364   5.097   3.964   8.553 -1.4287  0.7555  0.8847
   32SAPC  C318 4365   5.133   3.945   8.758 -0.1398 -0.2637 -0.4396
   32SAPC  H18X 4366   5.221   4.013   8.759 -0.5333  0.2502  0.7243
   32SAPC  H18Y 4367   5.140   3.862   8.832 -1.3009 -0.3789 -0.4409
   32SAPC  H18Z 4368   5.051   4.011   8.793  1.6019  2.1031 -0.5780
   33POPC     N 4369   3.123   5.412  10.596 -0.6167 -0.1737  0.1241
   33POPC   C12 4370   3.064   5.519  10.498 -0.3232 -0.0809  0.1420
   33POPC  H12A 4371   3.153   5.564  10.455 -2.3470  0.2170 -4.2526
   33POPC  H12B 4372   3.007   5.594  10.551 -1.5336  0.4399 -1.8217
   33POPC   C13 4373   3.225   5.474  10.687 -0.8217  0.1657 -0.7190
   33POPC  H13A 4374   3.237   5.411  10.774  2.5401  1.7007  0.1070
   33POPC  H13B 4375   3.322   5.470  10.639 -0.1718 -4.3683  0.5426
   33POPC  H13C 4376   3.207   5.576  10.717  2.2842  0.6122 -0.0253
   33POPC   C14 4377   3.017   5.358  10.688 -0.8150  0.3651  0.6231
   33POPC  H14A 4378   2.942   5.302  10.635 -0.4535  0.1010  0.3818
   33POPC  H14B 4379   3.066   5.284  10.750 -0.3666  0.2687  0.1651
   33POPC  H14C 4380   2.982   5.437  10.752  0.6299  1.2085  0.4194
   33POPC   C15 4381   3.179   5.299  10.518  0.0558  0.4748  0.6190
   33POPC  H15A 4382   3.245   5.234  10.573  1.9324  1.4114 -0.3963
   33POPC  H15B 4383   3.239   5.335  10.435  1.4234  0.3966  1.5487
   33POPC  H15C 4384   3.104   5.235  10.476  0.3379  1.0376 -0.8269
   33POPC   C11 4385   2.971   5.471  10.385 -0.5986  0.4056  0.4843
   33POPC  H11A 4386   3.030   5.392  10.335 -0.8679 -0.8808  2.1482
   33POPC  H11B 4387   2.951   5.545  10.304 -0.8430  0.1555  0.3117
   33POPC     P 4388   2.733   5.515  10.470 -0.2467  0.1086  0.1672
   33POPC   O13 4389   2.770   5.608  10.572 -0.0222 -0.4149  0.3180
   33POPC   O14 4390   2.614   5.435  10.493 -0.5903  0.1978  0.2687
   33POPC   O12 4391   2.853   5.416  10.433 -0.2882 -0.1093  0.0409
   33POPC   O11 4392   2.718   5.584  10.337  0.1858  0.0852 -0.3881
   33POPC    C1 4393   2.681   5.516  10.223  0.3395 -0.2051  0.9685
   33POPC    HA 4394   2.732   5.557  10.133 -1.1143 -1.7411 -0.6573
   33POPC    HB 4395   2.723   5.414  10.232  0.4078 -0.3532 -0.7666
   33POPC    C2 4396   2.527   5.529  10.191 -1.0074 -0.1592 -0.3633
   33POPC    HS 4397   2.488   5.468  10.276  0.2542 -0.6506 -0.1172
   33POPC   O21 4398   2.506   5.457  10.068  0.0907 -0.4117  0.0418
   33POPC   C21 4399   2.379   5.433  10.038 -0.3082 -0.0650  0.0926
   33POPC   O22 4400   2.284   5.435  10.116 -0.4406 -0.4987 -0.2739
   33POPC   C22 4401   2.373   5.393   9.890  0.1582  0.2565 -0.2531
   33POPC   H2R 4402   2.438   5.314   9.847  0.8416  2.1140 -2.9326
   33POPC   H2S 4403   2.431   5.474   9.841  2.5701 -0.8435  0.6177
   33POPC    C3 4404   2.466   5.672  10.194 -0.3279 -0.1427 -0.1855
   33POPC    HX 4405   2.459   5.687  10.304 -1.2061  0.2805 -0.2903
   33POPC    HY 4406   2.361   5.684  10.162 -0.9407 -2.2770  0.8309
   33POPC   O31 4407   2.552   5.759  10.124  0.3436  0.6223  1.0953
   33POPC   C31 4408   2.512   5.770   9.988  0.2725 -0.6227  0.3086
   33POPC   O32 4409   2.422   5.708   9.935 -1.2282 -0.3827 -0.7127
   33POPC   C32 4410   2.593   5.886   9.920  0.2881  0.6797  0.3955
   33POPC   H2X 4411   2.702   5.871   9.932  0.1117 -1.9803 -0.7594
   33POPC   H2Y 4412   2.577   5.982   9.974 -2.3535  1.6653 -1.8766
   33POPC   C23 4413   2.231   5.393   9.832 -0.0209 -0.4552 -0.3376
   33POPC   H3R 4414   2.178   5.485   9.867  0.1880  0.1557 -1.5784
   33POPC   H3S 4415   2.176   5.302   9.866 -1.9751 -0.5082 -3.3209
   33POPC   C24 4416   2.230   5.395   9.679  0.0331  0.3974 -0.7058
   33POPC   H4R 4417   2.247   5.289   9.648  0.1816 -0.1861  1.2318
   33POPC   H4S 4418   2.310   5.462   9.639  3.3071 -3.0857 -0.6028
   33POPC   C25 4419   2.097   5.447   9.625 -0.2161 -0.6347  0.1753
   33POPC   H5R 4420   2.090   5.551   9.664  0.4098 -0.7381  0.5771
   33POPC   H5S 4421   2.016   5.375   9.651 -1.0758 -0.1979 -1.2124
   33POPC   C26 4422   2.098   5.475   9.470  0.0529  0.2593 -0.2055
   33POPC   H6R 4423   2.143   5.406   9.395 -1.4643 -0.6298 -0.3388
   33POPC   H6S 4424   2.163   5.565   9.458  2.4798 -0.8097  3.3714
   33POPC   C27 4425   1.950   5.505   9.417  0.0279  0.6255 -0.6418
   33POPC   H7R 4426   1.895   5.580   9.478  1.7128  0.6341  0.9768
   33POPC   H7S 4427   1.889   5.414   9.437 -0.1888  1.1148  1.0967
   33POPC   C28 4428   1.939   5.528   9.263  0.5084  0.2812  0.1803
   33POPC   H8R 4429   1.837   5.538   9.219  0.6185 -2.4267 -0.8419
   33POPC   H8S 4430   1.983   5.452   9.196 -0.4488  0.0103 -0.1582
   33POPC   C29 4431   2.019   5.649   9.234  0.4430  0.4557  0.0782
   33POPC   H91 4432   2.054   5.689   9.330  0.8023 -4.2449  2.1641
   33POPC  C210 4433   2.066   5.709   9.122  0.1701 -0.3852 -0.6614
   33POPC  H101 4434   2.145   5.785   9.134 -0.7792  0.2475  2.7425
   33POPC  C211 4435   2.041   5.670   8.976 -1.3208 -0.0199 -0.5755
   33POPC  H11R 4436   1.967   5.587   8.970  1.6685 -3.0919  1.5606
   33POPC  H11S 4437   2.136   5.615   8.961 -0.5874  0.9402  0.3787
   33POPC  C212 4438   2.021   5.786   8.871  0.1054 -0.2269  0.1272
   33POPC  H12R 4439   2.098   5.863   8.891 -0.1577  0.0777 -0.0175
   33POPC  H12S 4440   1.918   5.826   8.881  0.6944  0.9134  2.2051
   33POPC  C213 4441   2.020   5.728   8.728 -0.0737 -0.7101  0.6914
   33POPC  H13R 4442   1.919   5.697   8.694  0.4823 -0.2406 -1.5512
   33POPC  H13S 4443   2.088   5.641   8.714  1.0711  0.5407 -2.5046
   33POPC  C214 4444   2.062   5.833   8.619 -0.2160  0.2700 -0.0115
   33POPC  H14R 4445   2.154   5.889   8.644  0.6630  0.0788 -2.5112
   33POPC  H14S 4446   1.976   5.903   8.611  0.8578  1.5674 -0.5396
   33POPC  C215 4447   2.085   5.773   8.478 -0.1282 -0.5004 -0.4945
   33POPC  H15R 4448   2.004   5.696   8.475  0.5472 -1.3574  1.4740
   33POPC  H15S 4449   2.183   5.722   8.490 -0.3880 -0.5216  2.0162
   33POPC  C216 4450   2.078   5.869   8.366  0.3854 -0.6747  1.1111
   33POPC  H16R 4451   2.124   5.820   8.277  0.7418  4.3802 -1.8896
   33POPC  H16S 4452   2.145   5.956   8.385  1.0483 -1.1321  0.9039
   33POPC  C217 4453   1.934   5.938   8.333 -0.5274  0.3668  0.4029
   33POPC  H17R 4454   1.917   6.022   8.404  2.0918  1.1233  0.2663
   33POPC  H17S 4455   1.852   5.864   8.344  1.8633 -2.3554  1.0529
   33POPC  C218 4456   1.919   5.987   8.193  0.2770  0.4747  0.4780
   33POPC  H18R 4457   1.917   5.905   8.118  0.2275  1.5608 -0.7507
   33POPC  H18S 4458   2.002   6.049   8.154 -0.5061  1.0602 -0.3159
   33POPC  H18T 4459   1.831   6.051   8.167  0.2795 -0.1982 -1.3131
   33POPC   C33 4460   2.561   5.906   9.767  0.4159  0.0191  0.3789
   33POPC   H3X 4461   2.458   5.882   9.734  0.3137  2.3119 -1.1755
   33POPC   H3Y 4462   2.626   5.835   9.710  0.9893 -1.1555  2.3956
   33POPC   C34 4463   2.590   6.045   9.720  0.4488 -0.3397 -0.0462
   33POPC   H4X 4464   2.686   6.057   9.776 -0.5627 -1.9133  2.1723
   33POPC   H4Y 4465   2.509   6.115   9.747  0.5231 -0.5228  0.6556
   33POPC   C35 4466   2.635   6.058   9.575  1.1712 -0.4779 -0.4190
   33POPC   H5X 4467   2.687   5.965   9.545 -2.5923 -2.9394  0.0524
   33POPC   H5Y 4468   2.701   6.146   9.559  1.2030 -0.2375  0.8751
   33POPC   C36 4469   2.511   6.081   9.484 -0.8725 -0.5110 -0.3133
   33POPC   H6X 4470   2.468   6.181   9.506  1.0254  0.1677  0.4609
   33POPC   H6Y 4471   2.435   6.004   9.508 -0.0428 -1.0387  0.7015
   33POPC   C37 4472   2.542   6.071   9.332 -0.5533 -0.1940 -0.6463
   33POPC   H7X 4473   2.604   5.984   9.301 -1.1521 -1.7306  2.1571
   33POPC   H7Y 4474   2.594   6.162   9.294  2.2484 -0.3582  2.4012
   33POPC   C38 4475   2.410   6.057   9.250  0.0166 -0.0667 -0.0672
   33POPC   H8X 4476   2.339   6.126   9.302 -0.4079 -0.8289  0.3881
   33POPC   H8Y 4477   2.374   5.953   9.265 -1.7676  0.8959  3.5967
   33POPC   C39 4478   2.424   6.111   9.104  0.0148  0.0642  0.8505
   33POPC   H9X 4479   2.501   6.048   9.055 -0.5885 -0.5382  0.6672
   33POPC   H9Y 4480   2.461   6.216   9.108 -0.2224  0.2491 -0.9500
   33POPC  C310 4481   2.294   6.099   9.023  0.0794  0.5427  0.3090
   33POPC  H10X 4482   2.207   6.145   9.074  0.3177 -0.4210  1.6360
   33POPC  H10Y 4483   2.267   5.992   9.010  1.9414 -0.0819  1.2411
   33POPC  C311 4484   2.309   6.168   8.887  0.9176  0.3249 -0.1062
   33POPC  H11X 4485   2.395   6.123   8.833  1.1221  0.7303 -0.1176
   33POPC  H11Y 4486   2.341   6.273   8.901  1.4093  0.3450 -1.2524
   33POPC  C312 4487   2.183   6.154   8.813 -0.0846 -1.0422 -0.4991
   33POPC  H12X 4488   2.104   6.218   8.858 -1.7875 -2.3292 -1.5187
   33POPC  H12Y 4489   2.146   6.050   8.815 -3.7872  0.0434  3.4580
   33POPC  C313 4490   2.198   6.212   8.673  0.6903  0.0053  0.1026
   33POPC  H13X 4491   2.099   6.186   8.631 -0.4277  1.2090  1.8546
   33POPC  H13Y 4492   2.283   6.162   8.622 -1.4020 -0.0623 -3.6069
   33POPC  C314 4493   2.204   6.366   8.652  0.5783 -0.1304  0.2147
   33POPC  H14X 4494   2.210   6.382   8.542 -2.7800 -2.0046 -0.3746
   33POPC  H14Y 4495   2.294   6.408   8.701 -0.7200  2.0291  0.9064
   33POPC  C315 4496   2.095   6.458   8.700  0.3665  0.0074  0.0989
   33POPC  H15X 4497   2.134   6.561   8.711  2.3829 -0.6076 -0.7233
   33POPC  H15Y 4498   2.075   6.429   8.805 -1.9373 -0.8494 -0.5254
   33POPC  C316 4499   1.967   6.459   8.625  0.5162  0.3638  0.8821
   33POPC  H16X 4500   1.977   6.504   8.524 -0.9649 -2.5514 -0.6938
   33POPC  H16Y 4501   1.883   6.507   8.681 -0.4360 -2.6521  2.2428
   33POPC  H16Z 4502   1.937   6.353   8.611  0.5723  0.3947  0.5246
   34POPC     N 4503   2.880   5.981  10.707 -0.8825 -0.5697 -0.6627
   34POPC   C12 4504   2.898   6.102  10.631 -0.2668 -0.0965  0.1948
   34POPC  H12A 4505   2.808   6.155  10.656 -1.7046 -2.0591 -0.5791
   34POPC  H12B 4506   2.887   6.078  10.526  0.6109 -0.7448  0.2387
   34POPC   C13 4507   2.748   5.915  10.675 -1.1495  0.2274 -0.2558
   34POPC  H13A 4508   2.665   5.967  10.721 -0.9870  0.3743 -0.1282
   34POPC  H13B 4509   2.736   5.906  10.568  0.1269  2.2464 -0.6061
   34POPC  H13C 4510   2.753   5.811  10.704  0.9100  0.0909 -0.9308
   34POPC   C14 4511   2.996   5.885  10.680 -0.7496  0.1203 -0.4628
   34POPC  H14A 4512   3.089   5.938  10.668 -0.6114 -0.0970 -0.3490
   34POPC  H14B 4513   2.998   5.806  10.753  0.9529 -0.9923 -1.6280
   34POPC  H14C 4514   2.991   5.845  10.580 -2.5689 -2.3281  0.5091
   34POPC   C15 4515   2.872   6.008  10.850  0.0628 -0.0319 -0.0857
   34POPC  H15A 4516   2.956   6.061  10.892 -1.4692 -0.2860  3.7476
   34POPC  H15B 4517   2.860   5.915  10.904  2.7241  0.2122  1.0821
   34POPC  H15C 4518   2.789   6.065  10.889  0.5887  0.8589 -0.2535
   34POPC   C11 4519   3.023   6.186  10.661 -0.3234 -0.4041 -0.2121
   34POPC  H11A 4520   3.014   6.206  10.770 -1.5219  0.7152 -0.4926
   34POPC  H11B 4521   3.006   6.278  10.602  0.4057  0.5450  1.0110
   34POPC     P 4522   3.174   6.107  10.457  0.3472 -0.0381  0.2161
   34POPC   O13 4523   3.133   5.973  10.401  0.0220  0.2234 -0.3380
   34POPC   O14 4524   3.315   6.141  10.434  1.3947 -0.0331  0.3782
   34POPC   O12 4525   3.146   6.125  10.614 -0.4124 -0.3636 -0.2693
   34POPC   O11 4526   3.082   6.213  10.390  0.3027 -0.3843 -0.4558
   34POPC    C1 4527   2.977   6.180  10.296 -0.6835  0.1872 -0.0073
   34POPC    HA 4528   2.888   6.245  10.307 -1.5686 -0.9672 -0.1048
   34POPC    HB 4529   2.945   6.074  10.308  0.1638 -0.1665 -0.7718
   34POPC    C2 4530   3.027   6.184  10.153  0.4782 -0.1990 -0.4385
   34POPC    HS 4531   3.116   6.117  10.162  0.5757  0.0780  0.7718
   34POPC   O21 4532   3.058   6.323  10.119  0.3969  0.6542 -0.3338
   34POPC   C21 4533   3.154   6.324  10.028 -0.0133  0.5466  0.9778
   34POPC   O22 4534   3.233   6.234  10.006 -0.7025 -0.1122 -0.2384
   34POPC   C22 4535   3.135   6.453   9.941 -0.0835  0.0040 -0.1911
   34POPC   H2R 4536   3.163   6.540  10.003  0.8873 -0.1771 -0.3642
   34POPC   H2S 4537   3.028   6.469   9.916 -0.2446 -0.2645  0.3284
   34POPC    C3 4538   2.926   6.119  10.048 -0.7619 -0.8223  0.7561
   34POPC    HX 4539   2.833   6.178  10.061 -0.9399 -1.0699  0.6154
   34POPC    HY 4540   2.899   6.015  10.078 -3.1639 -0.7893 -0.9521
   34POPC   O31 4541   2.982   6.123   9.914 -0.4765 -0.0974 -0.2226
   34POPC   C31 4542   3.042   6.016   9.866 -0.0097 -0.8330 -0.6297
   34POPC   O32 4543   3.043   5.908   9.917  1.0956 -0.3233 -0.1679
   34POPC   C32 4544   3.098   6.043   9.728  0.1404  0.2843 -0.5261
   34POPC   H2X 4545   3.119   5.947   9.676  1.1049  0.5634 -0.6646
   34POPC   H2Y 4546   3.197   6.093   9.733  1.7480 -2.7096  0.4661
   34POPC   C23 4547   3.220   6.457   9.814 -0.3507 -0.0022  0.2859
   34POPC   H3R 4548   3.247   6.355   9.779  1.0896  0.6138 -0.4826
   34POPC   H3S 4549   3.314   6.515   9.828  1.0558 -1.2178 -2.9989
   34POPC   C24 4550   3.130   6.514   9.700  0.2777 -0.7212  0.2626
   34POPC   H4R 4551   3.086   6.613   9.726 -1.4846 -1.7061  1.2678
   34POPC   H4S 4552   3.039   6.452   9.683 -0.2260  0.3849 -1.3116
   34POPC   C25 4553   3.215   6.525   9.574 -0.5851 -0.0237  0.1802
   34POPC   H5R 4554   3.244   6.422   9.547 -0.6493  0.0062 -0.0055
   34POPC   H5S 4555   3.302   6.588   9.602 -0.5881  1.0241 -1.9726
   34POPC   C26 4556   3.152   6.594   9.449  0.5805  0.5277 -0.4504
   34POPC   H6R 4557   3.077   6.670   9.481 -0.0485  1.2932 -3.4219
   34POPC   H6S 4558   3.105   6.526   9.375  1.5147  1.5932 -2.0684
   34POPC   C27 4559   3.267   6.652   9.370  0.0652 -0.1476 -1.1233
   34POPC   H7R 4560   3.354   6.583   9.365 -1.0666 -1.7387  0.0196
   34POPC   H7S 4561   3.310   6.740   9.422  1.2398  0.5192 -3.0923
   34POPC   C28 4562   3.228   6.690   9.224  1.1417  0.5956 -0.1930
   34POPC   H8R 4563   3.323   6.730   9.183  1.4683 -2.7494 -3.1973
   34POPC   H8S 4564   3.150   6.768   9.231 -1.0794 -1.5781  1.0667
   34POPC   C29 4565   3.172   6.570   9.145  0.2421 -0.4945 -0.3458
   34POPC   H91 4566   3.149   6.474   9.194 -0.3706 -0.0422  0.2793
   34POPC  C210 4567   3.163   6.569   9.007  0.4417  0.5121  0.0136
   34POPC  H101 4568   3.117   6.486   8.951 -0.9143  1.3794 -0.2198
   34POPC  C211 4569   3.199   6.682   8.917 -0.3457 -1.1655  0.5181
   34POPC  H11R 4570   3.194   6.779   8.970 -1.8894 -0.9157 -0.0230
   34POPC  H11S 4571   3.125   6.703   8.837  2.4648 -0.6079 -2.1223
   34POPC  C212 4572   3.343   6.681   8.857  0.4792 -0.0321  0.4470
   34POPC  H12R 4573   3.349   6.579   8.813  0.4076  0.7171 -1.3493
   34POPC  H12S 4574   3.426   6.689   8.931  2.5054  0.6660 -1.7745
   34POPC  C213 4575   3.366   6.791   8.756 -0.4454  0.2049  0.7772
   34POPC  H13R 4576   3.476   6.784   8.742 -0.6513 -0.3435 -0.8080
   34POPC  H13S 4577   3.338   6.886   8.807  1.4510  1.0680  0.2735
   34POPC  C214 4578   3.295   6.788   8.617 -0.5274 -0.2391 -0.5104
   34POPC  H14R 4579   3.294   6.893   8.581 -0.9189  0.1806  0.6688
   34POPC  H14S 4580   3.188   6.765   8.634 -1.1083  2.0946 -0.7572
   34POPC  C215 4581   3.364   6.699   8.512 -0.5953 -0.1751 -0.6512
   34POPC  H15R 4582   3.472   6.719   8.521 -0.8382  1.2318 -0.6258
   34POPC  H15S 4583   3.330   6.744   8.416  0.7748  3.2263  0.3124
   34POPC  C216 4584   3.331   6.554   8.507  0.0209  0.8792  0.1994
   34POPC  H16R 4585   3.370   6.511   8.602 -0.8618 -0.6346 -0.0891
   34POPC  H16S 4586   3.377   6.501   8.421  1.0213  0.3833  1.0190
   34POPC  C217 4587   3.181   6.517   8.501 -0.6079  0.1486 -0.5139
   34POPC  H17R 4588   3.139   6.583   8.422  0.6444 -0.5889 -1.8541
   34POPC  H17S 4589   3.143   6.538   8.603 -2.3319 -2.9063 -0.4046
   34POPC  C218 4590   3.145   6.369   8.476  0.0770 -0.1894  0.0569
   34POPC  H18R 4591   3.036   6.365   8.496  0.1305 -0.2141  0.3474
   34POPC  H18S 4592   3.194   6.303   8.550 -0.2172 -0.2048  0.2369
   34POPC  H18T 4593   3.165   6.346   8.369  1.2904  0.4323  0.1423
   34POPC   C33 4594   3.000   6.123   9.638  0.7632 -0.1622  0.3892
   34POPC   H3X 4595   2.987   6.225   9.680  0.6738  0.1669 -0.4124
   34POPC   H3Y 4596   2.909   6.063   9.623  1.8368 -1.3828 -1.8075
   34POPC   C34 4597   3.055   6.153   9.497 -0.3442  0.8101 -0.5101
   34POPC   H4X 4598   3.104   6.059   9.461 -1.9063  0.1930 -1.1308
   34POPC   H4Y 4599   3.129   6.236   9.493  0.0838  0.4035 -1.6170
   34POPC   C35 4600   2.950   6.173   9.391  0.5654 -0.6310 -0.4244
   34POPC   H5X 4601   2.879   6.246   9.434  1.3850  0.5396 -1.0096
   34POPC   H5Y 4602   2.884   6.084   9.384  0.1852 -0.2964 -1.2424
   34POPC   C36 4603   2.997   6.228   9.261  0.1929 -0.2240  0.6342
   34POPC   H6X 4604   3.098   6.188   9.239  1.7985  2.0170  3.1775
   34POPC   H6Y 4605   3.019   6.337   9.271 -0.5496  0.4381 -3.2126
   34POPC   C37 4606   2.909   6.201   9.141 -0.0680  0.1599  0.3248
   34POPC   H7X 4607   2.813   6.254   9.157 -0.0561  0.9553 -1.9102
   34POPC   H7Y 4608   2.879   6.094   9.129  2.2064 -0.9018  3.0187
   34POPC   C38 4609   2.966   6.260   9.011 -0.2948  0.8002 -0.5419
   34POPC   H8X 4610   3.062   6.213   8.980 -0.3670 -0.4022  0.9379
   34POPC   H8Y 4611   2.974   6.368   9.039 -0.7143  0.7174 -0.0812
   34POPC   C39 4612   2.862   6.242   8.909 -0.2297  0.1616  0.5952
   34POPC   H9X 4613   2.771   6.299   8.936  0.2979  0.8366  0.9595
   34POPC   H9Y 4614   2.839   6.133   8.908  1.1690 -0.1655 -0.9739
   34POPC  C310 4615   2.900   6.279   8.764 -0.3582 -0.4141 -0.0894
   34POPC  H10X 4616   2.977   6.213   8.717 -1.6206 -0.9316 -1.5018
   34POPC  H10Y 4617   2.948   6.379   8.759 -0.2710 -0.5046 -1.7783
   34POPC  C311 4618   2.774   6.313   8.679  0.4783  0.3738 -0.0191
   34POPC  H11X 4619   2.797   6.400   8.615  1.8035 -0.4033 -0.6419
   34POPC  H11Y 4620   2.687   6.344   8.741 -2.8908 -2.3758 -2.9117
   34POPC  C312 4621   2.734   6.192   8.593 -0.8216  0.1412  0.6622
   34POPC  H12X 4622   2.766   6.101   8.649  1.3908  0.3445 -0.1635
   34POPC  H12Y 4623   2.796   6.204   8.501 -0.8090  0.4760  0.7145
   34POPC  C313 4624   2.587   6.184   8.562 -0.3532  0.1224 -0.5547
   34POPC  H13X 4625   2.536   6.173   8.660  4.3085 -0.1162  2.1727
   34POPC  H13Y 4626   2.572   6.090   8.505  2.6694 -0.9833  0.2628
   34POPC  C314 4627   2.532   6.291   8.477 -0.1944  0.4800  0.5361
   34POPC  H14X 4628   2.561   6.392   8.514  3.5049 -0.9022  1.7962
   34POPC  H14Y 4629   2.421   6.285   8.474 -0.6095  4.8617 -1.4882
   34POPC  C315 4630   2.580   6.272   8.332 -0.1438  0.6228  0.5844
   34POPC  H15X 4631   2.568   6.167   8.298 -2.5349  1.0026  0.0305
   34POPC  H15Y 4632   2.691   6.276   8.332  0.1315 -3.4380  1.0222
   34POPC  C316 4633   2.512   6.368   8.244  0.0373 -0.6901  0.0790
   34POPC  H16X 4634   2.412   6.329   8.218  0.5868 -2.6296  0.7153
   34POPC  H16Y 4635   2.561   6.410   8.153 -0.4618  0.4379  0.3172
   34POPC  H16Z 4636   2.483   6.457   8.303  0.2202 -0.5064 -0.1029
   35POPC     N 4637   6.346   3.214  11.007 -0.3007 -0.5865 -0.2357
   35POPC   C12 4638   6.278   3.257  10.879  0.6298  0.1777  0.1765
   35POPC  H12A 4639   6.269   3.364  10.892 -0.6940 -0.0539  1.4132
   35POPC  H12B 4640   6.174   3.228  10.878  0.8542 -0.6361 -0.6785
   35POPC   C13 4641   6.351   3.064  11.027  0.0619 -0.2560  0.5783
   35POPC  H13A 4642   6.414   3.003  10.964 -0.2866  0.2811 -0.3074
   35POPC  H13B 4643   6.386   3.044  11.128  0.4097  1.5007  0.8381
   35POPC  H13C 4644   6.252   3.021  11.022 -1.0233  2.2201 -1.3149
   35POPC   C14 4645   6.475   3.273  11.029  0.1111 -0.4651 -0.8966
   35POPC  H14A 4646   6.471   3.379  11.049 -0.5047 -0.9299  1.7253
   35POPC  H14B 4647   6.535   3.218  11.100  1.1976  1.1279 -0.5414
   35POPC  H14C 4648   6.533   3.253  10.939  0.9617 -2.3819  0.0092
   35POPC   C15 4649   6.260   3.254  11.124  0.2131  0.4944  0.1545
   35POPC  H15A 4650   6.180   3.181  11.129  0.8421 -0.1550  0.9330
   35POPC  H15B 4651   6.217   3.352  11.108  0.4200  0.4835 -0.4815
   35POPC  H15C 4652   6.313   3.262  11.218  0.5445 -3.5664  0.4663
   35POPC   C11 4653   6.348   3.218  10.749 -0.3312  0.6835  0.5239
   35POPC  H11A 4654   6.288   3.248  10.661  1.7437  1.1249 -0.7823
   35POPC  H11B 4655   6.357   3.108  10.733  3.1117  1.0149 -0.4656
   35POPC     P 4656   6.476   3.429  10.692  0.5448 -0.1722 -0.2817
   35POPC   O13 4657   6.619   3.467  10.693 -0.2539  0.3920 -0.9670
   35POPC   O14 4658   6.389   3.517  10.774 -0.0154  0.0440  0.0012
   35POPC   O12 4659   6.479   3.276  10.739 -0.0581 -0.3253  0.0249
   35POPC   O11 4660   6.431   3.428  10.545  0.1051 -0.1728  0.2559
   35POPC    C1 4661   6.526   3.367  10.458  0.5296 -0.6694 -0.3455
   35POPC    HA 4662   6.583   3.280  10.496 -1.3210 -1.4656  0.7572
   35POPC    HB 4663   6.580   3.453  10.412  0.8294  0.5853  2.1775
   35POPC    C2 4664   6.455   3.307  10.332  0.5985  0.2648 -0.4025
   35POPC    HS 4665   6.400   3.394  10.291  0.2387 -0.2060 -0.9317
   35POPC   O21 4666   6.364   3.199  10.380 -0.0996 -0.0428  0.0552
   35POPC   C21 4667   6.261   3.169  10.297  0.5297  0.4205  0.2377
   35POPC   O22 4668   6.240   3.235  10.197 -0.6014 -0.4275  0.3981
   35POPC   C22 4669   6.185   3.055  10.366  0.6379 -0.2538 -0.0267
   35POPC   H2R 4670   6.130   3.115  10.442 -0.0132 -0.2845 -0.4698
   35POPC   H2S 4671   6.256   2.994  10.426 -0.9342 -0.2743  1.9358
   35POPC    C3 4672   6.557   3.254  10.229  0.6848  0.5386  0.4286
   35POPC    HX 4673   6.590   3.157  10.271  0.4157  0.1017 -0.3267
   35POPC    HY 4674   6.647   3.317  10.244 -0.8615  2.4054  2.4362
   35POPC   O31 4675   6.514   3.256  10.093  0.6539 -0.1083  0.1020
   35POPC   C31 4676   6.512   3.138  10.031  0.0163 -0.7663  0.0998
   35POPC   O32 4677   6.563   3.037  10.074  0.6670  0.0588  0.1512
   35POPC   C32 4678   6.443   3.144   9.891  0.2191  0.1886  0.2116
   35POPC   H2X 4679   6.380   3.236   9.887 -1.0368 -0.6219  0.6721
   35POPC   H2Y 4680   6.368   3.061   9.892  2.4493 -2.0077 -1.6628
   35POPC   C23 4681   6.078   2.983  10.281 -0.6721 -0.5476  0.2641
   35POPC   H3R 4682   6.040   3.050  10.201  1.5546 -0.5901 -0.9142
   35POPC   H3S 4683   5.999   2.955  10.354 -1.7008  0.5098 -0.4031
   35POPC   C24 4684   6.136   2.871  10.200 -0.5050  0.2371 -1.0250
   35POPC   H4R 4685   6.048   2.816  10.160 -2.4201  1.8133  0.8004
   35POPC   H4S 4686   6.185   2.806  10.275  0.2948  2.5199  0.5261
   35POPC   C25 4687   6.242   2.916  10.101  1.0922 -0.4563  1.0912
   35POPC   H5R 4688   6.337   2.941  10.153  0.7040 -0.5622  1.8574
   35POPC   H5S 4689   6.200   2.997  10.037  0.8201  0.8013  2.7812
   35POPC   C26 4690   6.284   2.804  10.002  0.6865 -0.1487 -0.0554
   35POPC   H6R 4691   6.320   2.713  10.056  1.7171 -1.2629 -2.4521
   35POPC   H6S 4692   6.366   2.851   9.943 -0.4758  1.7408 -0.2241
   35POPC   C27 4693   6.176   2.771   9.905  0.4524  0.4106 -0.4383
   35POPC   H7R 4694   6.139   2.862   9.853 -2.1768 -0.5101 -0.3150
   35POPC   H7S 4695   6.093   2.750   9.976 -0.6412  3.5707 -0.6141
   35POPC   C28 4696   6.196   2.653   9.805  0.0315 -0.2614 -0.2212
   35POPC   H8R 4697   6.216   2.566   9.871 -0.3205 -0.7012 -0.6916
   35POPC   H8S 4698   6.281   2.665   9.734  0.4992 -2.0232 -0.0130
   35POPC   C29 4699   6.069   2.633   9.725  0.0651  0.2521 -0.4802
   35POPC   H91 4700   5.976   2.648   9.783 -0.4989 -2.5095 -0.5513
   35POPC  C210 4701   6.062   2.586   9.600  0.2623 -1.0338 -0.0067
   35POPC  H101 4702   5.962   2.567   9.559 -0.1210  1.0079 -0.1343
   35POPC  C211 4703   6.181   2.546   9.509 -0.2924  0.7264 -0.4494
   35POPC  H11R 4704   6.158   2.445   9.468  0.3084 -0.5771  2.2082
   35POPC  H11S 4705   6.275   2.541   9.568  0.2131 -0.0112 -1.3058
   35POPC  C212 4706   6.226   2.628   9.390  0.3221 -0.4774 -0.3074
   35POPC  H12R 4707   6.151   2.617   9.308  2.3012 -2.1450 -2.0271
   35POPC  H12S 4708   6.317   2.577   9.352  0.1810 -1.0485  0.1023
   35POPC  C213 4709   6.258   2.778   9.403  0.0329  0.4781  0.4435
   35POPC  H13R 4710   6.341   2.797   9.475  0.7128 -0.5696 -0.0385
   35POPC  H13S 4711   6.175   2.840   9.444  0.1808  1.5895 -0.8483
   35POPC  C214 4712   6.300   2.835   9.266  0.1688 -0.2144  0.0565
   35POPC  H14R 4713   6.215   2.838   9.194  0.4402  1.5248 -0.2448
   35POPC  H14S 4714   6.386   2.780   9.223 -0.2142 -1.0966  0.3959
   35POPC  C215 4715   6.352   2.984   9.263 -0.0936  0.1605  0.3154
   35POPC  H15R 4716   6.413   2.998   9.355 -3.0723  1.0674  2.3328
   35POPC  H15S 4717   6.267   3.055   9.278  0.5093  0.9441  0.0415
   35POPC  C216 4718   6.440   3.026   9.146  0.0330  0.0134  2.0453
   35POPC  H16R 4719   6.537   2.972   9.151  0.1459 -0.6798 -2.7999
   35POPC  H16S 4720   6.460   3.134   9.167 -0.5154  0.0560  2.3594
   35POPC  C217 4721   6.388   3.002   8.998 -0.5945 -0.0022 -0.8053
   35POPC  H17R 4722   6.280   3.027   8.990 -0.7186 -0.7335 -1.6178
   35POPC  H17S 4723   6.394   2.892   8.985  0.3162 -0.1102  0.4201
   35POPC  C218 4724   6.467   3.078   8.891  0.7049 -0.5140  0.2054
   35POPC  H18R 4725   6.415   3.059   8.794 -0.0043 -0.0540  0.4836
   35POPC  H18S 4726   6.570   3.039   8.876  1.2325  0.8240  0.2459
   35POPC  H18T 4727   6.461   3.188   8.905  1.4717  0.1791 -3.6936
   35POPC   C33 4728   6.547   3.130   9.775 -0.0386  0.0784 -0.3976
   35POPC   H3X 4729   6.600   3.032   9.770 -1.9397 -0.9758 -2.1053
   35POPC   H3Y 4730   6.628   3.205   9.770  0.5457 -0.6023 -1.8317
   35POPC   C34 4731   6.477   3.140   9.634 -0.4138 -0.3338 -0.6980
   35POPC   H4X 4732   6.372   3.104   9.637 -1.5090  2.6497  0.2557
   35POPC   H4Y 4733   6.532   3.090   9.551 -0.0608 -2.0643  0.5259
   35POPC   C35 4734   6.469   3.280   9.571 -0.2217 -0.6546 -0.2022
   35POPC   H5X 4735   6.562   3.341   9.583 -0.8732  0.2086  0.6508
   35POPC   H5Y 4736   6.395   3.341   9.628 -2.3389 -1.3332 -2.0853
   35POPC   C36 4737   6.431   3.291   9.424  0.0570  0.3206 -0.3570
   35POPC   H6X 4738   6.337   3.236   9.406  0.1191  0.6847 -1.8753
   35POPC   H6Y 4739   6.511   3.250   9.359  0.8246 -1.2728  1.4591
   35POPC   C37 4740   6.418   3.443   9.378 -0.3678  0.2141 -0.6816
   35POPC   H7X 4741   6.518   3.489   9.393 -0.5102  0.2352  0.2559
   35POPC   H7Y 4742   6.360   3.487   9.462  1.6529  1.5188  0.1097
   35POPC   C38 4743   6.375   3.474   9.239  0.2880 -0.4578  0.0484
   35POPC   H8X 4744   6.268   3.445   9.237 -0.2094  1.2776 -0.0427
   35POPC   H8Y 4745   6.425   3.401   9.172  1.0303  0.0147  0.0734
   35POPC   C39 4746   6.385   3.620   9.179  0.5629  0.9969  0.0655
   35POPC   H9X 4747   6.311   3.682   9.234 -0.4262  0.7171 -0.8944
   35POPC   H9Y 4748   6.362   3.613   9.070  0.3433  1.4731  0.0801
   35POPC  C310 4749   6.525   3.667   9.198  0.3796 -0.3053 -0.1651
   35POPC  H10X 4750   6.599   3.599   9.150  2.1266  0.7692  0.8881
   35POPC  H10Y 4751   6.555   3.681   9.303  0.4241  1.7707 -0.4190
   35POPC  C311 4752   6.556   3.805   9.135  0.3029  0.4719 -0.3129
   35POPC  H11X 4753   6.508   3.879   9.202 -1.4304 -0.6229 -0.2878
   35POPC  H11Y 4754   6.519   3.822   9.032 -1.0925 -3.3047 -0.6131
   35POPC  C312 4755   6.710   3.818   9.125 -0.3161 -0.0284  0.1259
   35POPC  H12X 4756   6.745   3.723   9.080 -0.4400 -0.3053  0.5983
   35POPC  H12Y 4757   6.752   3.826   9.228  1.8952  1.2186 -0.8168
   35POPC  C313 4758   6.745   3.930   9.031  0.6332 -0.2260  0.6185
   35POPC  H13X 4759   6.660   4.000   9.017  0.1988 -1.1635 -1.9872
   35POPC  H13Y 4760   6.777   3.885   8.935 -1.8361  0.8494 -0.8058
   35POPC  C314 4761   6.865   4.009   9.084 -0.2127  0.5811  0.1193
   35POPC  H14X 4762   6.940   3.942   9.131 -0.7261 -0.4182 -0.4690
   35POPC  H14Y 4763   6.825   4.074   9.165  2.2001 -0.1767  2.0411
   35POPC  C315 4764   6.918   4.108   8.977  0.3082  0.4661  0.1054
   35POPC  H15X 4765   6.837   4.181   8.958 -0.7081 -0.5452  0.4200
   35POPC  H15Y 4766   6.945   4.050   8.886 -0.3657  0.8585 -0.3487
   35POPC  C316 4767   7.047   4.187   9.025  0.3102  0.6308  0.0057
   35POPC  H16X 4768   7.018   4.251   9.112 -0.5393 -1.4778  1.3676
   35POPC  H16Y 4769   7.084   4.250   8.942  2.8097 -1.7699 -0.8252
   35POPC  H16Z 4770   7.131   4.119   9.051  1.9327  0.3066 -5.0014
   36POPC     N 4771   2.193   0.285  11.263  0.5470  0.1053  0.6702
   36POPC   C12 4772   2.191   0.190  11.140  0.0259 -0.3891  0.2965
   36POPC  H12A 4773   2.087   0.167  11.118 -0.3295  2.1444 -1.1022
   36POPC  H12B 4774   2.244   0.098  11.157  2.5664 -0.1162 -4.5228
   36POPC   C13 4775   2.101   0.397  11.229 -0.2705 -0.2675 -0.8105
   36POPC  H13A 4776   2.004   0.374  11.189  0.0431  0.1241 -1.8184
   36POPC  H13B 4777   2.080   0.455  11.318  2.4398  0.0253 -0.2583
   36POPC  H13C 4778   2.150   0.463  11.159 -1.2383  1.6143  0.2095
   36POPC   C14 4779   2.163   0.205  11.387 -0.4647 -0.5969  0.5554
   36POPC  H14A 4780   2.060   0.174  11.376 -1.3150  2.3371 -0.9835
   36POPC  H14B 4781   2.227   0.118  11.389 -1.2139 -1.1395  1.2214
   36POPC  H14C 4782   2.178   0.267  11.474  1.3559  0.6754 -0.5774
   36POPC   C15 4783   2.329   0.345  11.269 -0.6889 -0.0987 -0.5417
   36POPC  H15A 4784   2.408   0.275  11.290  1.4265  1.4854 -2.7272
   36POPC  H15B 4785   2.325   0.423  11.345  0.6073 -1.2584  0.7753
   36POPC  H15C 4786   2.359   0.385  11.173 -0.9215  0.5289 -0.3618
   36POPC   C11 4787   2.258   0.245  11.013  0.1196  0.0552 -0.4517
   36POPC  H11A 4788   2.218   0.348  11.006 -0.7129 -0.2181  0.0555
   36POPC  H11B 4789   2.210   0.192  10.928  1.2088 -1.4103 -0.2076
   36POPC     P 4790   2.489   0.121  10.986 -0.3249  0.0903 -0.1077
   36POPC   O13 4791   2.434   0.008  11.069 -0.2628  0.0253  0.2879
   36POPC   O14 4792   2.628   0.161  11.028 -0.2486 -0.2173 -0.1774
   36POPC   O12 4793   2.397   0.249  11.007 -0.0307 -0.8517  0.0549
   36POPC   O11 4794   2.491   0.097  10.827 -0.1652 -0.2883 -0.2303
   36POPC    C1 4795   2.482   0.203  10.728  0.0389  0.2541 -0.0767
   36POPC    HA 4796   2.575   0.202  10.667  0.7294  1.8580  0.8884
   36POPC    HB 4797   2.463   0.299  10.779  2.1072  0.4153  0.4972
   36POPC    C2 4798   2.376   0.172  10.626  0.1389  0.0978 -0.2769
   36POPC    HS 4799   2.283   0.137  10.677 -0.7537  1.4813 -0.8857
   36POPC   O21 4800   2.442   0.064  10.545 -0.1795  0.6160 -0.0355
   36POPC   C21 4801   2.373  -0.045  10.527  0.2584 -0.0927 -0.4953
   36POPC   O22 4802   2.265  -0.066  10.579  0.0630 -0.0983  0.2981
   36POPC   C22 4803   2.447  -0.152  10.449  0.0026 -0.0531  0.3963
   36POPC   H2R 4804   2.503  -0.217  10.520  1.1329 -1.0761 -1.3688
   36POPC   H2S 4805   2.534  -0.106  10.398 -0.5871 -0.0879 -0.6572
   36POPC    C3 4806   2.346   0.293  10.539  0.4421 -0.7519  0.3445
   36POPC    HX 4807   2.438   0.318  10.483 -1.4783 -1.9314 -3.7417
   36POPC    HY 4808   2.327   0.379  10.607  2.2001  0.3349 -0.4610
   36POPC   O31 4809   2.245   0.265  10.437 -0.4042  0.4872  0.1276
   36POPC   C31 4810   2.188   0.364  10.382  0.0984  0.1002 -0.1465
   36POPC   O32 4811   2.198   0.482  10.415  0.1109 -0.1350  0.3738
   36POPC   C32 4812   2.096   0.311  10.276  0.0766 -0.1398 -0.4088
   36POPC   H2X 4813   2.001   0.368  10.289  0.2161  0.0422 -0.1739
   36POPC   H2Y 4814   2.062   0.208  10.301  2.3033 -0.6740  0.5911
   36POPC   C23 4815   2.367  -0.236  10.350  0.4353 -0.1991  0.2561
   36POPC   H3R 4816   2.270  -0.273  10.388 -0.3702  2.8753  1.4339
   36POPC   H3S 4817   2.432  -0.324  10.329 -0.1583 -0.5638 -0.0544
   36POPC   C24 4818   2.329  -0.161  10.219  0.0800 -0.1704 -1.1864
   36POPC   H4R 4819   2.409  -0.143  10.144  0.9509  0.9563 -0.0450
   36POPC   H4S 4820   2.291  -0.060  10.247 -0.2883  0.4838 -3.8468
   36POPC   C25 4821   2.196  -0.223  10.160 -0.4311 -0.7183  0.3718
   36POPC   H5R 4822   2.113  -0.195  10.227 -0.3786 -0.8810  0.5042
   36POPC   H5S 4823   2.204  -0.333  10.154 -2.0544 -0.9587  1.9900
   36POPC   C26 4824   2.169  -0.159  10.015 -0.1639  0.1600 -0.1107
   36POPC   H6R 4825   2.239  -0.203   9.940  1.2482  0.7929  0.7909
   36POPC   H6S 4826   2.191  -0.050  10.020 -1.7883  0.5464 -0.6660
   36POPC   C27 4827   2.022  -0.171   9.972  0.8964 -0.1662  0.8029
   36POPC   H7R 4828   1.952  -0.126  10.046 -0.1048  1.1493 -0.8611
   36POPC   H7S 4829   1.999  -0.279   9.959  1.8982 -0.5533  2.0906
   36POPC   C28 4830   1.987  -0.088   9.835 -0.2214 -0.3176  0.0934
   36POPC   H8R 4831   1.977   0.022   9.853  2.1516  0.3064 -1.8570
   36POPC   H8S 4832   1.888  -0.123   9.800 -0.6777  1.5210 -0.6038
   36POPC   C29 4833   2.082  -0.117   9.717 -0.2051 -0.1128 -0.1643
   36POPC   H91 4834   2.176  -0.169   9.742 -0.3663 -0.3383 -0.0231
   36POPC  C210 4835   2.056  -0.089   9.590 -0.5896 -0.3167  0.4197
   36POPC  H101 4836   2.117  -0.138   9.512 -1.5980 -1.4128  0.3013
   36POPC  C211 4837   1.930  -0.023   9.548  0.7304  0.5132  0.4806
   36POPC  H11R 4838   1.876   0.031   9.628 -2.2722  0.1584 -1.1712
   36POPC  H11S 4839   1.859  -0.107   9.534  1.2806 -0.0087  0.7518
   36POPC  C212 4840   1.949   0.059   9.424  0.3039  0.2508  0.7323
   36POPC  H12R 4841   1.960   0.006   9.328  1.7181  2.8528 -0.6605
   36POPC  H12S 4842   2.040   0.123   9.434 -1.1705  3.3280 -3.0237
   36POPC  C213 4843   1.840   0.167   9.398  0.2533  0.1178 -0.3469
   36POPC  H13R 4844   1.821   0.210   9.499 -0.0328  3.2399 -1.6324
   36POPC  H13S 4845   1.748   0.110   9.374 -1.1140  0.8481  2.6801
   36POPC  C214 4846   1.892   0.272   9.301 -0.0164  0.3457 -0.0850
   36POPC  H14R 4847   1.931   0.219   9.211  1.1198 -0.0023  0.5976
   36POPC  H14S 4848   1.986   0.320   9.332  2.1847 -2.4211 -1.9636
   36POPC  C215 4849   1.779   0.373   9.260 -0.3523 -0.1354  0.1109
   36POPC  H15R 4850   1.747   0.426   9.353 -1.6581 -1.2275  0.3098
   36POPC  H15S 4851   1.691   0.316   9.225 -0.5203  0.3178 -0.2127
   36POPC  C216 4852   1.828   0.479   9.150 -0.3340 -0.5332  0.4878
   36POPC  H16R 4853   1.924   0.528   9.176 -1.5154  1.5387  1.1869
   36POPC  H16S 4854   1.749   0.557   9.147 -1.2232 -1.4206 -1.9254
   36POPC  C217 4855   1.848   0.427   9.005  0.0384  0.2490 -0.2767
   36POPC  H17R 4856   1.924   0.345   9.003 -0.3630 -0.2736  2.0973
   36POPC  H17S 4857   1.880   0.519   8.953  3.2239  0.3268  1.5159
   36POPC  C218 4858   1.710   0.388   8.946  0.4308  0.3927 -0.0101
   36POPC  H18R 4859   1.712   0.375   8.836 -0.2938 -2.0513  0.1898
   36POPC  H18S 4860   1.632   0.463   8.969  0.3130  0.2521  0.0540
   36POPC  H18T 4861   1.691   0.281   8.973 -1.1675  0.7317  0.3122
   36POPC   C33 4862   2.155   0.329  10.134 -0.3340 -0.9572  0.1350
   36POPC   H3X 4863   2.241   0.260  10.132 -1.6177 -2.6334  0.7479
   36POPC   H3Y 4864   2.189   0.435  10.121 -0.2692 -0.9477  0.3763
   36POPC   C34 4865   2.049   0.289  10.033  0.8075  0.1098 -0.8759
   36POPC   H4X 4866   1.956   0.345  10.054  1.2320  0.9571 -1.2035
   36POPC   H4Y 4867   2.025   0.181  10.040  0.0288  0.3671  0.9235
   36POPC   C35 4868   2.105   0.330   9.898  0.3402 -0.0020 -0.4503
   36POPC   H5X 4869   2.205   0.283   9.886  1.0582  0.4999  2.6241
   36POPC   H5Y 4870   2.123   0.439   9.904 -0.4025  0.1107 -0.2402
   36POPC   C36 4871   2.017   0.298   9.782  0.1915 -0.1934  0.3397
   36POPC   H6X 4872   1.917   0.329   9.818 -0.1363 -0.8743  0.0316
   36POPC   H6Y 4873   2.018   0.189   9.758  0.1081 -0.6197  2.0809
   36POPC   C37 4874   2.046   0.370   9.645  0.2535 -0.7458  0.7062
   36POPC   H7X 4875   1.960   0.351   9.577  1.2290 -1.6502 -0.3151
   36POPC   H7Y 4876   2.141   0.335   9.598 -0.0766  0.4114 -0.8943
   36POPC   C38 4877   2.052   0.521   9.655 -0.5467  0.1808  0.3303
   36POPC   H8X 4878   2.160   0.547   9.654 -0.2746 -0.5617  3.0640
   36POPC   H8Y 4879   2.012   0.560   9.751  0.2424 -1.8380  1.5424
   36POPC   C39 4880   1.971   0.587   9.542  0.6499  1.0254  0.2221
   36POPC   H9X 4881   1.865   0.602   9.570 -0.1596  0.0845 -2.0917
   36POPC   H9Y 4882   1.983   0.533   9.446  0.8874 -0.1350  0.8933
   36POPC  C310 4883   2.022   0.735   9.523 -0.5945 -0.4390 -0.4074
   36POPC  H10X 4884   2.125   0.737   9.479 -0.8626 -0.4391 -1.0442
   36POPC  H10Y 4885   2.030   0.765   9.629  0.2827 -0.8604 -0.3414
   36POPC  C311 4886   1.930   0.833   9.446 -0.5524 -0.2145 -0.3910
   36POPC  H11X 4887   1.964   0.935   9.471 -1.3269 -0.2674  1.0111
   36POPC  H11Y 4888   1.826   0.820   9.484 -0.3119  1.2232  0.8416
   36POPC  C312 4889   1.931   0.816   9.297 -0.0022 -0.2579 -0.5920
   36POPC  H12X 4890   1.947   0.707   9.284  0.1271 -0.4717  1.1586
   36POPC  H12Y 4891   2.011   0.881   9.256 -0.1466  0.2927 -0.0078
   36POPC  C313 4892   1.800   0.863   9.242 -0.5880  0.5347 -0.1076
   36POPC  H13X 4893   1.779   0.964   9.283 -2.1941  0.8341 -1.5718
   36POPC  H13Y 4894   1.726   0.790   9.282 -0.3674  0.3077 -0.1115
   36POPC  C314 4895   1.785   0.868   9.094  0.4748  0.3714 -0.2489
   36POPC  H14X 4896   1.681   0.885   9.058  0.4457  2.7739  0.7795
   36POPC  H14Y 4897   1.810   0.765   9.060 -1.8380 -0.3702  0.0756
   36POPC  C315 4898   1.875   0.972   9.023  0.3751 -0.3633 -0.3725
   36POPC  H15X 4899   1.979   0.944   9.048  0.1877  0.4384  1.4821
   36POPC  H15Y 4900   1.864   1.073   9.069 -2.6962 -0.6155 -0.3552
   36POPC  C316 4901   1.833   0.987   8.879 -0.0325 -0.9787  0.0246
   36POPC  H16X 4902   1.866   0.911   8.805 -0.0286  1.4680 -2.7151
   36POPC  H16Y 4903   1.878   1.081   8.840 -1.0458 -0.0814  0.9627
   36POPC  H16Z 4904   1.722   0.993   8.878 -0.0134 -0.5524 -0.4028
   37POPC     N 4905   0.259   6.027   6.332  0.1885  0.5157 -0.8828
   37POPC   C12 4906   0.304   6.124   6.441  0.1465  0.1885 -0.8012
   37POPC  H12A 4907   0.402   6.102   6.481 -0.3304  0.4587  0.5963
   37POPC  H12B 4908   0.227   6.119   6.517 -2.2813 -2.3700 -3.1616
   37POPC   C13 4909   0.111   6.047   6.316 -0.1216  0.4844 -0.2634
   37POPC  H13A 4910   0.053   6.031   6.405  0.9845  1.4311  0.6684
   37POPC  H13B 4911   0.090   6.152   6.300  0.3189  0.6445  0.1625
   37POPC  H13C 4912   0.072   5.991   6.233  1.7032 -1.2327 -0.0269
   37POPC   C14 4913   0.335   6.050   6.210 -0.6974 -0.1496 -0.0528
   37POPC  H14A 4914   0.303   5.976   6.137 -1.5639 -2.5313  2.5382
   37POPC  H14B 4915   0.308   6.140   6.157  2.3498  0.1625 -1.2425
   37POPC  H14C 4916   0.441   6.038   6.223 -0.7129 -1.5858 -1.0675
   37POPC   C15 4917   0.281   5.879   6.374  0.1319  0.3498 -0.1568
   37POPC  H15A 4918   0.277   5.815   6.287  2.7165  1.4737 -1.2141
   37POPC  H15B 4919   0.208   5.852   6.448  0.3919  1.2534  0.4525
   37POPC  H15C 4920   0.377   5.870   6.423  0.0431  0.1220 -0.0275
   37POPC   C11 4921   0.307   6.275   6.394  0.3063 -0.5268 -0.3421
   37POPC  H11A 4922   0.375   6.290   6.307 -0.7541 -0.8198 -1.2389
   37POPC  H11B 4923   0.355   6.329   6.479 -1.4932 -0.7874  0.8827
   37POPC     P 4924   0.080   6.368   6.480  0.4958 -0.0773 -0.0527
   37POPC   O13 4925  -0.060   6.323   6.458  0.1708 -0.1931  0.1054
   37POPC   O14 4926   0.103   6.508   6.496 -0.8310  0.3435 -0.2666
   37POPC   O12 4927   0.169   6.321   6.360 -0.6185 -0.2444  0.3915
   37POPC   O11 4928   0.129   6.286   6.599  0.2818  0.5824 -1.0789
   37POPC    C1 4929   0.182   6.347   6.717  0.5357 -0.1758  0.1118
   37POPC    HA 4930   0.160   6.455   6.727  0.3184 -0.3398  1.5527
   37POPC    HB 4931   0.291   6.329   6.727  0.5973  0.0894 -0.0935
   37POPC    C2 4932   0.125   6.287   6.853 -0.5384 -0.0284  0.3047
   37POPC    HS 4933   0.202   6.305   6.931 -1.1099  1.5843  0.5313
   37POPC   O21 4934   0.083   6.147   6.841 -0.4085 -0.4193 -0.3854
   37POPC   C21 4935   0.170   6.058   6.796 -0.1747  0.3941 -0.0360
   37POPC   O22 4936   0.287   6.084   6.764  0.9407  0.5610  0.2042
   37POPC   C22 4937   0.105   5.921   6.772  1.0419  0.1468  0.8695
   37POPC   H2R 4938   0.172   5.843   6.730 -1.0765 -1.5856  0.5577
   37POPC   H2S 4939   0.042   5.945   6.683  1.2707 -1.6994  0.1782
   37POPC    C3 4940  -0.005   6.361   6.905  0.7500 -0.3431  0.0067
   37POPC    HX 4941  -0.089   6.353   6.833  0.4705 -0.2717  0.3240
   37POPC    HY 4942   0.016   6.470   6.901  0.4738 -0.1530  2.5098
   37POPC   O31 4943  -0.028   6.318   7.041 -0.0485 -0.5243 -0.6130
   37POPC   C31 4944  -0.129   6.237   7.065 -0.3256  0.4586  0.6710
   37POPC   O32 4945  -0.204   6.204   6.975 -0.4686  0.5036 -0.1084
   37POPC   C32 4946  -0.153   6.221   7.216  0.3340  0.0772 -0.7081
   37POPC   H2X 4947  -0.121   6.117   7.236  0.7469  0.4220  0.5217
   37POPC   H2Y 4948  -0.261   6.235   7.236  0.5834 -0.4461  1.2116
   37POPC   C23 4949   0.027   5.858   6.885  0.1323  0.3548  1.0239
   37POPC   H3R 4950  -0.026   5.770   6.843 -0.7464  0.6305  1.5233
   37POPC   H3S 4951  -0.057   5.921   6.921 -0.3262 -0.5799  1.6539
   37POPC   C24 4952   0.117   5.812   7.002  0.1102 -0.2770 -0.6718
   37POPC   H4R 4953   0.224   5.795   6.978 -0.1817 -0.5956 -1.7837
   37POPC   H4S 4954   0.075   5.716   7.039  1.9235 -1.1490 -0.7670
   37POPC   C25 4955   0.104   5.913   7.116 -0.6752  0.0809 -0.6258
   37POPC   H5R 4956   0.001   5.945   7.143 -0.0968 -0.4168  2.6797
   37POPC   H5S 4957   0.159   6.005   7.086  1.0154 -0.0648  1.7185
   37POPC   C26 4958   0.172   5.884   7.245 -0.5250  0.0610 -0.4765
   37POPC   H6R 4959   0.278   5.854   7.230 -0.3134 -0.5598  1.8337
   37POPC   H6S 4960   0.122   5.790   7.278 -3.0347  0.8458 -1.7707
   37POPC   C27 4961   0.166   6.000   7.347  0.3925  0.9041  0.3827
   37POPC   H7R 4962   0.056   6.015   7.356 -0.2156 -1.4653 -1.7993
   37POPC   H7S 4963   0.227   6.088   7.316  0.8336  0.1039 -1.0988
   37POPC   C28 4964   0.216   5.970   7.487  0.6088  0.2074 -0.6036
   37POPC   H8R 4965   0.218   6.063   7.549 -0.2979  0.2807 -0.6692
   37POPC   H8S 4966   0.324   5.943   7.482  0.1530 -1.5656 -1.7387
   37POPC   C29 4967   0.143   5.858   7.559  0.4316  0.4779  0.3697
   37POPC   H91 4968   0.097   5.792   7.484 -0.3376  0.1660  1.0975
   37POPC  C210 4969   0.123   5.850   7.692  0.1643  0.0615  0.0135
   37POPC  H101 4970   0.087   5.752   7.727 -1.5585 -1.3227 -4.7810
   37POPC  C211 4971   0.173   5.943   7.800 -0.0709 -1.4602  0.7938
   37POPC  H11R 4972   0.089   5.945   7.873  0.7943 -0.9184  1.7999
   37POPC  H11S 4973   0.182   6.050   7.772 -2.0767 -1.8670 -1.7497
   37POPC  C212 4974   0.300   5.888   7.871  0.2608  0.5730 -1.1675
   37POPC  H12R 4975   0.330   5.961   7.949 -2.0623 -0.4808  0.8681
   37POPC  H12S 4976   0.392   5.872   7.812 -0.2293  0.6398 -1.9577
   37POPC  C213 4977   0.274   5.753   7.945  0.5012  0.4919  0.1168
   37POPC  H13R 4978   0.268   5.665   7.877 -1.8343  1.6218 -1.3018
   37POPC  H13S 4979   0.175   5.758   7.996  1.2162 -1.9230  1.9091
   37POPC  C214 4980   0.372   5.720   8.054 -0.7632 -0.1089  0.7779
   37POPC  H14R 4981   0.374   5.812   8.117  0.4943  0.2321  0.2583
   37POPC  H14S 4982   0.473   5.714   8.010 -0.4790  0.6900  1.3040
   37POPC  C215 4983   0.325   5.594   8.142 -0.4170  0.3407 -0.2238
   37POPC  H15R 4984   0.294   5.516   8.069 -0.9752 -0.0657  0.4389
   37POPC  H15S 4985   0.228   5.615   8.192 -0.5123 -3.2413  1.4064
   37POPC  C216 4986   0.432   5.550   8.243  0.4135  0.3221  0.7004
   37POPC  H16R 4987   0.449   5.638   8.308  1.7164 -0.3213  1.2606
   37POPC  H16S 4988   0.529   5.536   8.190  0.1022 -0.0595  0.2170
   37POPC  C217 4989   0.396   5.419   8.332  0.3734 -0.0444 -0.0700
   37POPC  H17R 4990   0.352   5.339   8.269 -0.3483 -0.7650  1.3006
   37POPC  H17S 4991   0.320   5.456   8.405 -0.6820  2.6140 -2.3414
   37POPC  C218 4992   0.514   5.365   8.409 -0.6852  0.7852 -0.4207
   37POPC  H18R 4993   0.579   5.321   8.330 -2.8189 -1.0344 -1.2926
   37POPC  H18S 4994   0.477   5.285   8.477  1.4129  0.6692  0.6526
   37POPC  H18T 4995   0.567   5.437   8.474  0.7662 -0.5208 -0.0796
   37POPC   C33 4996  -0.080   6.319   7.304 -0.5628 -0.2285 -0.0910
   37POPC   H3X 4997  -0.095   6.425   7.275  0.5307  0.0240  0.2184
   37POPC   H3Y 4998   0.026   6.288   7.295  0.1439  2.3590 -1.5852
   37POPC   C34 4999  -0.118   6.293   7.458  0.7609  0.7471  1.0223
   37POPC   H4X 5000  -0.082   6.190   7.477  0.6633  0.7908  1.4692
   37POPC   H4Y 5001  -0.229   6.292   7.462  0.6453  0.9586 -1.1954
   37POPC   C35 5002  -0.061   6.407   7.547  0.1114 -0.3977 -0.0339
   37POPC   H5X 5003  -0.136   6.488   7.538 -0.8288 -0.7122  3.5984
   37POPC   H5Y 5004   0.043   6.439   7.523  0.2059 -1.4876 -1.2053
   37POPC   C36 5005  -0.061   6.362   7.700 -0.2501  0.2644  0.1228
   37POPC   H6X 5006   0.018   6.286   7.715  0.6539  1.1759  0.1028
   37POPC   H6Y 5007  -0.165   6.333   7.728  0.8794 -1.0553  3.3096
   37POPC   C37 5008  -0.018   6.482   7.777 -0.1204 -0.6979  0.3832
   37POPC   H7X 5009  -0.082   6.569   7.751  0.3617 -0.5692 -0.3826
   37POPC   H7Y 5010   0.087   6.505   7.751 -0.3981  0.1270 -0.0178
   37POPC   C38 5011  -0.013   6.462   7.933  0.5297 -0.1773  0.6484
   37POPC   H8X 5012  -0.116   6.429   7.956 -0.3222  2.0818  0.2652
   37POPC   H8Y 5013   0.004   6.559   7.984 -0.8425 -0.8176  2.4507
   37POPC   C39 5014   0.086   6.360   7.988 -0.0830  0.8256 -0.1367
   37POPC   H9X 5015   0.177   6.419   8.011 -1.2186  2.4582  0.3252
   37POPC   H9Y 5016   0.120   6.292   7.906  3.3868  1.5168  0.5913
   37POPC  C310 5017   0.027   6.287   8.110 -0.3448  0.3080  0.0349
   37POPC  H10X 5018  -0.070   6.242   8.079 -0.0494  1.7249 -3.4252
   37POPC  H10Y 5019   0.004   6.365   8.185  0.9450  0.0662  0.7014
   37POPC  C311 5020   0.107   6.166   8.163 -0.5306  0.1926 -0.6593
   37POPC  H11X 5021   0.204   6.210   8.193  0.1155 -0.1174 -2.2065
   37POPC  H11Y 5022   0.127   6.090   8.084  1.3670  1.5345 -1.5351
   37POPC  C312 5023   0.051   6.098   8.291  0.7463  0.3422  0.2268
   37POPC  H12X 5024  -0.038   6.045   8.251  0.1737  1.4996 -0.1044
   37POPC  H12Y 5025   0.018   6.184   8.353  0.7668 -0.5257  1.4724
   37POPC  C313 5026   0.144   6.006   8.361  0.4972 -0.1053  0.1484
   37POPC  H13X 5027   0.229   6.069   8.396  0.6228 -0.1273 -0.1139
   37POPC  H13Y 5028   0.194   5.938   8.289  0.4335  0.0801 -0.0726
   37POPC  C314 5029   0.077   5.933   8.479 -0.3370 -0.0181 -0.4512
   37POPC  H14X 5030   0.142   5.845   8.497 -0.7507 -0.0112  1.2820
   37POPC  H14Y 5031  -0.025   5.891   8.465 -0.7692 -0.3711  2.8660
   37POPC  C315 5032   0.078   6.023   8.606 -0.4395 -0.0122  0.1108
   37POPC  H15X 5033   0.050   6.123   8.568  2.8465 -0.1486 -3.2343
   37POPC  H15Y 5034   0.184   6.040   8.637 -0.9064  1.7789  0.8554
   37POPC  C316 5035   0.005   5.958   8.720 -0.2406  0.0777 -0.5358
   37POPC  H16X 5036   0.067   5.877   8.765 -0.7605 -0.4120 -0.6885
   37POPC  H16Y 5037  -0.093   5.924   8.680 -0.5459  1.3842 -0.9447
   37POPC  H16Z 5038  -0.011   6.026   8.806  1.8273 -1.1929  0.9509
   38POPC     N 5039   6.728   3.488   6.274  0.1050 -0.3536  0.0737
   38POPC   C12 5040   6.749   3.522   6.421  0.2445  0.0009 -0.2947
   38POPC  H12A 5041   6.664   3.528   6.488  2.2876  1.9271  2.3763
   38POPC  H12B 5042   6.756   3.630   6.426 -0.0229 -0.0008  0.2813
   38POPC   C13 5043   6.631   3.589   6.220  0.0780  0.4279 -0.0020
   38POPC  H13A 5044   6.654   3.684   6.268  4.1169  0.1651 -1.0035
   38POPC  H13B 5045   6.634   3.605   6.114 -2.4263 -0.1331 -0.2098
   38POPC  H13C 5046   6.530   3.553   6.233 -0.6100 -0.1999 -5.0944
   38POPC   C14 5047   6.855   3.487   6.196 -0.4118 -0.4481  0.3494
   38POPC  H14A 5048   6.896   3.585   6.176 -2.1694  0.1726 -0.4600
   38POPC  H14B 5049   6.926   3.423   6.245 -0.1959  0.8747  1.8296
   38POPC  H14C 5050   6.834   3.450   6.096  0.5166  1.0009 -0.4161
   38POPC   C15 5051   6.664   3.350   6.250 -0.3371 -0.5331  0.0790
   38POPC  H15A 5052   6.678   3.314   6.149  1.1153  2.8331 -1.0802
   38POPC  H15B 5053   6.559   3.341   6.274 -1.0676  2.3002 -1.5066
   38POPC  H15C 5054   6.699   3.276   6.320 -1.4728 -0.1227  1.1282
   38POPC   C11 5055   6.867   3.446   6.488 -0.6891 -0.3239 -0.2213
   38POPC  H11A 5056   6.904   3.475   6.588  1.8343  0.2574 -1.2378
   38POPC  H11B 5057   6.955   3.467   6.423 -0.9505 -2.5622 -1.4150
   38POPC     P 5058   6.971   3.203   6.468 -0.0300 -0.1361  0.3260
   38POPC   O13 5059   7.025   3.232   6.327 -0.0122 -0.3002 -0.1760
   38POPC   O14 5060   6.930   3.064   6.486  0.3589 -0.1449 -0.2192
   38POPC   O12 5061   6.847   3.302   6.490 -0.8954  0.7756  0.3043
   38POPC   O11 5062   7.082   3.239   6.563 -0.1692  0.0966 -0.3221
   38POPC    C1 5063   7.059   3.251   6.706  0.1344  0.0145  0.2334
   38POPC    HA 5064   6.954   3.268   6.739 -0.3550 -1.3664 -0.5239
   38POPC    HB 5065   7.109   3.345   6.737  0.7608  1.2499 -3.8622
   38POPC    C2 5066   7.108   3.118   6.774 -0.0183 -0.8831  0.3286
   38POPC    HS 5067   7.046   3.037   6.731 -1.7827  0.2066  0.7119
   38POPC   O21 5068   7.099   3.111   6.911  0.3065 -0.7725 -0.0291
   38POPC   C21 5069   6.975   3.133   6.962 -0.3836 -0.0497 -0.3304
   38POPC   O22 5070   6.873   3.137   6.908 -0.6409  0.0494  0.2950
   38POPC   C22 5071   6.997   3.160   7.109 -1.2399  0.0515 -0.2315
   38POPC   H2R 5072   7.049   3.258   7.115  0.6620 -0.9155 -0.1213
   38POPC   H2S 5073   7.061   3.078   7.149  0.0340 -0.1185 -2.4210
   38POPC    C3 5074   7.250   3.096   6.724  0.3100  0.1761  0.3959
   38POPC    HX 5075   7.307   3.183   6.764 -0.1895  0.7114 -0.0271
   38POPC    HY 5076   7.244   3.098   6.613  0.6010 -1.7726  0.3174
   38POPC   O31 5077   7.280   2.964   6.777 -0.4510 -0.3306 -0.1525
   38POPC   C31 5078   7.409   2.929   6.762 -0.7702 -0.7660  0.0279
   38POPC   O32 5079   7.491   3.013   6.720  1.2387  0.4624  0.0384
   38POPC   C32 5080   7.421   2.779   6.782 -0.4047 -0.8955  0.0928
   38POPC   H2X 5081   7.446   2.733   6.684  1.5782  1.8086 -0.7767
   38POPC   H2Y 5082   7.326   2.724   6.804  0.7894 -2.9072  0.5182
   38POPC   C23 5083   6.871   3.165   7.189  0.3538 -0.2404 -0.1545
   38POPC   H3R 5084   6.811   3.072   7.190 -0.9255  0.5197 -1.5469
   38POPC   H3S 5085   6.799   3.231   7.136 -0.7983 -2.5567 -1.6314
   38POPC   C24 5086   6.890   3.225   7.324 -0.3635 -0.6535 -0.1625
   38POPC   H4R 5087   6.802   3.259   7.383  0.4834  2.6917 -0.6014
   38POPC   H4S 5088   6.962   3.310   7.321  0.8179 -1.4157  2.7928
   38POPC   C25 5089   6.958   3.127   7.418 -0.0693  0.1345 -0.3681
   38POPC   H5R 5090   7.055   3.092   7.376  0.3350 -0.6172  1.1265
   38POPC   H5S 5091   6.892   3.038   7.427  0.6199 -0.2664  0.8793
   38POPC   C26 5092   6.984   3.177   7.560 -0.3195 -0.2558  0.5255
   38POPC   H6R 5093   6.890   3.214   7.605 -0.7369 -0.5763 -0.0782
   38POPC   H6S 5094   7.062   3.257   7.561  1.0829 -1.5002 -1.2939
   38POPC   C27 5095   7.034   3.067   7.651  0.7431  0.3085 -0.1262
   38POPC   H7R 5096   7.126   3.016   7.614 -0.9986 -1.1292 -2.7333
   38POPC   H7S 5097   6.958   2.990   7.676  1.5541  0.5976  4.0599
   38POPC   C28 5098   7.069   3.128   7.788  0.5512 -0.1399  0.5014
   38POPC   H8R 5099   7.115   3.228   7.771  0.7383 -0.3812 -0.4617
   38POPC   H8S 5100   7.153   3.069   7.831  0.6692  0.1148  0.6231
   38POPC   C29 5101   6.944   3.132   7.877 -0.6836  0.4811 -0.7351
   38POPC   H91 5102   6.850   3.115   7.824 -2.5289  0.3164  2.3178
   38POPC  C210 5103   6.932   3.120   8.012 -0.1111  0.5522  0.6624
   38POPC  H101 5104   6.832   3.117   8.058 -0.2877  3.1027  0.5582
   38POPC  C211 5105   7.038   3.101   8.115 -0.7952 -0.0625  0.5454
   38POPC  H11R 5106   7.080   3.201   8.138 -1.1964  0.5514 -1.2270
   38POPC  H11S 5107   7.118   3.041   8.067  0.3755  0.4222  1.8531
   38POPC  C212 5108   7.001   3.030   8.245  0.1606 -0.6606 -0.2863
   38POPC  H12R 5109   7.102   3.008   8.286  1.2866 -0.2161 -2.6488
   38POPC  H12S 5110   6.950   2.932   8.230 -0.9265 -0.0312 -0.7620
   38POPC  C213 5111   6.919   3.128   8.342 -0.3032 -0.3160 -0.1333
   38POPC  H13R 5112   6.908   3.089   8.445  2.4266 -0.1066  0.3370
   38POPC  H13S 5113   6.818   3.134   8.297 -0.1110 -1.2367 -0.6952
   38POPC  C214 5114   6.974   3.275   8.358 -0.3171 -0.3543 -0.6091
   38POPC  H14R 5115   6.915   3.335   8.431  0.2176  1.2354 -1.4406
   38POPC  H14S 5116   6.967   3.327   8.260  3.0672  0.4838 -0.5521
   38POPC  C215 5117   7.120   3.288   8.405  0.0946 -0.8874  0.3277
   38POPC  H15R 5118   7.136   3.396   8.385  0.6883 -0.8785  0.8346
   38POPC  H15S 5119   7.191   3.235   8.338  0.1842 -0.6367  0.2261
   38POPC  C216 5120   7.151   3.254   8.550  0.3611  0.0107 -0.6170
   38POPC  H16R 5121   7.185   3.149   8.549 -0.5605 -0.3306  0.9746
   38POPC  H16S 5122   7.059   3.260   8.613  1.1597  0.7479  0.5054
   38POPC  C217 5123   7.253   3.353   8.600 -0.0950 -0.4926  0.1240
   38POPC  H17R 5124   7.206   3.452   8.582 -0.8981 -0.8092  0.4169
   38POPC  H17S 5125   7.339   3.339   8.532 -0.2286  0.6658 -0.3111
   38POPC  C218 5126   7.300   3.344   8.742  0.0703 -0.1046 -0.0878
   38POPC  H18R 5127   7.213   3.348   8.811  0.8450  2.0296  0.8819
   38POPC  H18S 5128   7.362   3.430   8.776 -1.4902  0.5079  1.3375
   38POPC  H18T 5129   7.357   3.250   8.752 -0.2533 -0.4479 -1.3093
   38POPC   C33 5130   7.539   2.738   6.880 -0.2333  0.3023 -0.9248
   38POPC   H3X 5131   7.511   2.774   6.981 -0.8662 -1.6713 -0.3509
   38POPC   H3Y 5132   7.638   2.789   6.872  1.1699 -1.4843  2.7119
   38POPC   C34 5133   7.553   2.585   6.897 -0.2894 -0.0173 -0.4020
   38POPC   H4X 5134   7.658   2.556   6.877 -0.0168  1.4644 -1.2954
   38POPC   H4Y 5135   7.479   2.533   6.832 -0.9027 -0.3405  0.5405
   38POPC   C35 5136   7.529   2.547   7.049 -0.2891 -0.1534  0.3006
   38POPC   H5X 5137   7.537   2.436   7.045  3.1148 -0.0791  1.6363
   38POPC   H5Y 5138   7.424   2.568   7.079 -1.1315 -0.1656 -2.3877
   38POPC   C36 5139   7.637   2.589   7.147 -0.4268 -0.7408 -0.0706
   38POPC   H6X 5140   7.675   2.692   7.126  0.5966 -1.0926 -0.0218
   38POPC   H6Y 5141   7.726   2.525   7.128 -0.6438 -1.6485  1.7488
   38POPC   C37 5142   7.594   2.575   7.289 -0.1726  0.3734 -0.8098
   38POPC   H7X 5143   7.560   2.472   7.310  2.0594 -0.1863  0.3924
   38POPC   H7Y 5144   7.513   2.645   7.316 -0.6357 -1.4937  3.3662
   38POPC   C38 5145   7.702   2.625   7.385  0.7474  0.3357 -0.0405
   38POPC   H8X 5146   7.719   2.733   7.369 -1.8980  0.9634  0.7966
   38POPC   H8Y 5147   7.796   2.568   7.369 -0.5673 -2.1318  0.4732
   38POPC   C39 5148   7.667   2.615   7.531  0.7973  0.2373  0.1181
   38POPC   H9X 5149   7.633   2.511   7.550 -1.7432  1.1260  0.8537
   38POPC   H9Y 5150   7.580   2.679   7.556 -0.2510 -1.5636  1.2898
   38POPC  C310 5151   7.783   2.653   7.624  0.9024 -0.2713  0.2427
   38POPC  H10X 5152   7.799   2.762   7.609 -2.0037  0.3565  1.0944
   38POPC  H10Y 5153   7.869   2.585   7.605  0.5774 -0.9476  1.0820
   38POPC  C311 5154   7.763   2.603   7.765  0.5296  1.1506 -1.3274
   38POPC  H11X 5155   7.750   2.493   7.767  0.7661  1.1021 -2.1925
   38POPC  H11Y 5156   7.675   2.652   7.812  0.1757  1.0890 -1.9171
   38POPC  C312 5157   7.883   2.631   7.866  0.2640  0.0215  0.7937
   38POPC  H12X 5158   7.919   2.734   7.848 -0.1937 -0.0758 -0.8519
   38POPC  H12Y 5159   7.958   2.550   7.857 -1.5643 -1.7035  0.1376
   38POPC  C313 5160   7.833   2.628   8.010  0.5919  0.1606  0.1863
   38POPC  H13X 5161   7.784   2.528   8.007 -0.9770  0.9082 -0.7378
   38POPC  H13Y 5162   7.749   2.698   8.030 -0.8841 -1.8593  1.5329
   38POPC  C314 5163   7.941   2.642   8.115  0.6146 -0.2664  0.2023
   38POPC  H14X 5164   7.976   2.747   8.118 -1.2886  0.4185 -0.3221
   38POPC  H14Y 5165   8.026   2.574   8.091  1.1816 -0.3007  2.1154
   38POPC  C315 5166   7.897   2.600   8.251  0.3978 -0.4892 -0.2090
   38POPC  H15X 5167   7.805   2.653   8.286 -0.5034 -2.8253  1.1748
   38POPC  H15Y 5168   7.975   2.621   8.327  0.5519 -0.5506 -0.3514
   38POPC  C316 5169   7.874   2.452   8.265  0.4133 -0.0508  0.1057
   38POPC  H16X 5170   7.847   2.427   8.369 -1.3028  1.1809 -0.0050
   38POPC  H16Y 5171   7.964   2.393   8.236 -1.2710 -1.9816 -1.4800
   38POPC  H16Z 5172   7.788   2.425   8.200  1.4885 -1.2151 -0.8815
   39POPC     N 5173   0.686   5.626   6.126 -0.0933 -0.1985  0.0565
   39POPC   C12 5174   0.798   5.564   6.201 -0.0198  0.2437 -0.4644
   39POPC  H12A 5175   0.876   5.544   6.129 -0.4029  0.9951 -1.1169
   39POPC  H12B 5176   0.766   5.467   6.235 -0.4535  0.2308 -0.9020
   39POPC   C13 5177   0.560   5.655   6.210  0.5486 -0.0944  0.1488
   39POPC  H13A 5178   0.495   5.702   6.136  0.5715  1.1761  0.9109
   39POPC  H13B 5179   0.521   5.567   6.258  1.3379 -0.9598 -0.7534
   39POPC  H13C 5180   0.599   5.720   6.287  0.6932 -0.4743  0.4000
   39POPC   C14 5181   0.730   5.744   6.053  0.3846 -0.3311 -0.0460
   39POPC  H14A 5182   0.791   5.805   6.118  1.0520 -1.2481  0.2136
   39POPC  H14B 5183   0.774   5.719   5.957  0.4618 -2.5174  0.5172
   39POPC  H14C 5184   0.642   5.805   6.040 -0.7451 -2.1469 -1.4337
   39POPC   C15 5185   0.641   5.532   6.018 -0.0841 -0.0002 -0.2111
   39POPC  H15A 5186   0.602   5.437   6.052 -2.7618  1.1913  0.3584
   39POPC  H15B 5187   0.721   5.509   5.950 -1.0109 -2.0943 -0.6817
   39POPC  H15C 5188   0.563   5.573   5.956 -0.1605  0.9400  0.4849
   39POPC   C11 5189   0.863   5.645   6.314  1.2608 -0.3201  0.6551
   39POPC  H11A 5190   0.911   5.573   6.383  0.1910 -0.7788  0.9361
   39POPC  H11B 5191   0.780   5.700   6.363  0.5456  0.6290 -1.5008
   39POPC     P 5192   1.086   5.704   6.203  0.4474 -0.8901 -0.0487
   39POPC   O13 5193   1.125   5.820   6.117  0.6351  0.2728 -0.2825
   39POPC   O14 5194   1.075   5.581   6.131 -0.0557  0.7760  0.1857
   39POPC   O12 5195   0.953   5.742   6.264 -0.1991  0.1122 -0.0303
   39POPC   O11 5196   1.182   5.688   6.331  0.2303  0.9118  0.1005
   39POPC    C1 5197   1.198   5.802   6.417  0.0450 -0.3981 -0.3057
   39POPC    HA 5198   1.107   5.866   6.417 -0.3306 -0.7992  2.3962
   39POPC    HB 5199   1.280   5.864   6.375 -0.0487 -0.5710 -0.7446
   39POPC    C2 5200   1.223   5.771   6.569 -0.1165  1.1163 -0.5642
   39POPC    HS 5201   1.173   5.852   6.627 -2.1992  1.0852 -2.1894
   39POPC   O21 5202   1.370   5.759   6.581  0.0240  0.0100 -0.4024
   39POPC   C21 5203   1.417   5.856   6.657 -0.4170  0.3685  0.6137
   39POPC   O22 5204   1.360   5.957   6.690 -0.4390 -0.0080 -0.4956
   39POPC   C22 5205   1.559   5.824   6.701 -1.0117 -0.5532  1.6335
   39POPC   H2R 5206   1.615   5.918   6.687 -0.8524 -0.8591  0.0067
   39POPC   H2S 5207   1.601   5.750   6.629 -0.8045  1.3319 -0.2953
   39POPC    C3 5208   1.156   5.635   6.617  1.0461 -0.0780 -1.2489
   39POPC    HX 5209   1.213   5.555   6.565  1.7566 -0.5385  0.1680
   39POPC    HY 5210   1.049   5.627   6.588  0.1246 -1.2311  2.0354
   39POPC   O31 5211   1.176   5.618   6.763  0.1890 -0.4524 -1.3488
   39POPC   C31 5212   1.087   5.686   6.837  0.6894  0.4352  0.2077
   39POPC   O32 5213   0.996   5.758   6.800  0.0102 -0.0827 -0.0682
   39POPC   C32 5214   1.107   5.646   6.980 -0.8655  0.0174 -0.5763
   39POPC   H2X 5215   1.007   5.639   7.026 -0.1203 -3.0368  0.7918
   39POPC   H2Y 5216   1.162   5.551   6.997  0.8601  1.2351  1.1294
   39POPC   C23 5217   1.553   5.761   6.837  0.9683 -0.0420  0.1281
   39POPC   H3R 5218   1.481   5.676   6.839  0.6938  0.1688 -0.4234
   39POPC   H3S 5219   1.534   5.835   6.917 -2.0441 -0.7268  0.1634
   39POPC   C24 5220   1.685   5.697   6.884 -0.2992 -0.4588 -0.1357
   39POPC   H4R 5221   1.738   5.781   6.934 -1.1911 -0.5707  1.0402
   39POPC   H4S 5222   1.748   5.663   6.799 -1.3464 -2.5629 -0.1517
   39POPC   C25 5223   1.673   5.576   6.976 -0.4111  0.4779  0.1339
   39POPC   H5R 5224   1.771   5.536   7.012 -1.2197  1.6547  4.1148
   39POPC   H5S 5225   1.623   5.483   6.942  1.1173  0.0713 -1.1304
   39POPC   C26 5226   1.609   5.614   7.106  0.3704 -0.4965  0.7063
   39POPC   H6R 5227   1.501   5.633   7.087  0.2897 -1.3186  0.3296
   39POPC   H6S 5228   1.655   5.707   7.146  0.1426 -0.5772  1.1665
   39POPC   C27 5229   1.624   5.502   7.212 -0.4671 -0.3283 -0.2317
   39POPC   H7R 5230   1.723   5.453   7.201 -0.3621 -0.4895  1.2715
   39POPC   H7S 5231   1.534   5.436   7.206  0.6351 -1.7841 -1.6851
   39POPC   C28 5232   1.612   5.568   7.353  0.0837 -0.0251  0.3218
   39POPC   H8R 5233   1.530   5.642   7.351  0.6341  0.6073  0.7783
   39POPC   H8S 5234   1.703   5.630   7.365 -1.8137  3.3151 -1.0343
   39POPC   C29 5235   1.589   5.471   7.465 -0.4384  0.2570 -0.6062
   39POPC   H91 5236   1.609   5.364   7.452  2.6997  0.5777  0.6326
   39POPC  C210 5237   1.548   5.502   7.588 -0.2844 -0.1114  0.3460
   39POPC  H101 5238   1.531   5.422   7.662  0.2579 -0.3907  0.1763
   39POPC  C211 5239   1.509   5.642   7.626 -0.4115 -1.1638 -0.1733
   39POPC  H11R 5240   1.433   5.675   7.553  1.2211 -0.7044 -1.7277
   39POPC  H11S 5241   1.599   5.706   7.619 -1.5905  0.3963 -1.8139
   39POPC  C212 5242   1.451   5.660   7.771  0.0386  0.0174  0.3482
   39POPC  H12R 5243   1.529   5.630   7.844 -0.6764 -0.4552  0.9276
   39POPC  H12S 5244   1.355   5.609   7.790 -0.3604  1.8237  3.8847
   39POPC  C213 5245   1.414   5.810   7.800 -0.4552  0.2642  0.0157
   39POPC  H13R 5246   1.327   5.834   7.734 -1.0136 -1.5416  0.0390
   39POPC  H13S 5247   1.500   5.879   7.791  0.2972 -0.3115  2.2039
   39POPC  C214 5248   1.349   5.832   7.938 -0.0636  0.7028 -0.1480
   39POPC  H14R 5249   1.273   5.755   7.960 -0.2525  0.4596 -1.5590
   39POPC  H14S 5250   1.302   5.932   7.935 -2.4980 -0.3060  1.4259
   39POPC  C215 5251   1.449   5.833   8.055  0.0625 -0.4822  0.3501
   39POPC  H15R 5252   1.526   5.912   8.038 -1.0160  0.3189 -1.0839
   39POPC  H15S 5253   1.509   5.740   8.050 -0.9918 -1.2416  1.4117
   39POPC  C216 5254   1.385   5.846   8.191  0.3645  0.5672  0.0893
   39POPC  H16R 5255   1.304   5.770   8.201  0.2090  0.8623  1.1763
   39POPC  H16S 5256   1.327   5.940   8.205  0.7350  0.8220 -0.0686
   39POPC  C217 5257   1.480   5.834   8.301 -0.3943  0.0645 -0.3029
   39POPC  H17R 5258   1.555   5.916   8.304  2.8346 -2.6892  2.0796
   39POPC  H17S 5259   1.548   5.749   8.283 -0.4854  0.1058 -0.8799
   39POPC  C218 5260   1.419   5.839   8.444 -0.1315 -0.7159 -0.7032
   39POPC  H18R 5261   1.361   5.927   8.478 -0.9070 -1.0153 -1.2104
   39POPC  H18S 5262   1.494   5.833   8.525  0.0776 -0.3094 -0.8616
   39POPC  H18T 5263   1.350   5.752   8.439  0.2511 -1.1232  0.8173
   39POPC   C33 5264   1.178   5.757   7.060  0.2522  0.0664  0.1804
   39POPC   H3X 5265   1.107   5.842   7.066 -1.2905 -0.9924 -1.8563
   39POPC   H3Y 5266   1.270   5.799   7.013  0.4426 -0.1723  0.3365
   39POPC   C34 5267   1.224   5.727   7.201 -0.1703  0.2552  0.1802
   39POPC   H4X 5268   1.282   5.632   7.197 -0.2151  0.1131  2.1413
   39POPC   H4Y 5269   1.144   5.715   7.278 -0.5296  1.4106  0.0036
   39POPC   C35 5270   1.301   5.850   7.251  0.1458 -0.9034 -0.2069
   39POPC   H5X 5271   1.367   5.892   7.172  0.1545  0.5240  0.5226
   39POPC   H5Y 5272   1.368   5.816   7.333  2.4044  1.4768 -0.9245
   39POPC   C36 5273   1.214   5.971   7.296  0.5241  0.2902 -0.2433
   39POPC   H6X 5274   1.139   5.926   7.365  2.0452 -1.0657  0.6181
   39POPC   H6Y 5275   1.175   6.031   7.211  2.0542 -0.9165 -1.8736
   39POPC   C37 5276   1.301   6.069   7.381  0.6218 -0.2965 -0.4619
   39POPC   H7X 5277   1.246   6.163   7.407  1.4662 -0.4035  2.0722
   39POPC   H7Y 5278   1.383   6.106   7.315  0.2382  0.9965 -0.2526
   39POPC   C38 5279   1.346   6.012   7.509 -0.4927 -0.1758 -0.5745
   39POPC   H8X 5280   1.428   5.939   7.488  1.2636  1.0713  1.4859
   39POPC   H8Y 5281   1.272   5.945   7.557  1.5094 -3.1951 -1.3368
   39POPC   C39 5282   1.398   6.109   7.618  0.1458 -0.1817 -0.7497
   39POPC   H9X 5283   1.460   6.188   7.571 -0.4623  0.0835 -1.1206
   39POPC   H9Y 5284   1.468   6.066   7.692  1.6439  2.3337 -0.5744
   39POPC  C310 5285   1.285   6.174   7.708  0.9173  0.8511 -0.0280
   39POPC  H10X 5286   1.239   6.095   7.771  2.0059 -0.2888 -0.6170
   39POPC  H10Y 5287   1.210   6.223   7.643 -0.1209  1.7560  1.7875
   39POPC  C311 5288   1.333   6.281   7.807  0.4495 -0.4829  0.4635
   39POPC  H11X 5289   1.251   6.314   7.874  0.3526 -0.9082  0.5525
   39POPC  H11Y 5290   1.362   6.372   7.750  0.4625 -0.5196  0.4116
   39POPC  C312 5291   1.432   6.226   7.911 -0.3860  0.0360 -0.2758
   39POPC  H12X 5292   1.525   6.187   7.864 -0.9905  0.0418 -1.5098
   39POPC  H12Y 5293   1.389   6.133   7.954 -1.1784 -1.0337 -3.1235
   39POPC  C313 5294   1.475   6.319   8.034 -0.7215  0.4531  0.0542
   39POPC  H13X 5295   1.551   6.258   8.086 -1.6764  0.1303  1.1103
   39POPC  H13Y 5296   1.389   6.323   8.104 -1.3998  1.6221 -0.8027
   39POPC  C314 5297   1.512   6.457   7.985 -0.4346 -0.2804  0.2410
   39POPC  H14X 5298   1.433   6.505   7.923  2.7577  2.0950 -2.3304
   39POPC  H14Y 5299   1.598   6.449   7.915  0.1079  0.4025  0.8102
   39POPC  C315 5300   1.560   6.549   8.092  0.3553  0.2424  0.0220
   39POPC  H15X 5301   1.594   6.639   8.036 -2.3114  0.9869 -0.5311
   39POPC  H15Y 5302   1.651   6.502   8.137  0.7143  0.1654 -0.7737
   39POPC  C316 5303   1.461   6.597   8.196 -0.3154 -0.1322  0.0716
   39POPC  H16X 5304   1.365   6.642   8.161 -0.1458  1.1668  1.1854
   39POPC  H16Y 5305   1.507   6.679   8.256 -0.4753 -0.4424  0.6270
   39POPC  H16Z 5306   1.435   6.523   8.275  1.5734 -0.1313  0.7473
   40POPC     N 5307   4.224   3.790   6.121  0.2262  0.1662  0.2242
   40POPC   C12 5308   4.338   3.771   6.216 -0.8162 -0.5044 -1.0634
   40POPC  H12A 5309   4.364   3.867   6.258  0.7186 -1.9560  1.5564
   40POPC  H12B 5310   4.431   3.744   6.168 -0.2294 -0.3796 -0.0167
   40POPC   C13 5311   4.206   3.674   6.031  0.2515  0.5691 -0.2875
   40POPC  H13A 5312   4.290   3.646   5.970  1.9844 -3.2100  3.3763
   40POPC  H13B 5313   4.185   3.583   6.085  0.9276 -0.5668 -1.8415
   40POPC  H13C 5314   4.129   3.692   5.957  0.5417  3.1620 -0.0462
   40POPC   C14 5315   4.084   3.797   6.189 -0.4197  0.4220  0.0080
   40POPC  H14A 5316   4.079   3.708   6.250 -0.1365  0.1514 -0.3529
   40POPC  H14B 5317   4.073   3.886   6.249 -2.1383  1.7173 -2.0807
   40POPC  H14C 5318   4.000   3.796   6.121 -1.2954  0.4223  1.0624
   40POPC   C15 5319   4.228   3.919   6.052 -0.1598 -0.5555  0.8441
   40POPC  H15A 5320   4.322   3.950   6.009 -1.0393 -0.0980 -0.8389
   40POPC  H15B 5321   4.191   3.994   6.120 -2.2112 -2.3810  1.8591
   40POPC  H15C 5322   4.154   3.934   5.975 -1.6379 -0.9255  2.1424
   40POPC   C11 5323   4.317   3.677   6.339 -0.1984 -0.7399 -0.2230
   40POPC  H11A 5324   4.236   3.720   6.401 -1.6633 -1.1273 -1.7937
   40POPC  H11B 5325   4.408   3.674   6.403  0.4650  0.7056 -1.0735
   40POPC     P 5326   4.155   3.472   6.355  0.0787 -0.2300 -0.1855
   40POPC   O13 5327   4.168   3.326   6.347  0.2800 -0.2975  0.1782
   40POPC   O14 5328   4.038   3.525   6.277  0.3043  0.1774 -0.0647
   40POPC   O12 5329   4.290   3.542   6.302  0.5850  0.9368  0.2336
   40POPC   O11 5330   4.149   3.514   6.512  0.2085 -0.1987  0.5984
   40POPC    C1 5331   4.247   3.457   6.601 -0.1136 -0.1496 -0.4788
   40POPC    HA 5332   4.351   3.468   6.564  0.5828 -1.2742  1.0431
   40POPC    HB 5333   4.234   3.347   6.611  1.6790 -0.2125  1.8698
   40POPC    C2 5334   4.242   3.508   6.744  0.1194  0.4745  0.1610
   40POPC    HS 5335   4.300   3.444   6.814 -0.1190 -0.8866 -0.8421
   40POPC   O21 5336   4.113   3.527   6.802 -0.3561 -0.3630  0.4818
   40POPC   C21 5337   4.053   3.414   6.841  0.4559  0.3533  0.5102
   40POPC   O22 5338   4.103   3.303   6.839 -0.0280 -0.1930  0.6537
   40POPC   C22 5339   3.908   3.435   6.867 -0.2415 -0.1190 -0.5794
   40POPC   H2R 5340   3.866   3.340   6.908  1.0135 -0.7016 -0.5990
   40POPC   H2S 5341   3.860   3.458   6.769  0.4678  0.0865 -0.8796
   40POPC    C3 5342   4.310   3.648   6.750 -0.2716  0.3586 -0.2396
   40POPC    HX 5343   4.269   3.704   6.662  1.0696  0.4847 -0.8219
   40POPC    HY 5344   4.421   3.644   6.741 -0.0706  1.3543  1.3517
   40POPC   O31 5345   4.288   3.721   6.877 -0.6383  0.1275 -0.1311
   40POPC   C31 5346   4.254   3.849   6.867  0.0226  0.7275  0.4435
   40POPC   O32 5347   4.250   3.912   6.761 -0.2788 -0.7571  0.0076
   40POPC   C32 5348   4.229   3.908   6.999  0.5814  0.5590  0.2887
   40POPC   H2X 5349   4.267   3.839   7.077  0.9931  1.1469  0.6194
   40POPC   H2Y 5350   4.118   3.911   6.995  0.5091 -1.5937 -1.1842
   40POPC   C23 5351   3.897   3.545   6.974 -0.1560 -0.5018  0.0626
   40POPC   H3R 5352   3.789   3.552   6.997 -0.3747  0.1630 -1.0886
   40POPC   H3S 5353   3.922   3.645   6.932 -2.2476  1.2598  2.7068
   40POPC   C24 5354   3.971   3.502   7.110  0.3371 -0.2029 -0.7750
   40POPC   H4R 5355   3.974   3.602   7.157  0.1405 -0.9202  0.8331
   40POPC   H4S 5356   4.077   3.470   7.099  0.4448  0.4115 -1.6396
   40POPC   C25 5357   3.886   3.403   7.183  0.0234 -0.2322  0.4231
   40POPC   H5R 5358   3.902   3.303   7.136  2.6406  0.9863 -1.4983
   40POPC   H5S 5359   3.779   3.420   7.159 -0.0143 -0.3219  0.5247
   40POPC   C26 5360   3.909   3.414   7.336  0.2673  0.2211  0.4222
   40POPC   H6R 5361   3.887   3.521   7.360 -0.3988  0.2060 -0.1200
   40POPC   H6S 5362   4.015   3.385   7.352  0.0403 -0.4261  0.7910
   40POPC   C27 5363   3.830   3.311   7.425  0.1651 -0.7333 -0.2230
   40POPC   H7R 5364   3.870   3.211   7.396 -0.5911 -0.6120 -1.8158
   40POPC   H7S 5365   3.725   3.301   7.389  0.7273 -0.0898 -2.1479
   40POPC   C28 5366   3.842   3.341   7.577  0.0343  0.0356 -0.1479
   40POPC   H8R 5367   3.947   3.374   7.591 -0.2174 -0.0914  2.6921
   40POPC   H8S 5368   3.830   3.250   7.640 -0.6223  0.6145  0.5941
   40POPC   C29 5369   3.743   3.449   7.617  0.6637  0.4423  0.6559
   40POPC   H91 5370   3.637   3.422   7.607  0.3532  1.4331  1.0583
   40POPC  C210 5371   3.775   3.579   7.654 -0.0344 -0.4551 -0.7664
   40POPC  H101 5372   3.692   3.645   7.683  0.7110 -0.2184  0.9959
   40POPC  C211 5373   3.916   3.637   7.651 -0.8508 -0.4893 -0.2370
   40POPC  H11R 5374   3.994   3.559   7.641  1.2664  1.5297 -0.4030
   40POPC  H11S 5375   3.943   3.696   7.741  2.3536 -0.5772 -1.0314
   40POPC  C212 5376   3.946   3.737   7.537  0.0989  0.0170  0.0546
   40POPC  H12R 5377   3.876   3.823   7.545 -1.4460 -1.2905  1.0850
   40POPC  H12S 5378   3.952   3.693   7.435  0.9582 -0.0403  0.1243
   40POPC  C213 5379   4.082   3.814   7.551 -0.0607  0.6395  0.2268
   40POPC  H13R 5380   4.081   3.855   7.654  2.1093 -0.9369  0.9382
   40POPC  H13S 5381   4.075   3.891   7.472  2.8924 -0.9293 -1.7636
   40POPC  C214 5382   4.215   3.737   7.530 -0.1788  0.7666  0.2330
   40POPC  H14R 5383   4.224   3.664   7.613  1.6329 -1.3089 -1.6714
   40POPC  H14S 5384   4.301   3.808   7.532  1.0199 -0.6536  0.3414
   40POPC  C215 5385   4.216   3.660   7.392 -0.0826 -0.7218 -0.5320
   40POPC  H15R 5386   4.195   3.728   7.307 -0.9714  1.8705  1.6065
   40POPC  H15S 5387   4.135   3.584   7.393  0.4381 -1.4151 -3.2778
   40POPC  C216 5388   4.351   3.598   7.360  0.1721 -0.0039  0.2195
   40POPC  H16R 5389   4.397   3.533   7.437  0.8323  0.5110  0.2631
   40POPC  H16S 5390   4.413   3.689   7.347 -0.7628  0.7074  0.6221
   40POPC  C217 5391   4.338   3.519   7.227  0.6740  0.4026 -0.2686
   40POPC  H17R 5392   4.292   3.584   7.151 -2.0388 -1.4133 -0.3130
   40POPC  H17S 5393   4.262   3.438   7.238  0.5958  0.7355  2.2009
   40POPC  C218 5394   4.471   3.460   7.176  0.3294 -0.2536 -0.4427
   40POPC  H18R 5395   4.450   3.437   7.069  2.8802 -0.7157 -0.9168
   40POPC  H18S 5396   4.493   3.365   7.228 -1.4005 -1.1840 -1.3389
   40POPC  H18T 5397   4.551   3.538   7.177  2.1454 -2.0489  0.7495
   40POPC   C33 5398   4.277   4.054   7.012  0.9167  0.1411 -0.3984
   40POPC   H3X 5399   4.189   4.122   7.018  1.0299  0.2653 -0.0908
   40POPC   H3Y 5400   4.338   4.088   6.926 -1.6266  2.7782 -1.3335
   40POPC   C34 5401   4.344   4.072   7.150  0.3218  0.4126 -0.1309
   40POPC   H4X 5402   4.402   4.167   7.144  0.3780  0.3399 -0.9037
   40POPC   H4Y 5403   4.405   3.980   7.167 -3.7802 -2.2564  1.5310
   40POPC   C35 5404   4.244   4.090   7.266  0.3656 -0.3457 -0.5823
   40POPC   H5X 5405   4.297   4.036   7.348 -0.8151  0.4997  0.7748
   40POPC   H5Y 5406   4.142   4.047   7.260  0.2294 -0.5196  1.9520
   40POPC   C36 5407   4.234   4.234   7.325 -0.5726 -0.0982  0.1980
   40POPC   H6X 5408   4.146   4.286   7.281 -0.5068 -1.6433 -1.9508
   40POPC   H6Y 5409   4.314   4.299   7.282 -1.4452  0.1973 -1.0352
   40POPC   C37 5410   4.244   4.244   7.482  0.2686  0.2130  0.4784
   40POPC   H7X 5411   4.250   4.353   7.502  1.5938  0.3659 -0.6162
   40POPC   H7Y 5412   4.337   4.206   7.530 -0.0458  0.7767  1.5553
   40POPC   C38 5413   4.121   4.177   7.545 -0.2086  0.5660 -0.0985
   40POPC   H8X 5414   4.122   4.074   7.501 -1.2748  0.5783 -0.1671
   40POPC   H8Y 5415   4.041   4.243   7.505 -0.7141 -0.4280 -0.7896
   40POPC   C39 5416   4.113   4.172   7.694 -0.2212  0.1861  0.0818
   40POPC   H9X 5417   4.199   4.106   7.718 -0.5001 -0.8468 -1.5285
   40POPC   H9Y 5418   4.015   4.128   7.722 -0.6521  0.9615 -0.2064
   40POPC  C310 5419   4.124   4.306   7.766  0.1122 -0.5598  0.1364
   40POPC  H10X 5420   4.036   4.370   7.742 -0.4357 -0.7818  1.4526
   40POPC  H10Y 5421   4.215   4.359   7.732  1.1425 -1.0839  1.9221
   40POPC  C311 5422   4.122   4.295   7.920  0.1916 -0.6098  0.0245
   40POPC  H11X 5423   4.054   4.209   7.940 -0.0430 -0.8387 -1.6015
   40POPC  H11Y 5424   4.093   4.392   7.966  0.2670  0.7570 -2.6258
   40POPC  C312 5425   4.253   4.248   7.979 -0.4989 -0.2646 -0.1923
   40POPC  H12X 5426   4.338   4.317   7.960 -0.5486  0.3803  1.7269
   40POPC  H12Y 5427   4.294   4.164   7.919 -1.5827 -1.1851  0.3303
   40POPC  C313 5428   4.250   4.197   8.123  0.0261 -0.0645  0.2541
   40POPC  H13X 5429   4.213   4.093   8.120  0.6594 -0.2758 -0.3781
   40POPC  H13Y 5430   4.172   4.254   8.178  1.2288  1.2890  0.6459
   40POPC  C314 5431   4.379   4.201   8.200  0.2235  0.6942 -0.2858
   40POPC  H14X 5432   4.412   4.307   8.205  1.2527  0.3115  1.7983
   40POPC  H14Y 5433   4.460   4.143   8.150 -0.6713 -0.6630 -0.2151
   40POPC  C315 5434   4.376   4.146   8.346 -0.5870 -0.4007 -0.0658
   40POPC  H15X 5435   4.289   4.193   8.396 -0.6940  1.4946 -1.8624
   40POPC  H15Y 5436   4.471   4.179   8.391 -1.6099  1.8258  0.5996
   40POPC  C316 5437   4.372   3.997   8.354 -0.4856  0.0779 -0.8010
   40POPC  H16X 5438   4.386   3.955   8.456  2.1526  3.1391  0.2698
   40POPC  H16Y 5439   4.458   3.951   8.301  0.4405  1.9609 -1.0060
   40POPC  H16Z 5440   4.283   3.941   8.318  1.0118 -2.9426 -0.1513
   41CHL1    C3 5441   4.362   6.719  10.114  0.0195 -0.3507  0.4195
   41CHL1    H3 5442   4.253   6.720  10.092 -0.2526 -0.1807  1.7004
   41CHL1    O3 5443   4.378   6.752  10.253  0.5833 -0.3150 -0.5268
   41CHL1   H3' 5444   4.342   6.677  10.302 -0.8969  0.8768  0.3219
   41CHL1    C4 5445   4.436   6.577  10.098 -0.1273  0.0979 -0.2238
   41CHL1   H4A 5446   4.530   6.575  10.158 -1.6357  0.1065  2.2945
   41CHL1   H4B 5447   4.359   6.510  10.143 -0.5821  1.9169  1.8445
   41CHL1    C5 5448   4.470   6.544   9.949  0.0354 -0.0029  0.5295
   41CHL1    C6 5449   4.447   6.417   9.911  0.6257 -0.1052 -0.0939
   41CHL1    H6 5450   4.413   6.344   9.986 -1.5812 -0.1494 -1.0423
   41CHL1    C7 5451   4.471   6.378   9.767  0.3012  0.4567  0.2045
   41CHL1   H7A 5452   4.508   6.273   9.763 -0.4440  0.2327 -2.0839
   41CHL1   H7B 5453   4.369   6.374   9.723  0.1267 -0.7471  0.6735
   41CHL1    C8 5454   4.560   6.470   9.686 -0.2834  0.1763 -0.2089
   41CHL1    H8 5455   4.664   6.468   9.725 -1.1321 -0.7449  2.2153
   41CHL1   C14 5456   4.537   6.452   9.539  0.2997 -0.2530 -0.1051
   41CHL1   H14 5457   4.429   6.457   9.515  0.3276 -1.3650 -0.5066
   41CHL1   C15 5458   4.564   6.311   9.498  0.8527  0.7644  0.5104
   41CHL1  H15A 5459   4.654   6.273   9.551  1.4919 -0.2781 -1.2308
   41CHL1  H15B 5460   4.482   6.246   9.535  0.9044  1.7514  2.4974
   41CHL1   C16 5461   4.585   6.312   9.346  0.4778 -0.5142 -0.3330
   41CHL1  H16A 5462   4.688   6.278   9.323  1.3133  1.5528  0.1088
   41CHL1  H16B 5463   4.515   6.253   9.283 -0.5739  2.7285 -2.4593
   41CHL1   C17 5464   4.574   6.462   9.310  0.0821 -0.1092  0.0501
   41CHL1   H17 5465   4.466   6.487   9.298  0.4591  0.3424 -3.3372
   41CHL1   C13 5466   4.613   6.534   9.442  0.3899 -0.0358 -0.0606
   41CHL1   C18 5467   4.771   6.523   9.458 -0.2808 -0.6324  0.4880
   41CHL1  H18A 5468   4.818   6.427   9.430  3.2596  0.6721  1.4174
   41CHL1  H18B 5469   4.821   6.603   9.399 -1.5486  1.3520  1.9561
   41CHL1  H18C 5470   4.790   6.541   9.566 -3.3763 -0.7854  1.1766
   41CHL1   C12 5471   4.561   6.679   9.466 -0.3745 -0.5703 -0.0117
   41CHL1  H12A 5472   4.608   6.763   9.410 -3.6488  0.3082 -1.6416
   41CHL1  H12B 5473   4.453   6.687   9.443 -0.4555  1.2545  0.8795
   41CHL1   C11 5474   4.584   6.717   9.617 -0.1565  0.2885 -0.1370
   41CHL1  H11A 5475   4.692   6.720   9.644 -0.4459  0.3389  1.0720
   41CHL1  H11B 5476   4.537   6.817   9.628  0.9261  1.0087 -1.5840
   41CHL1    C9 5477   4.520   6.619   9.719 -0.0870  0.5651  0.8502
   41CHL1    H9 5478   4.413   6.626   9.688  0.0991  0.1603  0.0751
   41CHL1   C10 5479   4.531   6.662   9.864 -0.3314  0.2464 -0.4762
   41CHL1   C19 5480   4.676   6.697   9.908 -0.0435 -0.8541  0.1292
   41CHL1  H19A 5481   4.752   6.620   9.884 -0.9299 -1.7571  0.1721
   41CHL1  H19B 5482   4.718   6.792   9.869 -0.1545 -0.9044 -0.1119
   41CHL1  H19C 5483   4.673   6.729  10.015 -1.3488  2.8255 -0.8532
   41CHL1    C1 5484   4.445   6.792   9.888  0.3724 -0.6098  0.4739
   41CHL1   H1A 5485   4.497   6.877   9.838  0.3728 -1.9318 -1.9201
   41CHL1   H1B 5486   4.345   6.798   9.840  0.1420  3.2516  1.0746
   41CHL1    C2 5487   4.433   6.835  10.035 -0.2949  0.1066  0.5422
   41CHL1   H2A 5488   4.359   6.918  10.036 -0.2409  0.1674 -0.0566
   41CHL1   H2B 5489   4.530   6.864  10.080  0.8508 -0.3506 -1.5078
   41CHL1   C20 5490   4.642   6.495   9.172  0.6397  0.0672  0.5742
   41CHL1   H20 5491   4.752   6.486   9.181  0.4210 -1.7666  1.9196
   41CHL1   C21 5492   4.623   6.629   9.109  0.4372 -0.7397 -0.2949
   41CHL1  H21A 5493   4.530   6.679   9.145  0.0716 -2.1773  0.8302
   41CHL1  H21B 5494   4.624   6.636   8.998 -2.3000 -2.0776 -0.4769
   41CHL1  H21C 5495   4.712   6.684   9.146 -0.5683  0.8425 -0.1076
   41CHL1   C22 5496   4.583   6.395   9.064 -0.0875 -0.1991  0.0747
   41CHL1  H22A 5497   4.619   6.295   9.095 -1.1122 -0.6032  0.0209
   41CHL1  H22B 5498   4.474   6.384   9.085  0.0461  2.0766  2.5872
   41CHL1   C23 5499   4.606   6.410   8.915 -0.1855  0.3259 -1.1420
   41CHL1  H23A 5500   4.561   6.324   8.861 -0.8863 -1.5085  2.1184
   41CHL1  H23B 5501   4.559   6.502   8.873  0.1770 -0.2764 -2.9509
   41CHL1   C24 5502   4.755   6.405   8.889 -0.3099 -0.7533  1.1784
   41CHL1  H24A 5503   4.794   6.503   8.926 -1.3489 -0.8544  2.6343
   41CHL1  H24B 5504   4.787   6.315   8.946 -0.0916 -1.7624 -0.4650
   41CHL1   C25 5505   4.802   6.379   8.748  0.4674 -0.2379 -0.5480
   41CHL1   H25 5506   4.745   6.295   8.701  1.6656 -0.8866 -0.8833
   41CHL1   C26 5507   4.775   6.500   8.659 -0.7095  0.5482 -0.3018
   41CHL1  H26A 5508   4.837   6.586   8.693  0.1387 -0.3767  0.5929
   41CHL1  H26B 5509   4.804   6.478   8.554 -1.1755  1.4919 -0.6356
   41CHL1  H26C 5510   4.668   6.527   8.656 -1.8611 -3.4602 -1.8940
   41CHL1   C27 5511   4.948   6.344   8.748 -0.3613 -0.9489 -0.2308
   41CHL1  H27A 5512   4.993   6.335   8.647  4.2269 -0.4363  1.5090
   41CHL1  H27B 5513   5.007   6.417   8.809 -2.5598 -0.1458  1.0476
   41CHL1  H27C 5514   4.969   6.249   8.801  0.8155 -1.4288 -1.4834
   42CHL1    C3 5515   3.051   4.364   9.930  0.3844 -0.2972  0.2876
   42CHL1    H3 5516   3.148   4.416   9.945 -0.4054  1.1187  0.6575
   42CHL1    O3 5517   2.990   4.366  10.061  0.1932 -0.0033  0.5913
   42CHL1   H3' 5518   2.956   4.277  10.075 -0.3439 -0.1336 -1.2977
   42CHL1    C4 5519   2.958   4.449   9.841 -0.2937 -0.2155 -0.5007
   42CHL1   H4A 5520   2.855   4.413   9.863  0.7238 -0.8106  4.5496
   42CHL1   H4B 5521   2.952   4.551   9.885 -0.2023 -1.0624  1.6255
   42CHL1    C5 5522   2.990   4.446   9.694  0.0677  0.4366 -0.1485
   42CHL1    C6 5523   2.984   4.559   9.619  0.8204  0.0368  0.4598
   42CHL1    H6 5524   2.962   4.654   9.670 -4.2622 -0.4173 -0.3696
   42CHL1    C7 5525   3.002   4.553   9.472  0.2277 -0.0412 -0.6558
   42CHL1   H7A 5526   2.940   4.632   9.424 -0.4604  0.0190  0.3155
   42CHL1   H7B 5527   3.102   4.588   9.439 -0.4401  1.1913 -1.4595
   42CHL1    C8 5528   2.981   4.416   9.411 -0.1016  0.5894  0.4061
   42CHL1    H8 5529   2.874   4.389   9.402  0.2535 -0.4124 -1.2475
   42CHL1   C14 5530   3.038   4.410   9.270  0.3444 -0.2693 -0.2610
   42CHL1   H14 5531   3.145   4.428   9.290  0.5287 -2.3283  0.8386
   42CHL1   C15 5532   2.992   4.519   9.177 -0.1852 -0.1348 -0.4652
   42CHL1  H15A 5533   2.881   4.522   9.174 -0.3052 -1.7914  0.7069
   42CHL1  H15B 5534   3.026   4.620   9.209  1.1698 -1.1251  1.4238
   42CHL1   C16 5535   3.040   4.478   9.036  0.4964 -0.2503 -0.3164
   42CHL1  H16A 5536   2.973   4.495   8.949 -0.1835 -1.6403 -0.0846
   42CHL1  H16B 5537   3.132   4.535   9.010 -0.5270  1.9291  0.5633
   42CHL1   C17 5538   3.078   4.328   9.051 -0.2971  1.1734 -0.2674
   42CHL1   H17 5539   3.188   4.331   9.066 -0.2728 -1.1011  0.4021
   42CHL1   C13 5540   3.031   4.284   9.188 -0.1316 -0.5971  0.2024
   42CHL1   C18 5541   2.882   4.238   9.172 -0.2693 -0.0978  0.0853
   42CHL1  H18A 5542   2.822   4.309   9.110  1.0486  1.2968  0.3572
   42CHL1  H18B 5543   2.876   4.137   9.127  2.8746 -0.7336  0.9122
   42CHL1  H18C 5544   2.840   4.233   9.274  1.9908 -2.2427  0.9952
   42CHL1   C12 5545   3.117   4.178   9.267 -0.6220 -0.7331 -0.2554
   42CHL1  H12A 5546   3.116   4.079   9.215  1.1331 -0.2360 -1.3316
   42CHL1  H12B 5547   3.221   4.217   9.274 -0.1958 -1.4274 -1.9971
   42CHL1   C11 5548   3.070   4.172   9.418  0.2418  0.2145  0.1055
   42CHL1  H11A 5549   2.977   4.112   9.422  0.4480 -0.1316 -0.2102
   42CHL1  H11B 5550   3.151   4.115   9.469  1.3851  1.8054  0.1184
   42CHL1    C9 5551   3.062   4.307   9.485  0.4757 -0.2581 -0.1563
   42CHL1    H9 5552   3.160   4.357   9.500 -0.3653  0.7422  2.6195
   42CHL1   C10 5553   3.010   4.300   9.633  0.6281  0.6430 -0.8641
   42CHL1   C19 5554   2.875   4.232   9.636  0.2225  0.2073  0.0958
   42CHL1  H19A 5555   2.806   4.264   9.555  0.3561 -0.1137 -0.1461
   42CHL1  H19B 5556   2.878   4.121   9.634 -2.9382  0.0592 -0.3359
   42CHL1  H19C 5557   2.819   4.247   9.730  0.1009 -0.2584  0.0986
   42CHL1    C1 5558   3.113   4.227   9.726  0.1508 -0.3012  0.1548
   42CHL1   H1A 5559   3.137   4.124   9.690 -1.8876 -1.2186  1.2442
   42CHL1   H1B 5560   3.207   4.286   9.731 -0.4477  0.5822  2.2677
   42CHL1    C2 5561   3.070   4.227   9.882  0.6378  0.4416  0.2185
   42CHL1   H2A 5562   3.147   4.175   9.944  0.7661  0.7390  0.3132
   42CHL1   H2B 5563   2.980   4.164   9.875  0.8125  0.1355  0.6722
   42CHL1   C20 5564   3.067   4.241   8.926 -0.4239  0.2666  0.1746
   42CHL1   H20 5565   2.956   4.233   8.916 -0.5043 -0.6788  1.5827
   42CHL1   C21 5566   3.137   4.104   8.942 -0.1639 -0.3921  0.9659
   42CHL1  H21A 5567   3.073   4.030   8.995  1.0033 -0.7455  1.9219
   42CHL1  H21B 5568   3.234   4.110   8.995  1.3592 -2.8977 -1.2659
   42CHL1  H21C 5569   3.153   4.077   8.835 -2.5373  0.0741  0.4295
   42CHL1   C22 5570   3.125   4.319   8.809 -0.2400  0.1895 -0.1224
   42CHL1  H22A 5571   3.098   4.426   8.803 -1.5651 -0.1465 -0.4669
   42CHL1  H22B 5572   3.234   4.297   8.811 -0.1340  0.6594 -0.6137
   42CHL1   C23 5573   3.067   4.268   8.676  0.5998  0.1724 -0.1687
   42CHL1  H23A 5574   3.046   4.160   8.688 -0.9269  0.3278 -1.1372
   42CHL1  H23B 5575   2.965   4.310   8.667  1.0177  1.2083 -0.2552
   42CHL1   C24 5576   3.149   4.308   8.554 -0.7392 -0.2951 -0.2794
   42CHL1  H24A 5577   3.165   4.418   8.552 -2.7130  0.0380 -1.5595
   42CHL1  H24B 5578   3.252   4.268   8.563 -0.2255  1.1239  0.3710
   42CHL1   C25 5579   3.094   4.263   8.420  0.3172  0.2179  0.5238
   42CHL1   H25 5580   2.985   4.282   8.406 -0.1625 -2.2960  0.2613
   42CHL1   C26 5581   3.161   4.337   8.311  0.4977 -0.1007 -0.0079
   42CHL1  H26A 5582   3.270   4.315   8.312  0.3396 -1.1981  2.5312
   42CHL1  H26B 5583   3.135   4.303   8.209 -0.6495  0.9430 -0.0951
   42CHL1  H26C 5584   3.138   4.445   8.318 -1.1973 -0.2922 -1.7309
   42CHL1   C27 5585   3.096   4.108   8.407  0.4585  0.4839 -0.5747
   42CHL1  H27A 5586   3.199   4.066   8.406  0.5722  0.7012  0.4276
   42CHL1  H27B 5587   3.045   4.065   8.496  0.3893 -0.8388 -1.2378
   42CHL1  H27C 5588   3.042   4.070   8.318 -0.0783  0.7072 -0.3490
   43CHL1    C3 5589   2.904   5.639   9.864 -0.1702 -0.1973  0.6426
   43CHL1    H3 5590   2.858   5.740   9.862 -0.4289 -0.3137 -2.0874
   43CHL1    O3 5591   2.944   5.610   9.998 -0.3558  0.5112  0.7641
   43CHL1   H3' 5592   3.010   5.670  10.033 -1.9960  1.5126  2.3426
   43CHL1    C4 5593   2.807   5.527   9.812 -0.2445  0.2279  0.3490
   43CHL1   H4A 5594   2.861   5.430   9.813 -1.5413 -0.6351 -2.3709
   43CHL1   H4B 5595   2.730   5.524   9.892  0.7931  0.1041  1.3679
   43CHL1    C5 5596   2.772   5.555   9.669  0.0439 -0.1721  0.4463
   43CHL1    C6 5597   2.644   5.574   9.637  0.0407 -0.5624  0.5140
   43CHL1    H6 5598   2.572   5.561   9.719  0.6494 -0.0123  1.1528
   43CHL1    C7 5599   2.579   5.601   9.503 -0.0465  0.5647 -0.0653
   43CHL1   H7A 5600   2.497   5.531   9.475 -1.3956  2.6089 -1.4753
   43CHL1   H7B 5601   2.521   5.695   9.509 -1.2751 -0.2371  1.0239
   43CHL1    C8 5602   2.687   5.596   9.388  0.5634 -0.3053 -0.1959
   43CHL1    H8 5603   2.702   5.488   9.368 -0.1680 -0.1545 -1.7175
   43CHL1   C14 5604   2.631   5.672   9.268 -0.7020 -0.1698 -0.5097
   43CHL1   H14 5605   2.628   5.776   9.306  2.0478  0.0309 -0.6805
   43CHL1   C15 5606   2.494   5.635   9.217 -0.8556 -0.7859  0.2379
   43CHL1  H15A 5607   2.495   5.524   9.206  1.4312 -0.7013 -0.9105
   43CHL1  H15B 5608   2.417   5.671   9.288 -0.6988 -2.1237  1.1229
   43CHL1   C16 5609   2.489   5.707   9.080 -0.2018 -0.0110  0.0168
   43CHL1  H16A 5610   2.457   5.629   9.009  0.0533 -1.5419  1.5228
   43CHL1  H16B 5611   2.414   5.788   9.069 -0.9534 -0.3186  2.2175
   43CHL1   C17 5612   2.629   5.760   9.050  0.0089 -0.4485  0.0603
   43CHL1   H17 5613   2.641   5.865   9.085  0.2575 -0.0210 -1.2636
   43CHL1   C13 5614   2.721   5.674   9.145 -0.2497 -0.2767 -0.3824
   43CHL1   C18 5615   2.753   5.531   9.095 -0.2130 -0.2183  0.5140
   43CHL1  H18A 5616   2.830   5.542   9.016 -0.0453  2.4952  0.9705
   43CHL1  H18B 5617   2.805   5.464   9.167  0.5204 -1.5637 -1.1920
   43CHL1  H18C 5618   2.661   5.474   9.067  1.7827 -3.2863 -0.3336
   43CHL1   C12 5619   2.854   5.744   9.189  0.2014  0.0380 -0.4470
   43CHL1  H12A 5620   2.926   5.756   9.106  0.2538  1.2009 -0.2506
   43CHL1  H12B 5621   2.829   5.846   9.225 -1.4403 -1.0478  1.7426
   43CHL1   C11 5622   2.919   5.674   9.314  0.6094  0.8366  0.5391
   43CHL1  H11A 5623   2.960   5.578   9.278  0.3995  0.3268  1.6207
   43CHL1  H11B 5624   3.010   5.734   9.334  1.6550 -1.0081  1.5967
   43CHL1    C9 5625   2.821   5.662   9.436  0.1498  0.0149 -0.5380
   43CHL1    H9 5626   2.796   5.764   9.472  0.7277  0.1948 -0.6253
   43CHL1   C10 5627   2.882   5.589   9.564 -0.0045 -0.0808 -0.0044
   43CHL1   C19 5628   2.962   5.459   9.523  0.0944  0.4224  0.0581
   43CHL1  H19A 5629   3.043   5.474   9.448  0.8999 -0.8175  0.6528
   43CHL1  H19B 5630   3.012   5.398   9.601  0.5418  0.6351 -0.0623
   43CHL1  H19C 5631   2.886   5.386   9.486  0.7170 -0.7077  0.9402
   43CHL1    C1 5632   2.983   5.687   9.625 -0.1171  1.2879  0.0519
   43CHL1   H1A 5633   3.068   5.693   9.554 -0.3696 -0.7188 -0.4939
   43CHL1   H1B 5634   2.944   5.791   9.630 -1.5550  0.7211  2.2528
   43CHL1    C2 5635   3.022   5.644   9.769 -0.0336  0.0590  0.0366
   43CHL1   H2A 5636   3.107   5.705   9.805  0.0668 -1.1964  2.0854
   43CHL1   H2B 5637   3.055   5.538   9.761  1.3476  0.4264  0.5067
   43CHL1   C20 5638   2.669   5.754   8.905 -0.6889 -0.4376  0.0965
   43CHL1   H20 5639   2.672   5.648   8.869 -0.7102  0.4165 -2.6507
   43CHL1   C21 5640   2.811   5.817   8.886  0.4718  0.3367  0.0197
   43CHL1  H21A 5641   2.826   5.847   8.780  2.6864 -3.1705 -0.8681
   43CHL1  H21B 5642   2.895   5.748   8.909 -0.2974 -0.8492 -0.6213
   43CHL1  H21C 5643   2.819   5.912   8.942  0.7016  0.2289  0.1724
   43CHL1   C22 5644   2.556   5.828   8.825 -0.6687 -0.3187 -0.1834
   43CHL1  H22A 5645   2.462   5.770   8.828 -0.2943 -0.9431 -0.3482
   43CHL1  H22B 5646   2.550   5.934   8.857 -1.7111 -1.0153  2.1713
   43CHL1   C23 5647   2.586   5.833   8.671  0.1418 -0.3956 -0.0616
   43CHL1  H23A 5648   2.509   5.897   8.623  1.0798 -1.1738 -2.8187
   43CHL1  H23B 5649   2.686   5.875   8.647 -0.9387  2.8431  0.5799
   43CHL1   C24 5650   2.542   5.702   8.605  0.0449 -0.1893 -0.7279
   43CHL1  H24A 5651   2.578   5.618   8.668  0.5329  0.2582 -0.4002
   43CHL1  H24B 5652   2.432   5.708   8.617  0.3094  2.3403  1.4585
   43CHL1   C25 5653   2.579   5.684   8.456  0.0903  0.8514  0.0167
   43CHL1   H25 5654   2.683   5.717   8.437 -0.2697  2.1701  0.2586
   43CHL1   C26 5655   2.582   5.532   8.426  0.6384 -0.4603  0.8631
   43CHL1  H26A 5656   2.628   5.499   8.330  2.0656  0.8607  1.0706
   43CHL1  H26B 5657   2.647   5.487   8.504  2.8933 -1.0983 -1.2560
   43CHL1  H26C 5658   2.475   5.500   8.433 -0.0583  1.6771  0.7690
   43CHL1   C27 5659   2.491   5.752   8.362 -0.2226 -0.1929  0.8730
   43CHL1  H27A 5660   2.389   5.707   8.360 -1.6149  2.6911  1.1452
   43CHL1  H27B 5661   2.474   5.858   8.389 -0.4520  0.3204 -1.1143
   43CHL1  H27C 5662   2.541   5.747   8.263  1.5778 -0.4356  1.7651
   44CHL1    C3 5663   4.951   6.247  10.143 -0.0299  0.5984  0.0870
   44CHL1    H3 5664   4.962   6.139  10.163 -1.7632  0.6732  1.6700
   44CHL1    O3 5665   4.920   6.303  10.269 -0.1347 -0.5693  0.2993
   44CHL1   H3' 5666   4.843   6.351  10.239 -0.7685 -0.8526  1.3921
   44CHL1    C4 5667   5.074   6.306  10.074  0.2218  0.0156 -0.3150
   44CHL1   H4A 5668   5.069   6.416  10.054  2.7544 -0.0770 -1.9517
   44CHL1   H4B 5669   5.158   6.291  10.145  0.4560  0.7819 -0.4171
   44CHL1    C5 5670   5.104   6.235   9.946  0.9689 -0.0332  0.4872
   44CHL1    C6 5671   5.221   6.176   9.915  0.2553 -0.2199  0.0296
   44CHL1    H6 5672   5.305   6.170   9.986  0.0131 -0.7021  0.2827
   44CHL1    C7 5673   5.259   6.107   9.787  0.4040 -0.1561 -0.5291
   44CHL1   H7A 5674   5.364   6.129   9.759  0.5080 -1.2772 -1.1082
   44CHL1   H7B 5675   5.249   5.997   9.803  1.6847  0.0310  2.3596
   44CHL1    C8 5676   5.156   6.144   9.675 -0.6797 -0.9818 -0.2227
   44CHL1    H8 5677   5.193   6.245   9.646 -1.7431 -0.4519  0.2300
   44CHL1   C14 5678   5.173   6.056   9.558  0.0982  0.2076 -0.3684
   44CHL1   H14 5679   5.129   5.960   9.593 -0.8625 -0.3700 -2.9636
   44CHL1   C15 5680   5.315   6.032   9.503  0.0820 -0.1145 -0.6078
   44CHL1  H15A 5681   5.366   6.129   9.488 -2.4174  1.1029 -1.9058
   44CHL1  H15B 5682   5.369   5.959   9.567 -0.0151 -0.1866 -0.6075
   44CHL1   C16 5683   5.286   5.980   9.362 -0.3668  0.4211 -0.2107
   44CHL1  H16A 5684   5.336   6.041   9.284 -0.5744  0.9118  0.0362
   44CHL1  H16B 5685   5.322   5.875   9.358  0.5197  0.6251  1.4788
   44CHL1   C17 5686   5.132   5.982   9.340  0.0874 -0.7907  0.3672
   44CHL1   H17 5687   5.100   5.887   9.388  1.0372 -1.4327 -0.2618
   44CHL1   C13 5688   5.091   6.099   9.436 -0.0608  0.2134 -1.0995
   44CHL1   C18 5689   5.133   6.238   9.368  0.5289 -0.2425  0.3445
   44CHL1  H18A 5690   5.157   6.317   9.442 -1.8932  1.5477 -0.6202
   44CHL1  H18B 5691   5.228   6.224   9.312  1.3366 -0.9824  1.8524
   44CHL1  H18C 5692   5.052   6.281   9.305  0.7337  2.2416  1.6823
   44CHL1   C12 5693   4.945   6.088   9.474 -0.8001 -0.2729 -0.3152
   44CHL1  H12A 5694   4.871   6.130   9.403 -1.0632 -1.6477 -0.8660
   44CHL1  H12B 5695   4.912   5.983   9.487 -1.0709 -0.4293 -2.0562
   44CHL1   C11 5696   4.916   6.154   9.617 -0.3188 -0.5886  0.0328
   44CHL1  H11A 5697   4.890   6.259   9.590  3.1669  0.3104 -0.3535
   44CHL1  H11B 5698   4.822   6.113   9.658  0.1149 -0.3039  1.3486
   44CHL1    C9 5699   5.017   6.141   9.725 -0.8253 -0.6652 -0.4077
   44CHL1    H9 5700   5.009   6.034   9.757  0.4431 -0.5811  0.2728
   44CHL1   C10 5701   4.990   6.237   9.842  0.3713 -0.1981 -1.0665
   44CHL1   C19 5702   4.985   6.375   9.785 -0.6773 -0.5672  0.1153
   44CHL1  H19A 5703   5.068   6.393   9.714 -0.4280  0.2336  0.6059
   44CHL1  H19B 5704   4.883   6.400   9.750 -0.1567 -0.0102 -1.0331
   44CHL1  H19C 5705   4.991   6.453   9.864  1.8836 -1.9470  1.4393
   44CHL1    C1 5706   4.849   6.201   9.915 -0.5885  0.0344  0.6855
   44CHL1   H1A 5707   4.769   6.216   9.840  0.4040 -0.1029 -0.4199
   44CHL1   H1B 5708   4.864   6.094   9.939  1.6791  0.5512  1.8551
   44CHL1    C2 5709   4.825   6.267  10.049 -0.0029 -0.4903  0.1631
   44CHL1   H2A 5710   4.733   6.227  10.098 -0.3984 -1.3464 -1.2126
   44CHL1   H2B 5711   4.801   6.374  10.032  1.6257 -0.2128 -0.6016
   44CHL1   C20 5712   5.099   5.995   9.188 -0.6313  0.3277 -0.5271
   44CHL1   H20 5713   5.141   6.094   9.161  0.2044  0.9485  2.6319
   44CHL1   C21 5714   4.944   5.986   9.164  0.0647 -0.3972 -0.2684
   44CHL1  H21A 5715   4.898   5.895   9.209 -0.6104 -1.3627 -2.7269
   44CHL1  H21B 5716   4.915   5.979   9.057  0.9868 -0.6988 -0.5061
   44CHL1  H21C 5717   4.908   6.087   9.194  2.1040  0.5752 -0.8913
   44CHL1   C22 5718   5.183   5.894   9.104  0.0846 -0.1340  0.1495
   44CHL1  H22A 5719   5.292   5.887   9.123  0.1624  0.1440 -0.1855
   44CHL1  H22B 5720   5.139   5.792   9.113  0.6851 -0.4238 -0.1199
   44CHL1   C23 5721   5.169   5.923   8.953 -0.4660 -0.0768  0.8397
   44CHL1  H23A 5722   5.226   5.842   8.902 -0.7112 -0.7252  1.5761
   44CHL1  H23B 5723   5.061   5.918   8.931 -0.2397 -0.2721 -0.3003
   44CHL1   C24 5724   5.233   6.052   8.904  0.1968  0.1339 -0.1204
   44CHL1  H24A 5725   5.181   6.140   8.948 -0.5120 -0.3565  0.0352
   44CHL1  H24B 5726   5.330   6.051   8.958 -0.4709  1.3879  1.1739
   44CHL1   C25 5727   5.262   6.068   8.753 -0.5001 -0.6251 -0.4742
   44CHL1   H25 5728   5.353   6.008   8.734 -0.7753 -1.0500 -0.4785
   44CHL1   C26 5729   5.154   6.018   8.669 -0.4729 -0.6098 -0.7413
   44CHL1  H26A 5730   5.060   6.056   8.714  0.1090  0.4545 -0.3873
   44CHL1  H26B 5731   5.167   6.057   8.566 -1.3892 -0.7449 -0.9251
   44CHL1  H26C 5732   5.156   5.907   8.675 -1.3398 -0.5587  1.7233
   44CHL1   C27 5733   5.306   6.210   8.724  0.2317 -0.3676  0.5630
   44CHL1  H27A 5734   5.406   6.232   8.767  0.9886 -0.1452 -1.2400
   44CHL1  H27B 5735   5.323   6.222   8.615  0.4047  1.6734  0.7807
   44CHL1  H27C 5736   5.229   6.285   8.750  0.6876  1.3737 -2.6430
   45CHL1    C3 5737   0.666   2.886  10.117 -0.3439 -0.4720 -0.1335
   45CHL1    H3 5738   0.775   2.870  10.107 -0.1321  0.3517  0.6883
   45CHL1    O3 5739   0.641   2.956  10.241  0.1263  0.0021 -0.1756
   45CHL1   H3' 5740   0.546   2.944  10.251  0.1058 -1.0954 -1.3682
   45CHL1    C4 5741   0.607   2.972  10.005 -0.3118  0.3799 -0.4984
   45CHL1   H4A 5742   0.502   3.001  10.025 -0.4933  0.9058 -2.0463
   45CHL1   H4B 5743   0.653   3.073  10.002 -0.3653  0.3956 -0.9202
   45CHL1    C5 5744   0.603   2.908   9.865 -0.2217 -0.2577  0.3860
   45CHL1    C6 5745   0.663   2.968   9.761  0.1199 -0.0545  0.6172
   45CHL1    H6 5746   0.700   3.067   9.793  0.7378 -0.8550  2.5054
   45CHL1    C7 5747   0.672   2.915   9.626  0.0510  0.0337  0.6052
   45CHL1   H7A 5748   0.612   2.989   9.569  2.4248  0.6032 -1.3002
   45CHL1   H7B 5749   0.769   2.915   9.573 -1.1890  0.6082 -1.8436
   45CHL1    C8 5750   0.606   2.768   9.605  0.4457  0.2120  0.5711
   45CHL1    H8 5751   0.683   2.704   9.558 -0.0362 -1.1384  1.5662
   45CHL1   C14 5752   0.478   2.762   9.514 -0.0362  0.0610 -1.0095
   45CHL1   H14 5753   0.394   2.811   9.568 -0.2950 -0.2554 -1.1195
   45CHL1   C15 5754   0.506   2.841   9.385 -0.2419  0.1179  0.4956
   45CHL1  H15A 5755   0.482   2.949   9.397  0.8128  0.0963  3.3787
   45CHL1  H15B 5756   0.616   2.846   9.368  0.1375  0.0214  2.7312
   45CHL1   C16 5757   0.452   2.749   9.272 -0.3473 -1.0216 -0.6156
   45CHL1  H16A 5758   0.344   2.769   9.255 -0.3220  1.1709  1.3150
   45CHL1  H16B 5759   0.515   2.774   9.185 -0.5516  1.7454 -0.0472
   45CHL1   C17 5760   0.464   2.606   9.330 -0.2955  0.3567 -0.8322
   45CHL1   H17 5761   0.571   2.581   9.313 -0.3554  0.3183 -1.1461
   45CHL1   C13 5762   0.431   2.618   9.475 -0.0536 -0.1630 -1.3748
   45CHL1   C18 5763   0.280   2.610   9.504 -0.2801 -0.5449  0.6936
   45CHL1  H18A 5764   0.271   2.635   9.612  1.0937 -1.3209  1.0213
   45CHL1  H18B 5765   0.227   2.688   9.446 -3.7796 -0.9610  2.9899
   45CHL1  H18C 5766   0.237   2.510   9.483 -1.6700  0.2341 -0.3497
   45CHL1   C12 5767   0.514   2.514   9.555  0.2360  0.6423  0.5478
   45CHL1  H12A 5768   0.460   2.417   9.558  0.2641  0.6489  1.5750
   45CHL1  H12B 5769   0.612   2.499   9.504 -0.8825  2.1961 -2.3028
   45CHL1   C11 5770   0.540   2.547   9.705  0.0173 -0.5203 -0.1661
   45CHL1  H11A 5771   0.444   2.527   9.757  0.1087  0.6059  0.4610
   45CHL1  H11B 5772   0.611   2.473   9.748 -1.8276 -1.6379  1.1253
   45CHL1    C9 5773   0.592   2.691   9.731  0.4379  0.1232 -0.4532
   45CHL1    H9 5774   0.697   2.661   9.751 -0.0994 -0.9562  0.9050
   45CHL1   C10 5775   0.544   2.772   9.863 -0.0075  0.2898  0.2010
   45CHL1   C19 5776   0.386   2.767   9.873 -0.0897  0.2976  0.2316
   45CHL1  H19A 5777   0.346   2.838   9.949 -1.4465 -2.0906  1.8788
   45CHL1  H19B 5778   0.346   2.795   9.773  0.3506  0.7220  0.1669
   45CHL1  H19C 5779   0.353   2.667   9.908  1.3309 -0.0888  0.5434
   45CHL1    C1 5780   0.605   2.689   9.979 -0.4532  0.1413 -0.8121
   45CHL1   H1A 5781   0.565   2.586   9.988  2.6249 -0.9888  3.5028
   45CHL1   H1B 5782   0.712   2.671   9.956  0.0262  1.6108  0.1271
   45CHL1    C2 5783   0.606   2.748  10.129 -0.2761 -0.4692  0.0129
   45CHL1   H2A 5784   0.669   2.691  10.200 -0.3183  0.1564  0.5616
   45CHL1   H2B 5785   0.502   2.760  10.165 -0.7118 -0.5648 -1.1622
   45CHL1   C20 5786   0.388   2.505   9.241 -0.3979 -0.4319 -0.2117
   45CHL1   H20 5787   0.278   2.517   9.246 -0.3248  0.2122 -0.0536
   45CHL1   C21 5788   0.419   2.360   9.295  0.7062 -0.3271 -0.0164
   45CHL1  H21A 5789   0.529   2.348   9.296  0.6541 -0.8060 -0.0036
   45CHL1  H21B 5790   0.378   2.275   9.237  0.3350  0.2421 -0.6025
   45CHL1  H21C 5791   0.377   2.337   9.396  0.7317  0.9226  0.3012
   45CHL1   C22 5792   0.424   2.515   9.092 -0.3281  0.2245 -0.5006
   45CHL1  H22A 5793   0.376   2.609   9.057 -1.2343 -0.3404 -0.8228
   45CHL1  H22B 5794   0.535   2.514   9.085 -0.3063  1.2251 -0.4143
   45CHL1   C23 5795   0.351   2.411   9.006 -0.6206  0.2101  0.2433
   45CHL1  H23A 5796   0.405   2.314   9.004 -2.5359 -0.8845 -1.8021
   45CHL1  H23B 5797   0.249   2.392   9.045 -0.2556 -1.9637  0.2389
   45CHL1   C24 5798   0.355   2.463   8.859  0.1132 -0.1666 -0.1339
   45CHL1  H24A 5799   0.314   2.566   8.871  1.1853  0.1827  0.6844
   45CHL1  H24B 5800   0.460   2.467   8.822  1.1954 -0.9164  2.6602
   45CHL1   C25 5801   0.280   2.382   8.752 -0.0021 -0.0389  0.4132
   45CHL1   H25 5802   0.175   2.377   8.789  0.0644 -0.0734  0.5971
   45CHL1   C26 5803   0.280   2.451   8.617  0.3030 -0.0466 -0.0278
   45CHL1  H26A 5804   0.193   2.419   8.557 -1.1536  0.9905  1.4431
   45CHL1  H26B 5805   0.256   2.557   8.639 -0.5490 -0.2201 -0.1139
   45CHL1  H26C 5806   0.376   2.440   8.562 -0.0861  0.6058 -0.8696
   45CHL1   C27 5807   0.330   2.243   8.732  0.2044 -0.1480 -0.3776
   45CHL1  H27A 5808   0.429   2.241   8.681  0.4379 -0.1197  0.0740
   45CHL1  H27B 5809   0.366   2.195   8.825  2.2474  0.5176 -0.7676
   45CHL1  H27C 5810   0.263   2.179   8.671  2.6478 -2.6469 -0.6299
   46CHL1    C3 5811   1.577   2.645  10.084 -0.0118  0.0592 -0.0698
   46CHL1    H3 5812   1.656   2.567  10.074  0.3881  0.4161  0.2952
   46CHL1    O3 5813   1.550   2.662  10.224  0.5497  0.5765  0.2703
   46CHL1   H3' 5814   1.616   2.718  10.264 -0.1389  1.0812  0.7166
   46CHL1    C4 5815   1.616   2.771  10.013  0.0173 -0.3720 -0.5870
   46CHL1   H4A 5816   1.548   2.854  10.044 -0.3712 -0.9199  0.0393
   46CHL1   H4B 5817   1.721   2.798  10.037 -0.7982  2.8388 -0.1698
   46CHL1    C5 5818   1.611   2.768   9.857  0.9465 -0.3416 -0.2576
   46CHL1    C6 5819   1.712   2.801   9.777 -0.2071 -0.5171 -0.3179
   46CHL1    H6 5820   1.800   2.845   9.827 -1.6341  3.1270 -0.6472
   46CHL1    C7 5821   1.714   2.792   9.627  0.1457 -0.1184 -0.6266
   46CHL1   H7A 5822   1.778   2.879   9.597  0.0248 -0.1791 -1.0745
   46CHL1   H7B 5823   1.773   2.704   9.595  2.2430  0.9204  0.1425
   46CHL1    C8 5824   1.571   2.795   9.565  1.1109 -0.0257  0.1375
   46CHL1    H8 5825   1.513   2.888   9.583 -1.8923 -1.4703 -1.3098
   46CHL1   C14 5826   1.581   2.762   9.418 -0.0456 -0.0768  0.6354
   46CHL1   H14 5827   1.626   2.661   9.429 -2.5611 -1.1063  2.7879
   46CHL1   C15 5828   1.660   2.857   9.332  0.6304  0.5913 -0.0681
   46CHL1  H15A 5829   1.639   2.958   9.374  1.0594  0.9179 -0.6112
   46CHL1  H15B 5830   1.771   2.847   9.333  0.6373  0.6263 -0.3908
   46CHL1   C16 5831   1.614   2.843   9.186 -0.0988  0.1641 -0.8081
   46CHL1  H16A 5832   1.577   2.942   9.152 -1.7697  0.1364  0.7836
   46CHL1  H16B 5833   1.684   2.802   9.111 -1.9428 -1.4445 -1.7465
   46CHL1   C17 5834   1.496   2.741   9.196  0.5368 -0.4374 -0.9516
   46CHL1   H17 5835   1.531   2.637   9.180 -1.6176 -1.1614 -1.2696
   46CHL1   C13 5836   1.445   2.749   9.348 -1.1260 -0.5627  0.0077
   46CHL1   C18 5837   1.361   2.881   9.364 -0.3378 -0.4833 -0.4854
   46CHL1  H18A 5838   1.414   2.961   9.308 -1.9191  1.3579  0.5496
   46CHL1  H18B 5839   1.258   2.873   9.323 -0.1546  0.3401 -1.1383
   46CHL1  H18C 5840   1.350   2.921   9.467  0.9675  1.8547 -1.1871
   46CHL1   C12 5841   1.382   2.626   9.409  0.1323  0.1698 -0.1416
   46CHL1  H12A 5842   1.278   2.604   9.377 -0.8629  1.2757  2.1735
   46CHL1  H12B 5843   1.449   2.540   9.387 -0.0293  0.3743 -1.5717
   46CHL1   C11 5844   1.368   2.645   9.563  0.3356  0.6460  0.1475
   46CHL1  H11A 5845   1.291   2.724   9.578  1.8666  2.2634 -0.1842
   46CHL1  H11B 5846   1.329   2.552   9.609 -1.8014  1.7365  0.6522
   46CHL1    C9 5847   1.495   2.683   9.641  0.0051  0.9379  0.2224
   46CHL1    H9 5848   1.557   2.591   9.634 -0.5047  0.6563 -0.9273
   46CHL1   C10 5849   1.478   2.710   9.792  0.1264 -0.0584 -0.0372
   46CHL1   C19 5850   1.372   2.821   9.810 -1.0055  0.8267  0.0731
   46CHL1  H19A 5851   1.361   2.848   9.917 -1.5443  1.7425 -0.1999
   46CHL1  H19B 5852   1.406   2.905   9.746  2.3534  0.0698  0.6623
   46CHL1  H19C 5853   1.269   2.796   9.776 -0.4441 -0.0006 -1.1055
   46CHL1    C1 5854   1.448   2.574   9.863 -0.6658 -0.3299 -0.0439
   46CHL1   H1A 5855   1.348   2.535   9.834 -0.8675 -0.2601  0.5578
   46CHL1   H1B 5856   1.530   2.501   9.844 -0.1455  0.1076  0.4691
   46CHL1    C2 5857   1.448   2.592  10.023  0.1982 -0.5314  0.2559
   46CHL1   H2A 5858   1.420   2.499  10.077 -0.6735  0.5658  1.7743
   46CHL1   H2B 5859   1.356   2.654  10.037  0.2663 -0.1610 -0.8319
   46CHL1   C20 5860   1.393   2.750   9.089 -0.3808 -0.6928  0.0494
   46CHL1   H20 5861   1.331   2.841   9.107  0.4767 -0.3265  1.2719
   46CHL1   C21 5862   1.292   2.632   9.095 -0.1587  0.1945 -1.0654
   46CHL1  H21A 5863   1.341   2.533   9.110 -1.0405 -0.1143 -0.1343
   46CHL1  H21B 5864   1.212   2.628   9.018  0.1495  1.0795 -1.4438
   46CHL1  H21C 5865   1.235   2.653   9.189 -0.8980 -0.4002 -1.3754
   46CHL1   C22 5866   1.454   2.760   8.944 -0.6867 -0.3484 -0.0755
   46CHL1  H22A 5867   1.524   2.845   8.956 -0.8435 -0.4267  1.6217
   46CHL1  H22B 5868   1.497   2.665   8.907 -2.1574 -0.9790 -0.2353
   46CHL1   C23 5869   1.359   2.813   8.838  0.2503  0.6032 -0.3467
   46CHL1  H23A 5870   1.269   2.748   8.837  1.4775 -1.2021  0.3024
   46CHL1  H23B 5871   1.318   2.914   8.857 -1.8525 -0.4170  0.9358
   46CHL1   C24 5872   1.420   2.805   8.695 -0.1193 -0.5953  0.3681
   46CHL1  H24A 5873   1.500   2.882   8.687 -0.7251 -0.0493 -0.5990
   46CHL1  H24B 5874   1.460   2.701   8.687 -0.4110 -0.5575 -2.2387
   46CHL1   C25 5875   1.313   2.813   8.589 -0.5508  0.2353 -0.4338
   46CHL1   H25 5876   1.250   2.724   8.609 -1.8594  1.8183  3.6998
   46CHL1   C26 5877   1.208   2.931   8.606 -0.6696 -0.1639  0.7226
   46CHL1  H26A 5878   1.133   2.908   8.527 -0.2742  2.0398 -0.3657
   46CHL1  H26B 5879   1.157   2.932   8.704 -0.7267 -2.1121  0.7598
   46CHL1  H26C 5880   1.264   3.019   8.568 -2.2170  0.7525  0.4806
   46CHL1   C27 5881   1.373   2.802   8.444  0.4922 -0.0730 -0.0400
   46CHL1  H27A 5882   1.416   2.899   8.412  0.6699 -0.4530 -0.9802
   46CHL1  H27B 5883   1.459   2.732   8.451  0.0382 -0.5706  0.6241
   46CHL1  H27C 5884   1.301   2.754   8.374 -0.2292  0.0050  0.6414
   47CHL1    C3 5885   3.983   6.316  10.027 -0.5939  0.2815 -0.2506
   47CHL1    H3 5886   4.010   6.424  10.023 -2.4887  0.8533  0.9953
   47CHL1    O3 5887   3.969   6.283  10.164  0.4212 -0.3301 -0.1936
   47CHL1   H3' 5888   3.957   6.188  10.168 -0.2783 -0.1958  3.2253
   47CHL1    C4 5889   3.859   6.271   9.958  0.2951 -0.0821 -0.6212
   47CHL1   H4A 5890   3.828   6.170   9.992  1.6125 -0.1044  0.6579
   47CHL1   H4B 5891   3.770   6.328   9.991 -1.5268 -1.3646 -3.0232
   47CHL1    C5 5892   3.877   6.279   9.811  0.4076 -0.0969  0.4761
   47CHL1    C6 5893   3.781   6.338   9.736 -0.3818 -0.5619 -0.1917
   47CHL1    H6 5894   3.697   6.390   9.783 -0.9220 -2.8990  1.6363
   47CHL1    C7 5895   3.778   6.338   9.586  0.4773  0.1272  0.3519
   47CHL1   H7A 5896   3.679   6.306   9.547  0.9359  1.0936 -1.7663
   47CHL1   H7B 5897   3.798   6.441   9.549  0.9298  0.2899  1.0362
   47CHL1    C8 5898   3.880   6.237   9.529  0.1518  0.2959  0.1319
   47CHL1    H8 5899   3.828   6.140   9.540 -2.2508  1.3916 -0.6979
   47CHL1   C14 5900   3.912   6.265   9.380 -0.1841 -0.4576  0.1044
   47CHL1   H14 5901   3.964   6.363   9.381 -2.2461  0.7212 -1.2847
   47CHL1   C15 5902   3.799   6.298   9.285  0.0164 -0.3364  0.4165
   47CHL1  H15A 5903   3.707   6.242   9.311  0.1217 -1.8257 -2.1545
   47CHL1  H15B 5904   3.764   6.404   9.291  2.3708  0.5670 -0.2951
   47CHL1   C16 5905   3.847   6.254   9.148 -0.3255  0.2380  0.3325
   47CHL1  H16A 5906   3.782   6.169   9.116  3.2209 -2.9914  0.9602
   47CHL1  H16B 5907   3.834   6.328   9.066 -0.2179 -1.3509 -1.1890
   47CHL1   C17 5908   3.994   6.214   9.160  0.6434 -0.0575 -0.2511
   47CHL1   H17 5909   4.052   6.308   9.163 -0.1890  0.5276 -1.5396
   47CHL1   C13 5910   3.998   6.161   9.309  0.4541 -0.4790  0.2934
   47CHL1   C18 5911   3.936   6.015   9.309 -0.4113 -0.0553 -0.1989
   47CHL1  H18A 5912   3.846   6.000   9.245 -0.3547 -2.5415  0.2001
   47CHL1  H18B 5913   3.996   5.931   9.267 -2.8289 -0.6421 -2.7971
   47CHL1  H18C 5914   3.903   5.982   9.410 -0.5456  0.0598 -0.2042
   47CHL1   C12 5915   4.132   6.172   9.372  0.3787  0.1607 -0.9939
   47CHL1  H12A 5916   4.194   6.103   9.311  2.2386  0.9745 -0.1103
   47CHL1  H12B 5917   4.173   6.274   9.356  0.4990  0.3115  0.1771
   47CHL1   C11 5918   4.123   6.147   9.527  0.6960  0.5915 -0.7865
   47CHL1  H11A 5919   4.087   6.043   9.545  1.3112  0.5943  0.5399
   47CHL1  H11B 5920   4.222   6.171   9.571  0.6856 -0.2415 -0.2814
   47CHL1    C9 5921   4.014   6.238   9.601 -0.4986 -0.5665  0.6289
   47CHL1    H9 5922   4.052   6.342   9.602 -0.3034 -0.6168 -0.3722
   47CHL1   C10 5923   4.005   6.213   9.750  0.0981 -0.1874 -0.2265
   47CHL1   C19 5924   3.998   6.060   9.769  0.5028  0.5491 -0.9048
   47CHL1  H19A 5925   3.960   6.018   9.866  0.2698  0.4465 -1.0377
   47CHL1  H19B 5926   3.925   6.023   9.694 -1.4204  1.7260  0.2792
   47CHL1  H19C 5927   4.095   6.006   9.759 -0.0299 -0.9375  1.1228
   47CHL1    C1 5928   4.129   6.260   9.834  0.2582 -0.1671 -0.0028
   47CHL1   H1A 5929   4.222   6.205   9.811 -0.3317 -1.0327 -0.3823
   47CHL1   H1B 5930   4.134   6.371   9.828  1.4321 -0.2594 -0.9353
   47CHL1    C2 5931   4.105   6.240   9.986 -0.7049  0.0830  0.2076
   47CHL1   H2A 5932   4.194   6.290  10.030  1.3995 -2.3534 -0.9368
   47CHL1   H2B 5933   4.100   6.131  10.008  2.5534  0.0327  1.3279
   47CHL1   C20 5934   4.041   6.123   9.045 -0.0669 -0.1456  0.3861
   47CHL1   H20 5935   3.983   6.028   9.041 -0.8008  0.2307  1.5314
   47CHL1   C21 5936   4.196   6.094   9.058 -0.3039 -0.1290 -0.4025
   47CHL1  H21A 5937   4.240   6.045   8.968  1.2450 -0.2614  0.3829
   47CHL1  H21B 5938   4.232   6.029   9.141  1.0371  1.1532  0.0727
   47CHL1  H21C 5939   4.244   6.193   9.075 -2.8599  1.0163  0.7114
   47CHL1   C22 5940   4.014   6.186   8.908  0.2297 -0.0293  0.7128
   47CHL1  H22A 5941   3.906   6.210   8.897  0.2679 -0.7356 -1.7772
   47CHL1  H22B 5942   4.074   6.280   8.908  1.7960 -0.9968 -0.1872
   47CHL1   C23 5943   4.043   6.094   8.792  0.3152  0.2070 -0.4846
   47CHL1  H23A 5944   4.021   6.136   8.692  1.6737 -0.8722 -1.2723
   47CHL1  H23B 5945   4.150   6.065   8.788  0.7072  1.2369  1.5446
   47CHL1   C24 5946   3.973   5.956   8.802  0.3555  0.0805  1.2144
   47CHL1  H24A 5947   4.011   5.908   8.895  0.3173  0.6642  1.5415
   47CHL1  H24B 5948   3.864   5.979   8.796  0.3798 -0.2034 -1.1250
   47CHL1   C25 5949   4.000   5.842   8.704 -0.1772  0.2945 -0.2993
   47CHL1   H25 5950   3.928   5.760   8.726 -0.2266  0.4946  0.3038
   47CHL1   C26 5951   3.996   5.877   8.559 -0.8105  0.0597  0.4959
   47CHL1  H26A 5952   4.025   5.791   8.494  1.2299  2.0396 -1.4458
   47CHL1  H26B 5953   4.065   5.958   8.526 -0.1756 -0.3346  0.8254
   47CHL1  H26C 5954   3.889   5.885   8.533 -0.7210 -0.2377  0.0062
   47CHL1   C27 5955   4.136   5.784   8.740 -0.5769  0.1483 -0.5014
   47CHL1  H27A 5956   4.162   5.690   8.687  1.9641 -0.4833  1.6481
   47CHL1  H27B 5957   4.226   5.848   8.734  0.1229 -0.9452 -2.5395
   47CHL1  H27C 5958   4.134   5.756   8.847  1.4632 -1.4102 -0.8232
   48CHL1    C3 5959   4.179   0.635  10.156 -0.1995  0.3646  0.0937
   48CHL1    H3 5960   4.127   0.731  10.141 -1.0880 -0.0638  0.3397
   48CHL1    O3 5961   4.231   0.640  10.288 -0.2882  0.1366  0.0468
   48CHL1   H3' 5962   4.325   0.628  10.278  0.4831  0.8779  4.2818
   48CHL1    C4 5963   4.082   0.519  10.143 -0.0300  0.2853 -0.1859
   48CHL1   H4A 5964   4.150   0.436  10.170  1.9680  1.2225 -2.0674
   48CHL1   H4B 5965   4.010   0.540  10.225 -0.8296 -0.7320 -0.6051
   48CHL1    C5 5966   4.020   0.505  10.008 -0.6364 -0.2051 -0.0768
   48CHL1    C6 5967   3.886   0.527   9.980 -0.3299  0.3868 -0.4012
   48CHL1    H6 5968   3.804   0.538  10.051 -0.4396 -2.7119  0.1107
   48CHL1    C7 5969   3.833   0.512   9.841  0.9342 -0.4501  0.5007
   48CHL1   H7A 5970   3.735   0.461   9.836  1.7204 -2.1933  1.7741
   48CHL1   H7B 5971   3.827   0.616   9.803  0.4699 -0.9255 -0.7901
   48CHL1    C8 5972   3.930   0.441   9.742 -0.5939 -0.1714  0.1636
   48CHL1    H8 5973   3.933   0.332   9.760 -0.7299 -0.1392  0.3912
   48CHL1   C14 5974   3.877   0.469   9.600  0.3578  0.1530  0.4168
   48CHL1   H14 5975   3.893   0.578   9.595  1.8492 -0.0451  0.2568
   48CHL1   C15 5976   3.731   0.424   9.570 -0.3925  0.6906  0.0086
   48CHL1  H15A 5977   3.715   0.323   9.612 -0.9277  1.0413  0.6941
   48CHL1  H15B 5978   3.658   0.499   9.611 -0.7646  0.6066 -0.4933
   48CHL1   C16 5979   3.731   0.426   9.421  0.0115  0.0967 -0.4141
   48CHL1  H16A 5980   3.696   0.329   9.379 -1.7022  0.5539 -0.1071
   48CHL1  H16B 5981   3.655   0.501   9.391 -2.7101 -1.7016  1.5145
   48CHL1   C17 5982   3.877   0.453   9.364  0.2829 -0.2286 -0.1424
   48CHL1   H17 5983   3.893   0.561   9.347  2.3256 -0.3811  0.5696
   48CHL1   C13 5984   3.965   0.414   9.484  0.3353  0.4369  0.1144
   48CHL1   C18 5985   3.967   0.262   9.492 -0.1608  0.4939 -0.5094
   48CHL1  H18A 5986   3.869   0.211   9.497 -0.7562  1.6940  1.0998
   48CHL1  H18B 5987   4.025   0.217   9.409  1.3199  2.2564 -0.4954
   48CHL1  H18C 5988   4.010   0.236   9.592 -0.3348  1.3281 -0.2088
   48CHL1   C12 5989   4.109   0.478   9.496  1.0027 -0.7369  0.5767
   48CHL1  H12A 5990   4.162   0.430   9.411 -1.9566 -0.7421 -1.4118
   48CHL1  H12B 5991   4.093   0.585   9.471 -0.9481 -1.0208  0.4242
   48CHL1   C11 5992   4.166   0.452   9.638  0.1305  0.4000  0.0026
   48CHL1  H11A 5993   4.195   0.345   9.649 -1.7556  0.0395  2.1120
   48CHL1  H11B 5994   4.261   0.510   9.642 -0.8504  1.9483  2.0315
   48CHL1    C9 5995   4.068   0.504   9.750  0.0871  0.7472 -0.3201
   48CHL1    H9 5996   4.051   0.613   9.731 -1.4499  0.6278  0.2807
   48CHL1   C10 5997   4.119   0.495   9.894 -0.0640 -0.5691  0.8101
   48CHL1   C19 5998   4.192   0.353   9.909 -0.3357 -0.3711  0.3384
   48CHL1  H19A 5999   4.231   0.324  10.008  0.8751  3.2837  1.0739
   48CHL1  H19B 6000   4.121   0.275   9.874 -2.5523  2.1599 -1.2436
   48CHL1  H19C 6001   4.285   0.357   9.848 -0.4269  1.2282  0.2487
   48CHL1    C1 6002   4.242   0.610   9.912 -0.2797  0.8420  0.3661
   48CHL1   H1A 6003   4.319   0.565   9.846 -0.8460 -1.4744  1.1698
   48CHL1   H1B 6004   4.214   0.707   9.867  1.9346 -0.0610 -3.3658
   48CHL1    C2 6005   4.299   0.615  10.058  0.9120  0.0191  0.7857
   48CHL1   H2A 6006   4.368   0.702  10.060  0.5475  0.5389 -2.6413
   48CHL1   H2B 6007   4.349   0.517  10.076 -0.6345 -0.6484  1.6258
   48CHL1   C20 6008   3.901   0.398   9.225  0.4848 -0.9757  0.7701
   48CHL1   H20 6009   3.914   0.288   9.234  0.8700 -1.1006 -0.9033
   48CHL1   C21 6010   4.032   0.451   9.168  0.5387 -0.1295 -0.4457
   48CHL1  H21A 6011   4.037   0.461   9.058  2.8235  0.7254 -0.3207
   48CHL1  H21B 6012   4.120   0.397   9.208  1.5174  0.7426 -1.3770
   48CHL1  H21C 6013   4.049   0.558   9.195 -0.8414  0.2183 -0.8468
   48CHL1   C22 6014   3.778   0.430   9.134  0.1603 -0.2837  0.6611
   48CHL1  H22A 6015   3.800   0.389   9.033  0.1563  2.4439 -0.5323
   48CHL1  H22B 6016   3.688   0.376   9.171 -0.5972  0.2516 -0.3475
   48CHL1   C23 6017   3.739   0.576   9.107 -0.1049 -0.1512 -0.1342
   48CHL1  H23A 6018   3.707   0.624   9.202 -0.8937 -1.2906  0.2066
   48CHL1  H23B 6019   3.829   0.627   9.068  0.2707 -0.6754  0.0376
   48CHL1   C24 6020   3.616   0.588   9.019 -0.0103 -0.1090  0.6986
   48CHL1  H24A 6021   3.652   0.535   8.928  0.5729 -0.3390  1.0561
   48CHL1  H24B 6022   3.528   0.538   9.064 -1.9646  1.3202 -1.2816
   48CHL1   C25 6023   3.569   0.734   8.980 -0.4627  0.3987  0.9672
   48CHL1   H25 6024   3.651   0.801   8.947 -0.9073  0.0694 -0.9368
   48CHL1   C26 6025   3.467   0.720   8.866  0.6841 -0.2796  0.6281
   48CHL1  H26A 6026   3.374   0.670   8.900  0.5415  0.6811  1.7103
   48CHL1  H26B 6027   3.450   0.819   8.818  1.4617 -0.3696  0.1506
   48CHL1  H26C 6028   3.515   0.652   8.792 -0.6693 -0.7248  0.1233
   48CHL1   C27 6029   3.503   0.811   9.096 -0.1264  0.5326  0.2205
   48CHL1  H27A 6030   3.480   0.913   9.058  0.0491 -0.1042 -1.6594
   48CHL1  H27B 6031   3.414   0.758   9.136 -2.0453  1.7437 -2.1892
   48CHL1  H27C 6032   3.577   0.822   9.178  0.3392 -1.0082  0.0339
   49CHL1    C3 6033   0.142   2.190  10.018 -0.1900 -0.2611 -0.6470
   49CHL1    H3 6034   0.039   2.149  10.032 -0.3901  0.7995  1.4635
   49CHL1    O3 6035   0.174   2.232  10.150 -0.1322  0.2124  0.2060
   49CHL1   H3' 6036   0.253   2.287  10.147 -1.2509  2.1033  2.4715
   49CHL1    C4 6037   0.231   2.062   9.997 -0.1409 -0.3865  0.3373
   49CHL1   H4A 6038   0.337   2.094  10.008 -0.2378  0.3104 -0.6223
   49CHL1   H4B 6039   0.195   2.001  10.083 -1.8982  2.2853  1.6074
   49CHL1    C5 6040   0.209   2.009   9.859 -0.1148 -0.2142 -0.7853
   49CHL1    C6 6041   0.162   1.886   9.842 -0.4991  0.1003  0.0394
   49CHL1    H6 6042   0.138   1.820   9.927 -0.8519  0.1861  0.0104
   49CHL1    C7 6043   0.133   1.829   9.706 -0.2422  0.0807  0.7134
   49CHL1   H7A 6044   0.151   1.720   9.701  2.7279  0.5044  0.5807
   49CHL1   H7B 6045   0.028   1.848   9.673  1.6154  3.3083 -4.5404
   49CHL1    C8 6046   0.212   1.907   9.597  0.2448  0.1005 -0.6447
   49CHL1    H8 6047   0.321   1.892   9.614  0.1205  1.5515  2.0190
   49CHL1   C14 6048   0.163   1.856   9.463 -0.6536 -0.2182  0.6993
   49CHL1   H14 6049   0.053   1.866   9.461 -0.6910 -0.4151  1.4649
   49CHL1   C15 6050   0.194   1.706   9.428 -0.7644 -0.1310 -0.9219
   49CHL1  H15A 6051   0.301   1.680   9.443 -0.3483 -0.0147 -3.2378
   49CHL1  H15B 6052   0.133   1.637   9.489 -0.2309 -0.4647 -0.7583
   49CHL1   C16 6053   0.163   1.703   9.282  0.0489  0.1109  0.0726
   49CHL1  H16A 6054   0.244   1.646   9.232 -0.3352 -0.8101  0.4723
   49CHL1  H16B 6055   0.069   1.649   9.256  0.7369 -2.2553  2.0875
   49CHL1   C17 6056   0.164   1.850   9.228  0.5835 -0.6076  0.3829
   49CHL1   H17 6057   0.057   1.876   9.242  1.1323  1.1255  1.8656
   49CHL1   C13 6058   0.229   1.933   9.341  0.0366  0.5452 -1.0371
   49CHL1   C18 6059   0.385   1.904   9.335 -0.0191 -0.2992 -0.8459
   49CHL1  H18A 6060   0.437   1.939   9.427 -0.5285  1.0154 -1.0378
   49CHL1  H18B 6061   0.400   1.798   9.304 -1.4358 -1.0996  1.0535
   49CHL1  H18C 6062   0.434   1.969   9.258 -0.9361  1.0877 -0.2873
   49CHL1   C12 6063   0.182   2.084   9.351 -0.2737  0.4036  0.7749
   49CHL1  H12A 6064   0.213   2.147   9.264 -0.7475 -0.4660 -0.0494
   49CHL1  H12B 6065   0.071   2.081   9.349 -0.2478 -0.7714  0.5763
   49CHL1   C11 6066   0.239   2.140   9.483 -0.2706  0.5873  0.9753
   49CHL1  H11A 6067   0.349   2.135   9.490 -0.2348  2.6318  6.3323
   49CHL1  H11B 6068   0.212   2.247   9.495  3.0581  1.8078 -1.1591
   49CHL1    C9 6069   0.186   2.058   9.602  0.3960 -0.2247 -0.5757
   49CHL1    H9 6070   0.076   2.074   9.604  0.5325  1.4339 -2.7171
   49CHL1   C10 6071   0.228   2.120   9.742 -0.1406 -0.4688 -0.2831
   49CHL1   C19 6072   0.381   2.147   9.728  0.6241 -0.0156  0.0788
   49CHL1  H19A 6073   0.402   2.243   9.676 -1.6240  0.9288  0.8047
   49CHL1  H19B 6074   0.431   2.161   9.826 -0.9423 -0.9968  1.0518
   49CHL1  H19C 6075   0.429   2.068   9.666  1.7141 -0.2845  1.2275
   49CHL1    C1 6076   0.159   2.249   9.771 -0.0765  0.2787 -0.0351
   49CHL1   H1A 6077   0.194   2.331   9.704 -0.6552 -1.5264 -2.6942
   49CHL1   H1B 6078   0.050   2.234   9.753  0.5900 -2.0117 -2.8840
   49CHL1    C2 6079   0.175   2.295   9.920  0.6430 -0.0958 -0.0694
   49CHL1   H2A 6080   0.104   2.379   9.939  3.1201  2.0576  0.2878
   49CHL1   H2B 6081   0.274   2.335   9.949 -0.1986  1.7660  0.3740
   49CHL1   C20 6082   0.216   1.867   9.086 -0.9281 -0.3384 -0.2240
   49CHL1   H20 6083   0.323   1.836   9.089 -1.0964 -1.0963 -1.2924
   49CHL1   C21 6084   0.203   2.017   9.038 -0.3277 -0.1250  0.4423
   49CHL1  H21A 6085   0.234   2.024   8.931 -1.9206  1.0795  0.0256
   49CHL1  H21B 6086   0.270   2.080   9.100 -0.9286 -1.1003  2.1298
   49CHL1  H21C 6087   0.102   2.062   9.044 -0.0504  0.5244  0.3749
   49CHL1   C22 6088   0.139   1.772   8.996  0.3308  0.8964  0.2768
   49CHL1  H22A 6089   0.125   1.673   9.044 -1.8540  0.6820 -0.6528
   49CHL1  H22B 6090   0.037   1.815   9.007  0.0330  1.1699 -2.6986
   49CHL1   C23 6091   0.170   1.764   8.848 -0.9255  0.5734 -0.0587
   49CHL1  H23A 6092   0.176   1.866   8.804 -1.8200  0.8146  0.3528
   49CHL1  H23B 6093   0.271   1.719   8.835 -0.9843  0.7674 -1.2260
   49CHL1   C24 6094   0.080   1.674   8.763  0.3061  0.5205 -0.7238
   49CHL1  H24A 6095   0.084   1.569   8.799  2.3292  0.0155 -2.2578
   49CHL1  H24B 6096  -0.025   1.708   8.779 -0.0153 -0.9424  0.5115
   49CHL1   C25 6097   0.123   1.673   8.617  0.5955  0.8448  0.5038
   49CHL1   H25 6098   0.134   1.779   8.584 -0.1288  0.8373  0.2287
   49CHL1   C26 6099   0.254   1.598   8.599  0.3066  0.6127  0.1200
   49CHL1  H26A 6100   0.336   1.642   8.660 -0.5260  0.7111  1.2050
   49CHL1  H26B 6101   0.253   1.492   8.632 -0.7606 -0.3172 -2.6510
   49CHL1  H26C 6102   0.287   1.594   8.493  1.6722 -0.1530  0.5475
   49CHL1   C27 6103   0.013   1.602   8.529 -0.1492 -0.3349 -0.3806
   49CHL1  H27A 6104  -0.074   1.670   8.516 -0.3002 -0.6320 -0.9847
   49CHL1  H27B 6105   0.061   1.581   8.431  1.8208  0.7402  0.2954
   49CHL1  H27C 6106  -0.017   1.509   8.582 -0.0378  0.1951  0.6330
   50CHL1    C3 6107   6.798   3.720  10.235  0.0005  0.4033  0.3422
   50CHL1    H3 6108   6.898   3.722  10.283  0.6691  0.2182 -0.9978
   50CHL1    O3 6109   6.697   3.736  10.336  0.0273  0.0475 -0.3357
   50CHL1   H3' 6110   6.617   3.768  10.294  1.2135  1.6894 -1.4149
   50CHL1    C4 6111   6.770   3.828  10.131  0.7039 -0.0030 -0.0745
   50CHL1   H4A 6112   6.660   3.825  10.115  0.3975  4.4483  0.1125
   50CHL1   H4B 6113   6.775   3.929  10.178 -0.1855  0.8357 -1.7006
   50CHL1    C5 6114   6.842   3.820  10.002 -0.3367 -0.3330 -0.4329
   50CHL1    C6 6115   6.923   3.918   9.953 -0.0092 -0.2492  0.8203
   50CHL1    H6 6116   6.916   4.016  10.003 -1.0388 -0.6413  1.4771
   50CHL1    C7 6117   6.994   3.911   9.818 -0.3913  0.1380  0.3770
   50CHL1   H7A 6118   6.987   4.006   9.761 -1.8999  1.1917  2.2039
   50CHL1   H7B 6119   7.099   3.886   9.844 -0.5200 -0.4815  0.3062
   50CHL1    C8 6120   6.945   3.790   9.735  0.1238 -0.7384  0.1989
   50CHL1    H8 6121   6.842   3.817   9.701  0.0094 -3.7079 -2.2564
   50CHL1   C14 6122   7.033   3.759   9.615  0.5934 -0.5817 -0.1383
   50CHL1   H14 6123   7.135   3.742   9.654  0.8885  0.9384 -0.1762
   50CHL1   C15 6124   7.041   3.879   9.515  0.6829  0.2972  0.1711
   50CHL1  H15A 6125   6.945   3.934   9.503 -0.0402 -1.0320 -0.3759
   50CHL1  H15B 6126   7.118   3.949   9.553  0.3048  0.5485  0.4771
   50CHL1   C16 6127   7.105   3.819   9.395  0.2371 -0.1304  0.2398
   50CHL1  H16A 6128   7.049   3.846   9.303 -2.5350 -1.3398  1.4394
   50CHL1  H16B 6129   7.213   3.842   9.383 -0.3302  2.1359 -1.0307
   50CHL1   C17 6130   7.095   3.663   9.407 -0.2356  0.2950  0.0949
   50CHL1   H17 6131   7.188   3.619   9.450 -1.4785 -3.0098 -0.3584
   50CHL1   C13 6132   6.997   3.643   9.527  0.0813  0.5679  0.0565
   50CHL1   C18 6133   6.855   3.655   9.460 -0.4626 -0.2698 -0.2449
   50CHL1  H18A 6134   6.835   3.746   9.398  0.5030  0.3511  0.3246
   50CHL1  H18B 6135   6.835   3.561   9.405  1.2230 -0.2151 -1.0050
   50CHL1  H18C 6136   6.782   3.660   9.544  1.0046 -0.1092  1.0699
   50CHL1   C12 6137   7.006   3.509   9.609 -0.0307  0.0740 -0.6095
   50CHL1  H12A 6138   6.960   3.425   9.553 -1.1657  0.5713 -0.4690
   50CHL1  H12B 6139   7.106   3.470   9.634  0.1828  0.1143 -1.3943
   50CHL1   C11 6140   6.917   3.533   9.741 -0.2698  0.4679  0.6655
   50CHL1  H11A 6141   6.815   3.540   9.698  0.8193  0.1423 -2.2662
   50CHL1  H11B 6142   6.924   3.440   9.801  2.8949  0.8870  1.1710
   50CHL1    C9 6143   6.949   3.660   9.822  0.5220  0.3632 -0.0702
   50CHL1    H9 6144   7.049   3.640   9.866  0.0952  0.1057  0.8257
   50CHL1   C10 6145   6.844   3.678   9.936 -0.0617 -0.1771 -0.4108
   50CHL1   C19 6146   6.694   3.645   9.895  0.1795  0.5739 -0.4105
   50CHL1  H19A 6147   6.620   3.642   9.978 -0.8309  0.7545 -1.2839
   50CHL1  H19B 6148   6.645   3.713   9.822 -0.0777  2.7802  1.6716
   50CHL1  H19C 6149   6.681   3.539   9.865 -0.1437 -0.4611  2.9390
   50CHL1    C1 6150   6.882   3.574  10.042 -0.0775  0.6061  0.3601
   50CHL1   H1A 6151   6.855   3.472  10.006  1.3595 -0.6972  2.7034
   50CHL1   H1B 6152   6.990   3.588  10.062 -0.2936  1.2352  1.1544
   50CHL1    C2 6153   6.792   3.578  10.177 -0.1957  0.1567  0.5158
   50CHL1   H2A 6154   6.829   3.495  10.241 -0.0326 -0.6077 -0.5314
   50CHL1   H2B 6155   6.690   3.556  10.139  0.4231  0.2549 -1.3213
   50CHL1   C20 6156   7.074   3.593   9.271 -0.3241  0.0632 -0.6487
   50CHL1   H20 6157   6.971   3.607   9.230 -1.1840 -0.0966  1.3145
   50CHL1   C21 6158   7.093   3.441   9.293 -0.3512  0.4190  0.1922
   50CHL1  H21A 6159   7.094   3.386   9.196  0.6824  0.1977  0.3221
   50CHL1  H21B 6160   7.003   3.397   9.341 -0.9513  1.3919 -0.0152
   50CHL1  H21C 6161   7.185   3.415   9.349 -1.0600 -2.1053  0.3148
   50CHL1   C22 6162   7.172   3.655   9.170  0.5227  0.5026  0.2981
   50CHL1  H22A 6163   7.176   3.766   9.172  2.9936  0.4461  1.7608
   50CHL1  H22B 6164   7.272   3.620   9.200  0.9483  1.9764  0.6911
   50CHL1   C23 6165   7.162   3.610   9.025  0.4848 -0.4264 -0.0728
   50CHL1  H23A 6166   7.247   3.654   8.969 -0.0587  0.2866 -0.3503
   50CHL1  H23B 6167   7.178   3.500   9.019  0.2627 -0.3951 -2.0684
   50CHL1   C24 6168   7.032   3.656   8.957  0.1261  0.0665  0.1147
   50CHL1  H24A 6169   6.933   3.623   8.996 -0.0565  1.2084  0.6804
   50CHL1  H24B 6170   7.020   3.766   8.964  0.6171  0.3522 -2.5137
   50CHL1   C25 6171   7.021   3.610   8.809 -0.8890  0.0243 -0.1283
   50CHL1   H25 6172   7.037   3.500   8.803 -0.1450  0.1453 -0.4740
   50CHL1   C26 6173   6.877   3.636   8.765  0.1017 -0.1969  0.4764
   50CHL1  H26A 6174   6.845   3.572   8.680 -1.2034  0.7386  0.2396
   50CHL1  H26B 6175   6.795   3.613   8.837  0.6226 -1.3630  0.7202
   50CHL1  H26C 6176   6.870   3.745   8.747  1.0076  0.3475  2.9643
   50CHL1   C27 6177   7.126   3.678   8.727  0.2494 -0.1190  0.0854
   50CHL1  H27A 6178   7.122   3.785   8.759 -1.8160 -0.7203  2.1038
   50CHL1  H27B 6179   7.230   3.640   8.739 -0.1728 -1.1736  0.5535
   50CHL1  H27C 6180   7.088   3.667   8.623  1.6405  1.3344 -0.6351
   51CHL1    C3 6181   6.277   6.662  10.144 -0.4464  0.2329  0.7738
   51CHL1    H3 6182   6.275   6.772  10.161  0.5865  0.3537  0.1549
   51CHL1    O3 6183   6.294   6.607  10.271 -0.5407  0.1568 -0.3109
   51CHL1   H3' 6184   6.313   6.514  10.256  0.5818  0.4193 -0.6033
   51CHL1    C4 6185   6.146   6.614  10.104 -0.7084  0.9675  0.0050
   51CHL1   H4A 6186   6.156   6.503  10.108 -1.8280  0.8185 -0.7833
   51CHL1   H4B 6187   6.065   6.628  10.178  0.8768  1.3009  1.7546
   51CHL1    C5 6188   6.099   6.656   9.962 -0.0206  0.2831  0.3011
   51CHL1    C6 6189   5.989   6.716   9.926  0.8363 -0.2146 -0.5498
   51CHL1    H6 6190   5.915   6.731  10.006 -0.2000 -1.6380 -1.1949
   51CHL1    C7 6191   5.945   6.746   9.784  0.1766 -0.1830  0.4167
   51CHL1   H7A 6192   5.849   6.696   9.761 -0.6939  2.1304 -1.4691
   51CHL1   H7B 6193   5.929   6.854   9.762 -1.3566 -0.1663  1.4175
   51CHL1    C8 6194   6.041   6.682   9.675  0.3159 -0.1745  0.1918
   51CHL1    H8 6195   6.019   6.573   9.667  0.9935 -0.3228  0.3142
   51CHL1   C14 6196   6.019   6.757   9.546  0.2501 -0.0346  0.7190
   51CHL1   H14 6197   6.036   6.862   9.578  0.7342  0.2151 -0.3083
   51CHL1   C15 6198   5.869   6.758   9.490 -0.0621  0.0952 -0.1702
   51CHL1  H15A 6199   5.817   6.660   9.490  2.1499 -1.1484  1.0030
   51CHL1  H15B 6200   5.818   6.829   9.558  1.0319 -0.2463  1.0459
   51CHL1   C16 6201   5.889   6.821   9.353 -0.0037 -0.2639  0.0970
   51CHL1  H16A 6202   5.819   6.773   9.281 -1.6869 -0.5451  1.8216
   51CHL1  H16B 6203   5.864   6.929   9.362 -1.4101 -0.4115 -1.5116
   51CHL1   C17 6204   6.043   6.810   9.314 -0.7010 -0.0421  0.3199
   51CHL1   H17 6205   6.081   6.914   9.329 -0.1999 -0.3002  0.8753
   51CHL1   C13 6206   6.108   6.726   9.426 -0.3131 -0.3169 -0.0770
   51CHL1   C18 6207   6.086   6.583   9.381  0.8139  0.1108  0.1759
   51CHL1  H18A 6208   6.049   6.526   9.469 -0.4533  2.2487  1.1089
   51CHL1  H18B 6209   6.009   6.570   9.302  3.3310 -2.6466 -2.1054
   51CHL1  H18C 6210   6.176   6.538   9.335  0.5877  0.4482 -0.6047
   51CHL1   C12 6211   6.249   6.755   9.470  0.0374 -0.1362 -0.5968
   51CHL1  H12A 6212   6.324   6.735   9.390 -1.4118 -0.0472 -2.0335
   51CHL1  H12B 6213   6.275   6.859   9.500  1.6516 -0.6879  0.0274
   51CHL1   C11 6214   6.281   6.668   9.602  0.1647 -0.1282 -0.1067
   51CHL1  H11A 6215   6.259   6.563   9.575  0.4892  0.2347 -1.9336
   51CHL1  H11B 6216   6.388   6.681   9.630 -0.0355  1.9860 -0.1551
   51CHL1    C9 6217   6.183   6.708   9.721 -0.0981  0.1047  0.5432
   51CHL1    H9 6218   6.198   6.818   9.732  1.5794 -0.2557  2.2483
   51CHL1   C10 6219   6.200   6.629   9.858  0.1245 -0.0752  0.1690
   51CHL1   C19 6220   6.197   6.477   9.826  0.2956 -0.0387  0.5888
   51CHL1  H19A 6221   6.100   6.434   9.795  0.5978 -0.6797  0.5173
   51CHL1  H19B 6222   6.260   6.442   9.742 -1.9265 -0.5650 -0.9211
   51CHL1  H19C 6223   6.234   6.415   9.911  0.1385 -2.1271 -0.8123
   51CHL1    C1 6224   6.337   6.674   9.910 -0.6369  0.4254  0.7152
   51CHL1   H1A 6225   6.415   6.655   9.833 -0.9583 -1.9871  0.8912
   51CHL1   H1B 6226   6.338   6.784   9.923  0.0515  0.3121  1.6482
   51CHL1    C2 6227   6.384   6.618  10.048  0.0780  0.1273  0.0778
   51CHL1   H2A 6228   6.483   6.667  10.062  0.2068 -0.0821 -0.1011
   51CHL1   H2B 6229   6.407   6.509  10.045 -1.9647 -0.3483  0.3139
   51CHL1   C20 6230   6.075   6.786   9.164 -0.0261  0.4420 -0.0349
   51CHL1   H20 6231   6.024   6.691   9.136  0.4491  0.4977 -1.1345
   51CHL1   C21 6232   6.226   6.790   9.142  0.3976 -0.0300  0.0117
   51CHL1  H21A 6233   6.265   6.881   9.193 -0.6719  0.1201  0.5848
   51CHL1  H21B 6234   6.255   6.791   9.034  0.8835  2.7739  0.0967
   51CHL1  H21C 6235   6.271   6.697   9.183  0.1414 -0.4259 -0.5827
   51CHL1   C22 6236   6.011   6.893   9.074 -0.2080  0.1029 -0.3707
   51CHL1  H22A 6237   5.901   6.882   9.086  0.2313 -1.6549  3.4512
   51CHL1  H22B 6238   6.046   6.995   9.099  0.5319 -0.0850 -0.5957
   51CHL1   C23 6239   6.041   6.876   8.926  0.5115  0.2232  0.7921
   51CHL1  H23A 6240   6.147   6.893   8.895  0.0817 -1.1941 -1.8199
   51CHL1  H23B 6241   6.022   6.768   8.905  1.9142  0.1155 -0.0390
   51CHL1   C24 6242   5.953   6.972   8.832 -0.4614  0.0278 -0.6803
   51CHL1  H24A 6243   5.851   6.992   8.871  0.5208  1.9909  1.1220
   51CHL1  H24B 6244   6.000   7.072   8.833  0.3894 -0.3572 -1.0136
   51CHL1   C25 6245   5.939   6.927   8.684  0.2516  0.3531 -0.3446
   51CHL1   H25 6246   6.038   6.907   8.638 -0.2885 -0.2545 -1.2871
   51CHL1   C26 6247   5.863   6.798   8.676  0.2250 -0.1475  0.2523
   51CHL1  H26A 6248   5.909   6.708   8.724  1.8910 -0.4777 -1.7924
   51CHL1  H26B 6249   5.760   6.814   8.714  1.0897  2.3911  1.7335
   51CHL1  H26C 6250   5.862   6.770   8.568  1.4863 -0.0014  0.1804
   51CHL1   C27 6251   5.872   7.033   8.596  0.3691 -0.2524 -0.6790
   51CHL1  H27A 6252   5.778   7.073   8.638  1.2882  1.4363 -0.1564
   51CHL1  H27B 6253   5.946   7.114   8.578 -2.0055  2.0966 -0.2715
   51CHL1  H27C 6254   5.844   6.994   8.495  0.8845 -0.4972 -0.7303
   52CHL1    C3 6255   3.601   6.014   9.800 -0.1622 -0.0995  0.1060
   52CHL1    H3 6256   3.694   6.075   9.792  0.2773 -0.5496  1.5997
   52CHL1    O3 6257   3.587   5.985   9.937  0.3427  0.7671 -0.2481
   52CHL1   H3' 6258   3.498   5.950   9.939  0.6909 -0.1773 -0.7186
   52CHL1    C4 6259   3.474   6.092   9.757  0.3353  0.2115  0.0786
   52CHL1   H4A 6260   3.390   6.034   9.800  0.6527  0.6927  1.3839
   52CHL1   H4B 6261   3.477   6.184   9.818  2.9404 -0.1808  0.7047
   52CHL1    C5 6262   3.465   6.105   9.605 -0.0322  1.2928  0.0782
   52CHL1    C6 6263   3.431   6.220   9.558 -0.3202 -0.8701 -0.1555
   52CHL1    H6 6264   3.424   6.306   9.627  0.2377 -1.6992  0.9681
   52CHL1    C7 6265   3.430   6.255   9.410  0.2782 -0.0973 -0.2527
   52CHL1   H7A 6266   3.334   6.307   9.388 -0.1784 -0.5228  0.6434
   52CHL1   H7B 6267   3.519   6.315   9.384  0.5959 -0.9571 -1.1914
   52CHL1    C8 6268   3.430   6.128   9.322 -0.3029  0.2511  0.7899
   52CHL1    H8 6269   3.326   6.094   9.336 -0.4763  1.0976  1.6297
   52CHL1   C14 6270   3.459   6.156   9.180  0.1058 -0.5710  0.6935
   52CHL1   H14 6271   3.569   6.166   9.176  0.1795 -1.0216  1.4540
   52CHL1   C15 6272   3.401   6.281   9.109  0.0601 -0.2110  0.4371
   52CHL1  H15A 6273   3.295   6.299   9.137 -1.0650 -1.7652 -2.3375
   52CHL1  H15B 6274   3.460   6.372   9.129 -2.1927  1.2917  0.6333
   52CHL1   C16 6275   3.400   6.247   8.954 -0.2246  0.4075 -0.0743
   52CHL1  H16A 6276   3.294   6.248   8.921 -0.1199 -0.2705 -0.4493
   52CHL1  H16B 6277   3.457   6.315   8.888 -1.6745  1.6699 -0.0778
   52CHL1   C17 6278   3.456   6.102   8.950 -0.5678  0.0427 -0.1361
   52CHL1   H17 6279   3.565   6.119   8.942 -0.6728 -0.1118 -2.4894
   52CHL1   C13 6280   3.433   6.032   9.088  0.3910 -0.3484  1.1260
   52CHL1   C18 6281   3.291   5.990   9.107 -0.2112 -0.8735 -0.0071
   52CHL1  H18A 6282   3.271   5.950   9.209 -1.0358  0.8313  0.5277
   52CHL1  H18B 6283   3.218   6.070   9.084  0.0321 -0.4077  0.8081
   52CHL1  H18C 6284   3.274   5.916   9.026 -1.3314 -0.3433 -0.2793
   52CHL1   C12 6285   3.531   5.922   9.125 -0.1251  0.1366 -0.4008
   52CHL1  H12A 6286   3.508   5.829   9.068  0.8312 -0.1536 -0.3197
   52CHL1  H12B 6287   3.637   5.939   9.100  0.0091 -1.5882 -1.1406
   52CHL1   C11 6288   3.517   5.892   9.275  0.8415  0.4025  0.2475
   52CHL1  H11A 6289   3.419   5.842   9.293  0.9039  0.5727  1.0615
   52CHL1  H11B 6290   3.594   5.813   9.291 -0.1953 -0.9148 -0.9420
   52CHL1    C9 6291   3.523   6.013   9.372  0.0802  0.6596 -0.5502
   52CHL1    H9 6292   3.632   6.035   9.367  0.1056  0.6177 -0.1734
   52CHL1   C10 6293   3.496   5.979   9.519  0.1574 -0.2513 -0.2714
   52CHL1   C19 6294   3.373   5.891   9.534 -0.4638 -0.2608  0.3123
   52CHL1  H19A 6295   3.401   5.791   9.494  0.4840  1.2504 -3.1075
   52CHL1  H19B 6296   3.346   5.867   9.640  1.7068 -1.8682  0.5679
   52CHL1  H19C 6297   3.279   5.924   9.485 -1.2216  1.3679  2.6712
   52CHL1    C1 6298   3.616   5.908   9.574 -0.0804 -0.2236 -0.4534
   52CHL1   H1A 6299   3.628   5.806   9.530  0.5629 -1.2590  1.9393
   52CHL1   H1B 6300   3.713   5.958   9.554  1.1250 -1.5839  1.6080
   52CHL1    C2 6301   3.618   5.883   9.727  1.0994  0.1512 -0.0367
   52CHL1   H2A 6302   3.714   5.844   9.767  0.0660 -1.2139  1.2634
   52CHL1   H2B 6303   3.541   5.810   9.761  1.5413 -0.5024 -0.4155
   52CHL1   C20 6304   3.424   6.022   8.823  0.0682 -0.3428 -0.0426
   52CHL1   H20 6305   3.408   5.916   8.851 -0.9566  0.0293  0.8489
   52CHL1   C21 6306   3.549   6.031   8.735  0.0437 -0.2383  0.2573
   52CHL1  H21A 6307   3.546   5.978   8.638  1.5254  0.4957 -0.2218
   52CHL1  H21B 6308   3.635   5.975   8.777 -0.0419 -1.7197 -1.4647
   52CHL1  H21C 6309   3.568   6.138   8.711 -1.4591  0.3045  1.3317
   52CHL1   C22 6310   3.289   6.060   8.748 -0.0184 -0.2279 -0.1569
   52CHL1  H22A 6311   3.202   6.058   8.816 -0.0911 -3.1031 -0.2023
   52CHL1  H22B 6312   3.301   6.165   8.714 -0.1644 -0.4300 -0.8467
   52CHL1   C23 6313   3.241   5.974   8.631 -0.1986 -0.4500 -0.1216
   52CHL1  H23A 6314   3.309   5.991   8.544 -0.4524 -0.1105 -0.2548
   52CHL1  H23B 6315   3.253   5.867   8.658  0.5611  0.0622  1.7672
   52CHL1   C24 6316   3.094   6.007   8.591 -0.4105 -0.2290 -0.2023
   52CHL1  H24A 6317   3.023   6.002   8.677  2.6025 -1.0952  2.4055
   52CHL1  H24B 6318   3.091   6.115   8.565  0.6658 -0.3943 -1.0735
   52CHL1   C25 6319   3.038   5.924   8.467 -0.3058  0.3924  0.2096
   52CHL1   H25 6320   2.937   5.966   8.448  0.4792  1.3993 -2.1361
   52CHL1   C26 6321   3.127   5.929   8.340  0.3676  0.3691 -0.5327
   52CHL1  H26A 6322   3.095   5.855   8.265 -1.7745  0.4722  0.2082
   52CHL1  H26B 6323   3.117   6.026   8.287 -4.2923 -0.1116 -0.9565
   52CHL1  H26C 6324   3.231   5.899   8.367 -0.1231 -0.9467 -0.0427
   52CHL1   C27 6325   2.999   5.774   8.502 -0.3506  0.7126  0.1031
   52CHL1  H27A 6326   3.089   5.716   8.533  0.1694  0.8371 -1.1232
   52CHL1  H27B 6327   2.935   5.778   8.593 -0.6857 -0.6047 -0.0551
   52CHL1  H27C 6328   2.939   5.724   8.422 -0.3475  4.3203 -2.4041
   53CHL1    C3 6329   3.400   4.979   9.973 -0.7213 -0.0767 -0.0095
   53CHL1    H3 6330   3.474   4.899   9.951 -0.4559 -0.2358  1.3808
   53CHL1    O3 6331   3.424   5.012  10.109  0.5143 -0.2107 -0.0639
   53CHL1   H3' 6332   3.379   5.088  10.145 -1.4554 -0.2080 -2.2964
   53CHL1    C4 6333   3.421   5.098   9.875  0.7911 -0.3310  0.0794
   53CHL1   H4A 6334   3.376   5.189   9.921  1.4008  0.0957 -0.1582
   53CHL1   H4B 6335   3.524   5.138   9.884  1.4639 -1.9771  0.0355
   53CHL1    C5 6336   3.378   5.066   9.735  0.5732 -0.1500  0.4700
   53CHL1    C6 6337   3.465   5.086   9.633 -0.5192 -0.5962 -0.6327
   53CHL1    H6 6338   3.571   5.111   9.648 -0.8029 -0.1054  0.7819
   53CHL1    C7 6339   3.424   5.063   9.492  0.3226  0.0248  0.0405
   53CHL1   H7A 6340   3.464   5.136   9.419  1.6514  2.6868  3.1555
   53CHL1   H7B 6341   3.454   4.964   9.452 -0.4750 -0.3980  0.4662
   53CHL1    C8 6342   3.272   5.071   9.471 -0.2420  0.4396 -0.7516
   53CHL1    H8 6343   3.234   5.173   9.492 -0.3895  0.3824 -0.7376
   53CHL1   C14 6344   3.238   5.029   9.331 -0.0275 -0.4311 -0.6066
   53CHL1   H14 6345   3.280   4.926   9.330  1.2987  0.0754 -0.1419
   53CHL1   C15 6346   3.298   5.092   9.211 -0.0431 -0.2604  0.3601
   53CHL1  H15A 6347   3.303   5.202   9.228  1.4035 -0.4307  1.2564
   53CHL1  H15B 6348   3.400   5.063   9.176  0.0289 -0.8796  1.0582
   53CHL1   C16 6349   3.204   5.069   9.094  0.8906  0.7200 -0.5346
   53CHL1  H16A 6350   3.155   5.164   9.064 -0.2229  0.1323 -0.6381
   53CHL1  H16B 6351   3.247   5.018   9.006  1.1560  0.7499 -0.4217
   53CHL1   C17 6352   3.094   4.975   9.155  0.2857  0.7078  0.9099
   53CHL1   H17 6353   3.141   4.875   9.161  0.6018  0.8061  0.2084
   53CHL1   C13 6354   3.087   5.013   9.305 -0.6352 -0.0799  0.6723
   53CHL1   C18 6355   3.017   5.155   9.313  0.1801  0.2366  0.3252
   53CHL1  H18A 6356   2.912   5.116   9.311  0.4702 -0.5721  0.5101
   53CHL1  H18B 6357   3.052   5.216   9.399 -0.9086  2.4395 -0.6932
   53CHL1  H18C 6358   3.047   5.215   9.224 -1.8517  0.6805 -0.1370
   53CHL1   C12 6359   3.024   4.906   9.396 -0.0455 -0.5376 -0.2275
   53CHL1  H12A 6360   2.913   4.897   9.388 -0.4157  1.5914  1.5601
   53CHL1  H12B 6361   3.077   4.813   9.367  1.0365  0.9620 -3.4537
   53CHL1   C11 6362   3.055   4.946   9.543 -0.0773 -0.0232  0.3366
   53CHL1  H11A 6363   2.992   5.035   9.563  1.8986  1.2683  1.1258
   53CHL1  H11B 6364   3.011   4.870   9.611 -1.0624 -0.1066 -0.3745
   53CHL1    C9 6365   3.203   4.976   9.576 -0.3892 -0.0818 -0.1844
   53CHL1    H9 6366   3.262   4.882   9.568  0.7829  0.1774  3.3172
   53CHL1   C10 6367   3.238   5.025   9.719  1.3788  0.0203  0.0523
   53CHL1   C19 6368   3.142   5.146   9.756  1.3814  0.9232 -0.3621
   53CHL1  H19A 6369   3.170   5.229   9.688  0.3168  1.0442 -0.6767
   53CHL1  H19B 6370   3.039   5.118   9.724  1.5657 -0.5263  0.2154
   53CHL1  H19C 6371   3.146   5.169   9.864  2.7378 -0.4695 -0.0842
   53CHL1    C1 6372   3.207   4.909   9.818  0.1346 -0.4747 -1.5240
   53CHL1   H1A 6373   3.098   4.889   9.811 -0.2215  0.5981  0.2782
   53CHL1   H1B 6374   3.274   4.825   9.787  1.5757  0.5450 -1.2759
   53CHL1    C2 6375   3.258   4.933   9.969 -0.1185  0.5379 -0.2728
   53CHL1   H2A 6376   3.249   4.844  10.034  0.3581  0.8413  0.2106
   53CHL1   H2B 6377   3.193   5.015  10.007  1.5167  1.7810 -0.0607
   53CHL1   C20 6378   2.966   4.991   9.064 -0.3149 -0.3740  0.7746
   53CHL1   H20 6379   2.934   5.097   9.058 -0.6120 -0.4870  0.2813
   53CHL1   C21 6380   2.844   4.912   9.127 -0.4149 -0.3947 -0.1934
   53CHL1  H21A 6381   2.862   4.805   9.150  0.0165  0.2045  2.5371
   53CHL1  H21B 6382   2.758   4.909   9.056  1.4397 -1.8686 -2.5596
   53CHL1  H21C 6383   2.823   4.960   9.225  1.9519  0.8926 -0.2578
   53CHL1   C22 6384   3.005   4.945   8.916  0.8214  0.6000 -1.2992
   53CHL1  H22A 6385   2.904   4.956   8.870  1.0720  2.4641 -1.4779
   53CHL1  H22B 6386   3.067   5.023   8.868  1.1814  0.4602 -1.0674
   53CHL1   C23 6387   3.057   4.800   8.909  0.2239 -0.9893 -0.5195
   53CHL1  H23A 6388   3.152   4.786   8.964 -0.6467 -0.8346  1.0857
   53CHL1  H23B 6389   2.983   4.736   8.963  0.1369 -4.0117 -3.8395
   53CHL1   C24 6390   3.078   4.770   8.757 -0.2540 -0.2510 -0.4778
   53CHL1  H24A 6391   3.140   4.850   8.711 -2.1824  1.7032  0.1447
   53CHL1  H24B 6392   3.133   4.674   8.771  3.7354  2.0825  1.9174
   53CHL1   C25 6393   2.947   4.747   8.686  0.6840  0.5372  0.9271
   53CHL1   H25 6394   2.892   4.842   8.671 -0.6127 -0.2168  0.7927
   53CHL1   C26 6395   2.988   4.719   8.534  0.2033 -0.0430 -0.5410
   53CHL1  H26A 6396   2.893   4.727   8.477 -0.3151  4.1795  0.5728
   53CHL1  H26B 6397   3.065   4.792   8.500 -0.3009  1.3556  1.2192
   53CHL1  H26C 6398   3.028   4.616   8.521 -0.0168 -0.1940 -0.0131
   53CHL1   C27 6399   2.853   4.630   8.732  0.2950 -0.2384  0.2518
   53CHL1  H27A 6400   2.772   4.613   8.658  3.1470 -0.6576 -2.9977
   53CHL1  H27B 6401   2.910   4.534   8.739 -0.8624 -0.8887  1.3905
   53CHL1  H27C 6402   2.808   4.644   8.833 -3.3921 -0.9159 -1.1451
   54CHL1    C3 6403   2.965   1.196  10.259 -0.3762 -0.5445  0.3850
   54CHL1    H3 6404   3.055   1.261  10.274 -1.2521  0.7881  0.0082
   54CHL1    O3 6405   2.905   1.181  10.384 -0.7553 -0.1649  0.4269
   54CHL1   H3' 6406   2.881   1.270  10.408  0.6912  0.2794  0.3451
   54CHL1    C4 6407   2.878   1.269  10.157  0.3273 -0.2530  0.0393
   54CHL1   H4A 6408   2.783   1.212  10.147  1.9400 -2.9462 -1.0084
   54CHL1   H4B 6409   2.855   1.369  10.200 -1.1743  0.0918 -1.4492
   54CHL1    C5 6410   2.924   1.275  10.016 -0.2450  0.0258  0.0011
   54CHL1    C6 6411   2.936   1.396   9.956  0.6177 -0.1737 -0.2406
   54CHL1    H6 6412   2.904   1.483  10.015  0.6618 -0.4640  0.2172
   54CHL1    C7 6413   2.976   1.415   9.813 -0.0351 -0.8045 -0.0022
   54CHL1   H7A 6414   2.908   1.485   9.761  2.5702  2.9603  1.2704
   54CHL1   H7B 6415   3.077   1.461   9.817 -0.5433  0.3933 -0.6260
   54CHL1    C8 6416   2.983   1.276   9.745  0.0007  0.0603  0.5562
   54CHL1    H8 6417   2.879   1.250   9.717  0.4510 -1.0625 -0.1248
   54CHL1   C14 6418   3.046   1.298   9.604 -0.0770  0.4761 -0.5405
   54CHL1   H14 6419   3.152   1.325   9.625  0.0679  1.1923 -2.0989
   54CHL1   C15 6420   3.002   1.412   9.518 -0.5093 -0.2207 -0.0494
   54CHL1  H15A 6421   2.892   1.404   9.518 -0.3718 -3.2621  1.0097
   54CHL1  H15B 6422   3.042   1.511   9.548 -1.1561  0.7398 -2.1497
   54CHL1   C16 6423   3.045   1.374   9.376 -0.2227  0.3592 -0.2554
   54CHL1  H16A 6424   2.949   1.370   9.320 -2.1501 -1.2994  2.8529
   54CHL1  H16B 6425   3.105   1.451   9.323  0.7030  0.9670  1.5669
   54CHL1   C17 6426   3.114   1.236   9.386  0.6987 -0.0376  0.2904
   54CHL1   H17 6427   3.222   1.259   9.401  1.5825 -3.3581 -0.2077
   54CHL1   C13 6428   3.060   1.173   9.511 -0.2881  0.3812  0.0549
   54CHL1   C18 6429   2.918   1.109   9.473 -0.1112 -0.4785 -0.1038
   54CHL1  H18A 6430   2.859   1.182   9.413 -0.2528 -0.7497 -0.2931
   54CHL1  H18B 6431   2.927   1.021   9.406  0.3262 -1.1394  0.8066
   54CHL1  H18C 6432   2.853   1.072   9.555 -2.7876  2.4762 -0.6803
   54CHL1   C12 6433   3.144   1.067   9.593 -0.3820  0.2988 -0.2117
   54CHL1  H12A 6434   3.170   0.976   9.534  2.9225  0.0702  1.3756
   54CHL1  H12B 6435   3.246   1.109   9.598 -0.0017 -0.5233 -0.7075
   54CHL1   C11 6436   3.073   1.038   9.728  0.1116 -0.0158  0.2441
   54CHL1  H11A 6437   2.969   1.003   9.713 -0.2793  0.6976  1.2099
   54CHL1  H11B 6438   3.123   0.954   9.782 -1.3560 -1.0744  0.0167
   54CHL1    C9 6439   3.047   1.164   9.825 -0.3115  0.0938  0.8745
   54CHL1    H9 6440   3.144   1.216   9.842 -1.4952  2.5343  0.5434
   54CHL1   C10 6441   2.976   1.146   9.957  0.6510 -0.5793  0.3465
   54CHL1   C19 6442   2.856   1.045   9.948  0.5226  0.2953  0.4494
   54CHL1  H19A 6443   2.797   1.082   9.861  0.2612 -0.2937  0.3723
   54CHL1  H19B 6444   2.891   0.941   9.931 -0.9050 -0.1977  0.3816
   54CHL1  H19C 6445   2.803   1.048  10.046  1.3075 -0.4981  0.9154
   54CHL1    C1 6446   3.074   1.085  10.063  0.1617  0.2519  0.0669
   54CHL1   H1A 6447   3.115   0.991  10.021  2.0313  1.5847 -1.2478
   54CHL1   H1B 6448   3.155   1.161  10.059  0.3799 -0.0370 -1.2792
   54CHL1    C2 6449   3.024   1.069  10.203  0.1815  0.4644  0.2411
   54CHL1   H2A 6450   3.100   1.036  10.278  0.4301  0.8552  0.1703
   54CHL1   H2B 6451   2.945   0.991  10.203  0.3228  0.3047 -1.0110
   54CHL1   C20 6452   3.117   1.157   9.253  0.1611 -0.8226 -0.8324
   54CHL1   H20 6453   3.011   1.131   9.231 -0.1120 -1.2882  0.8778
   54CHL1   C21 6454   3.185   1.021   9.270  0.0008  0.1028 -0.5820
   54CHL1  H21A 6455   3.204   0.976   9.171 -0.9249  0.5550 -0.9783
   54CHL1  H21B 6456   3.130   0.952   9.337  3.4407 -1.5041  0.8199
   54CHL1  H21C 6457   3.281   1.040   9.324 -0.2135 -1.1475  0.2771
   54CHL1   C22 6458   3.178   1.243   9.138  0.0475  0.1356  0.3187
   54CHL1  H22A 6459   3.120   1.338   9.131 -0.0577  0.0240 -0.4518
   54CHL1  H22B 6460   3.283   1.260   9.169 -0.3528  1.5817  0.9725
   54CHL1   C23 6461   3.159   1.183   9.001  0.2091  0.1103  0.6050
   54CHL1  H23A 6462   3.220   1.094   8.978 -1.9102 -1.0937 -0.7655
   54CHL1  H23B 6463   3.051   1.157   8.990  0.2059  0.9706 -2.3506
   54CHL1   C24 6464   3.182   1.287   8.888 -0.4801  0.9576 -0.4337
   54CHL1  H24A 6465   3.114   1.372   8.913 -0.5741  0.2968  1.8270
   54CHL1  H24B 6466   3.286   1.323   8.884 -0.5969  1.3719  0.1296
   54CHL1   C25 6467   3.143   1.238   8.754  0.4374  0.4776 -0.1061
   54CHL1   H25 6468   3.184   1.138   8.730 -3.2926 -0.8552 -1.7330
   54CHL1   C26 6469   2.984   1.233   8.739  1.1095  0.1256 -0.8403
   54CHL1  H26A 6470   2.945   1.333   8.713  1.2886  0.3102 -0.4180
   54CHL1  H26B 6471   2.965   1.179   8.644 -0.9097 -1.2129  0.2480
   54CHL1  H26C 6472   2.933   1.187   8.826  1.2335  0.7398 -0.4370
   54CHL1   C27 6473   3.219   1.319   8.654 -0.1854  0.3633  0.4139
   54CHL1  H27A 6474   3.201   1.429   8.662 -1.4138  0.2463 -0.5116
   54CHL1  H27B 6475   3.328   1.315   8.672 -0.4788 -0.9871  2.1977
   54CHL1  H27C 6476   3.195   1.281   8.553 -2.7000 -0.4879  1.2568
   55CHL1    C3 6477   3.241   2.729  10.173 -0.2864  0.6752  0.5583
   55CHL1    H3 6478   3.310   2.814  10.190 -0.5139  1.1270 -0.6378
   55CHL1    O3 6479   3.264   2.642  10.285 -0.2912  0.2989  0.2441
   55CHL1   H3' 6480   3.220   2.685  10.359  2.5257  1.6336  1.2579
   55CHL1    C4 6481   3.096   2.772  10.161 -0.7492  0.0017 -0.0926
   55CHL1   H4A 6482   3.029   2.683  10.158  1.0949 -1.4758  0.9929
   55CHL1   H4B 6483   3.073   2.825  10.256 -0.3085 -0.1511  0.0995
   55CHL1    C5 6484   3.070   2.854  10.033  0.3170  0.2279 -0.4378
   55CHL1    C6 6485   3.013   2.971  10.037  0.2557 -0.1897  0.1985
   55CHL1    H6 6486   2.977   3.011  10.133  0.4277  0.1147  0.1363
   55CHL1    C7 6487   2.966   3.049   9.919  0.5460 -0.1246  0.2679
   55CHL1   H7A 6488   2.859   3.076   9.931  0.2899 -1.5618  1.5004
   55CHL1   H7B 6489   3.032   3.138   9.919  0.5456 -0.1138  1.2826
   55CHL1    C8 6490   2.983   2.968   9.794  0.4542 -0.7834  0.0063
   55CHL1    H8 6491   2.906   2.888   9.789  2.5218 -3.0338  1.7197
   55CHL1   C14 6492   2.957   3.061   9.674  0.3656  0.0983 -0.2988
   55CHL1   H14 6493   3.036   3.136   9.696 -0.8355  0.9981  1.2011
   55CHL1   C15 6494   2.821   3.129   9.661  0.4311 -0.4400 -0.5498
   55CHL1  H15A 6495   2.737   3.058   9.670  1.3968 -1.6758 -1.0110
   55CHL1  H15B 6496   2.810   3.209   9.737  0.2401  0.0247 -1.0589
   55CHL1   C16 6497   2.820   3.181   9.512  0.8213 -0.4623  0.0159
   55CHL1  H16A 6498   2.722   3.148   9.470  0.3706  0.8179  0.0385
   55CHL1  H16B 6499   2.828   3.291   9.499  1.8956 -0.6670 -1.2777
   55CHL1   C17 6500   2.950   3.123   9.444  0.2670  0.1044  0.2487
   55CHL1   H17 6501   3.032   3.196   9.458  2.2325 -1.9077 -0.2411
   55CHL1   C13 6502   2.988   3.002   9.537  0.3454 -0.5776  0.5589
   55CHL1   C18 6503   2.886   2.891   9.500  0.1449  0.4772  0.7735
   55CHL1  H18A 6504   2.789   2.930   9.462  0.4025  0.3958  0.0143
   55CHL1  H18B 6505   2.932   2.820   9.429 -0.4014  0.5286  0.3645
   55CHL1  H18C 6506   2.869   2.825   9.587 -0.2280  1.0291  1.1290
   55CHL1   C12 6507   3.133   2.952   9.542 -0.0735 -0.7123  0.6512
   55CHL1  H12A 6508   3.165   2.910   9.445  1.9635  1.2845  0.3970
   55CHL1  H12B 6509   3.200   3.039   9.551  1.8302 -1.7145 -2.4644
   55CHL1   C11 6510   3.153   2.855   9.653  0.1024 -0.3755 -0.1491
   55CHL1  H11A 6511   3.088   2.768   9.631 -0.3354  0.0436 -0.5241
   55CHL1  H11B 6512   3.258   2.820   9.642 -0.3427 -1.3292 -1.5608
   55CHL1    C9 6513   3.121   2.903   9.796 -0.3641 -0.0910  0.0690
   55CHL1    H9 6514   3.200   2.978   9.820  0.5589 -1.2835  0.9266
   55CHL1   C10 6515   3.123   2.789   9.905  0.2317 -0.7767 -0.2183
   55CHL1   C19 6516   3.037   2.667   9.853  0.2908 -0.4578  0.8508
   55CHL1  H19A 6517   3.089   2.613   9.771  1.3773 -0.5381  1.5802
   55CHL1  H19B 6518   3.026   2.588   9.931 -0.9624  0.3190  1.4881
   55CHL1  H19C 6519   2.938   2.697   9.812  0.8489  1.7916  1.0556
   55CHL1    C1 6520   3.261   2.744   9.918 -0.8023  0.0890  0.3743
   55CHL1   H1A 6521   3.288   2.693   9.823  0.6663  0.9230  0.3138
   55CHL1   H1B 6522   3.326   2.829   9.947 -2.2113  1.1097  0.6210
   55CHL1    C2 6523   3.282   2.649  10.049  0.3523 -0.3950 -0.2587
   55CHL1   H2A 6524   3.389   2.620  10.047  0.6156  0.5255 -0.2074
   55CHL1   H2B 6525   3.212   2.564  10.034  1.2237 -1.3154  0.7021
   55CHL1   C20 6526   2.927   3.087   9.297 -0.6953 -0.6207 -0.2349
   55CHL1   H20 6527   2.864   2.995   9.293  0.7684 -1.6891  0.0897
   55CHL1   C21 6528   3.061   3.069   9.218  0.9245 -0.6825  0.2569
   55CHL1  H21A 6529   3.135   3.142   9.257  0.4795 -0.6677  1.0971
   55CHL1  H21B 6530   3.053   3.070   9.107 -0.0194 -3.4741  0.2166
   55CHL1  H21C 6531   3.112   2.974   9.245 -0.8417 -1.1611  2.2267
   55CHL1   C22 6532   2.840   3.191   9.225 -0.1366  0.1161 -0.5564
   55CHL1  H22A 6533   2.736   3.185   9.264  0.3809 -1.7252  0.6641
   55CHL1  H22B 6534   2.873   3.296   9.240 -0.7437  0.2148  0.1390
   55CHL1   C23 6535   2.827   3.179   9.067  0.7371 -0.1653  0.4415
   55CHL1  H23A 6536   2.909   3.231   9.015 -0.4294 -1.8319 -3.4819
   55CHL1  H23B 6537   2.829   3.068   9.054  0.5224 -0.1253  0.0560
   55CHL1   C24 6538   2.686   3.221   9.011 -0.3487  1.1630  1.2705
   55CHL1  H24A 6539   2.603   3.163   9.055  0.2546 -0.0259  0.8691
   55CHL1  H24B 6540   2.658   3.320   9.054 -1.4301  0.4643  2.2181
   55CHL1   C25 6541   2.669   3.219   8.855 -0.5024  0.0650 -0.8608
   55CHL1   H25 6542   2.712   3.126   8.812 -0.4600  0.0619 -0.8115
   55CHL1   C26 6543   2.524   3.222   8.821 -0.0427 -0.5029  0.4818
   55CHL1  H26A 6544   2.495   3.216   8.714 -1.3309 -0.3648  0.8071
   55CHL1  H26B 6545   2.473   3.141   8.878  0.8112 -0.6606  1.0366
   55CHL1  H26C 6546   2.492   3.326   8.843  1.5653  1.0763 -3.7204
   55CHL1   C27 6547   2.748   3.335   8.797  0.5523 -0.2707  0.4796
   55CHL1  H27A 6548   2.708   3.433   8.832 -1.0455 -0.4364 -0.7308
   55CHL1  H27B 6549   2.851   3.340   8.837  0.2521  1.9457  1.0925
   55CHL1  H27C 6550   2.763   3.323   8.688  3.5816 -1.3379  0.9267
   56CHL1    C3 6551   2.470   4.514  10.018  0.1462 -0.7607  0.7348
   56CHL1    H3 6552   2.522   4.612  10.027 -0.2836  0.1599 -4.0783
   56CHL1    O3 6553   2.440   4.458  10.144  0.0264  0.3268 -0.3839
   56CHL1   H3' 6554   2.521   4.466  10.195  1.4117 -0.2813 -2.3510
   56CHL1    C4 6555   2.339   4.543   9.950 -0.4348  0.5147 -0.6501
   56CHL1   H4A 6556   2.262   4.463   9.954  1.1435 -1.0682 -0.6539
   56CHL1   H4B 6557   2.294   4.625  10.010  1.3472  1.1436 -0.1119
   56CHL1    C5 6558   2.359   4.579   9.803  0.0035  0.5545  0.0775
   56CHL1    C6 6559   2.305   4.687   9.746 -0.2446 -0.9967  0.1260
   56CHL1    H6 6560   2.232   4.745   9.804 -1.4641 -0.1680 -2.1255
   56CHL1    C7 6561   2.327   4.733   9.605 -0.2602 -0.3131  0.1207
   56CHL1   H7A 6562   2.231   4.775   9.570 -0.1133  0.3306  0.4699
   56CHL1   H7B 6563   2.394   4.821   9.596 -1.0529  0.3785  0.8248
   56CHL1    C8 6564   2.372   4.620   9.512 -0.4529  0.5440 -0.4672
   56CHL1    H8 6565   2.295   4.540   9.508 -0.6436  0.3254  3.4572
   56CHL1   C14 6566   2.412   4.668   9.378  0.1983  0.3066 -0.2244
   56CHL1   H14 6567   2.499   4.737   9.388  1.0058 -0.9424  2.5838
   56CHL1   C15 6568   2.298   4.743   9.316  0.3470  0.4657 -0.2646
   56CHL1  H15A 6569   2.199   4.697   9.335  0.0598  1.0659 -0.3243
   56CHL1  H15B 6570   2.309   4.849   9.346 -1.1321  0.9539 -1.3682
   56CHL1   C16 6571   2.330   4.738   9.170 -0.4934  0.3716 -1.1929
   56CHL1  H16A 6572   2.251   4.705   9.100 -1.9247  1.6554 -0.2414
   56CHL1  H16B 6573   2.350   4.846   9.150 -1.7341  0.8670  0.0723
   56CHL1   C17 6574   2.465   4.654   9.156 -0.7181  0.0115 -0.5451
   56CHL1   H17 6575   2.549   4.724   9.176 -0.3816 -0.3207 -0.7860
   56CHL1   C13 6576   2.466   4.563   9.276  0.0080 -0.0378 -0.8883
   56CHL1   C18 6577   2.366   4.447   9.238  0.1504 -0.3009 -0.1353
   56CHL1  H18A 6578   2.422   4.369   9.182  3.0445  1.4056  0.1626
   56CHL1  H18B 6579   2.328   4.403   9.333  0.5565 -2.1415 -0.7838
   56CHL1  H18C 6580   2.283   4.484   9.175  1.4978 -0.1060 -1.8511
   56CHL1   C12 6581   2.596   4.512   9.342 -0.0808  0.1656  0.1407
   56CHL1  H12A 6582   2.633   4.431   9.275 -1.1938 -0.8436  0.7153
   56CHL1  H12B 6583   2.675   4.590   9.344  1.4823 -1.3663  0.4995
   56CHL1   C11 6584   2.570   4.461   9.482 -0.0176  0.9171  0.2730
   56CHL1  H11A 6585   2.510   4.370   9.459  2.9724 -1.3326  0.6798
   56CHL1  H11B 6586   2.662   4.422   9.531  0.3394  0.3672 -0.7884
   56CHL1    C9 6587   2.493   4.554   9.582  0.6593 -0.6972  0.2332
   56CHL1    H9 6588   2.553   4.643   9.610 -4.1383  3.1104 -0.2204
   56CHL1   C10 6589   2.454   4.491   9.721 -0.0070  0.5140  0.1632
   56CHL1   C19 6590   2.392   4.348   9.697 -0.1579 -0.1300 -0.3394
   56CHL1  H19A 6591   2.331   4.352   9.604  1.0376 -1.7464 -1.2577
   56CHL1  H19B 6592   2.472   4.272   9.680  0.6610  0.3777  1.0786
   56CHL1  H19C 6593   2.330   4.322   9.785  0.5611  1.2773  0.6198
   56CHL1    C1 6594   2.584   4.475   9.798 -0.4873  0.3642  1.0936
   56CHL1   H1A 6595   2.651   4.404   9.745  1.1637  1.9575  0.9251
   56CHL1   H1B 6596   2.645   4.568   9.796  1.3557 -0.8026 -0.3722
   56CHL1    C2 6597   2.571   4.426   9.948  0.5124 -0.3981 -0.5597
   56CHL1   H2A 6598   2.667   4.437  10.005 -0.5065  0.0350  1.1589
   56CHL1   H2B 6599   2.536   4.322   9.961  0.0106 -0.4640 -2.2737
   56CHL1   C20 6600   2.485   4.598   9.017 -0.7520  0.8346  0.0848
   56CHL1   H20 6601   2.411   4.520   8.992 -2.2305  1.7763  1.3442
   56CHL1   C21 6602   2.622   4.517   9.008  0.3886  0.4049 -0.2686
   56CHL1  H21A 6603   2.616   4.422   9.065  0.2338  0.2930 -0.4682
   56CHL1  H21B 6604   2.696   4.594   9.038 -0.8658  2.3951 -1.9939
   56CHL1  H21C 6605   2.630   4.489   8.901 -0.6437  0.1940 -0.2975
   56CHL1   C22 6606   2.473   4.705   8.897 -0.3091 -0.4702 -0.3293
   56CHL1  H22A 6607   2.382   4.765   8.917  1.2832  0.8287  4.3240
   56CHL1  H22B 6608   2.563   4.770   8.910  0.3772 -1.4488 -0.0505
   56CHL1   C23 6609   2.453   4.642   8.764  0.0739  0.6922 -0.5022
   56CHL1  H23A 6610   2.545   4.596   8.721  1.2965  0.8300  1.8185
   56CHL1  H23B 6611   2.375   4.564   8.779 -0.6065  2.0009  4.5209
   56CHL1   C24 6612   2.395   4.730   8.647 -0.2250  0.2571  0.7433
   56CHL1  H24A 6613   2.303   4.783   8.678  1.4761  2.7615  1.8977
   56CHL1  H24B 6614   2.467   4.813   8.631  0.4014  0.1074  2.5108
   56CHL1   C25 6615   2.365   4.659   8.509 -0.3313 -0.3542  0.5052
   56CHL1   H25 6616   2.297   4.574   8.532 -0.3334 -0.3003  0.7014
   56CHL1   C26 6617   2.284   4.749   8.418 -0.5888  0.1131  0.0487
   56CHL1  H26A 6618   2.246   4.692   8.330  0.0953 -0.2770 -0.0029
   56CHL1  H26B 6619   2.195   4.785   8.474 -1.3861 -1.6474 -0.0026
   56CHL1  H26C 6620   2.350   4.835   8.394 -1.1095  0.0671 -1.6825
   56CHL1   C27 6621   2.491   4.604   8.439 -0.3507 -0.0094  0.3895
   56CHL1  H27A 6622   2.465   4.533   8.358  0.4676 -0.4514  0.4983
   56CHL1  H27B 6623   2.543   4.687   8.386 -0.9279 -0.7473 -1.4086
   56CHL1  H27C 6624   2.558   4.544   8.504  0.1941 -1.6524 -1.5773
   57CHL1    C3 6625   3.629   2.921  10.128  0.5490 -0.1676  0.6339
   57CHL1    H3 6626   3.531   2.959  10.093  0.6051 -0.5739  0.0163
   57CHL1    O3 6627   3.630   2.890  10.266 -0.4949  0.8155 -0.5628
   57CHL1   H3' 6628   3.721   2.867  10.287 -0.5555  0.4593 -0.6794
   57CHL1    C4 6629   3.670   2.795  10.046 -0.2344  0.0262 -0.3313
   57CHL1   H4A 6630   3.770   2.750  10.067 -0.3328  0.1621  0.4607
   57CHL1   H4B 6631   3.591   2.720  10.063  1.2354 -1.2925  1.0272
   57CHL1    C5 6632   3.668   2.827   9.899 -0.4723 -0.5213 -0.0870
   57CHL1    C6 6633   3.597   2.762   9.806 -0.9879  0.6752  0.5787
   57CHL1    H6 6634   3.540   2.673   9.836 -0.2042 -0.4116 -0.9748
   57CHL1    C7 6635   3.613   2.778   9.661  0.1751 -0.2296  1.1389
   57CHL1   H7A 6636   3.633   2.678   9.617 -0.8141  0.1277 -0.1960
   57CHL1   H7B 6637   3.522   2.812   9.606  0.9313  0.5009  0.3253
   57CHL1    C8 6638   3.740   2.870   9.619  0.3067  0.1512  0.3491
   57CHL1    H8 6639   3.834   2.813   9.630  1.4031  1.4673 -1.4465
   57CHL1   C14 6640   3.726   2.919   9.475 -0.4247  0.6276  0.2111
   57CHL1   H14 6641   3.628   2.970   9.463 -0.0555  1.3183  0.0951
   57CHL1   C15 6642   3.723   2.806   9.371  0.2585 -0.0315  0.0403
   57CHL1  H15A 6643   3.795   2.723   9.388  3.5501  2.3292 -1.1537
   57CHL1  H15B 6644   3.622   2.763   9.358  0.4666 -1.1474  1.8096
   57CHL1   C16 6645   3.762   2.874   9.238  0.9395 -0.4243 -0.1865
   57CHL1  H16A 6646   3.842   2.818   9.185 -0.2247 -1.0408 -1.3396
   57CHL1  H16B 6647   3.671   2.883   9.175 -0.1757  1.9959  1.5789
   57CHL1   C17 6648   3.803   3.015   9.275 -1.0694 -0.0455 -0.2733
   57CHL1   H17 6649   3.704   3.064   9.265 -1.5050 -0.4618  1.4861
   57CHL1   C13 6650   3.833   3.020   9.428  0.7083  0.2668  0.0569
   57CHL1   C18 6651   3.969   2.959   9.449  0.8656  0.5609  0.2661
   57CHL1  H18A 6652   3.986   2.881   9.372  2.6943 -0.8897  2.0028
   57CHL1  H18B 6653   4.044   3.038   9.427  0.7443  1.3944  2.5528
   57CHL1  H18C 6654   3.998   2.930   9.552  0.3917  1.4970  0.6734
   57CHL1   C12 6655   3.814   3.151   9.512 -0.0763 -0.6123  0.0763
   57CHL1  H12A 6656   3.885   3.230   9.480  0.7121 -1.6103 -0.7421
   57CHL1  H12B 6657   3.708   3.184   9.499 -0.1976 -1.0453 -0.0573
   57CHL1   C11 6658   3.834   3.115   9.663  0.0717  0.0047 -0.3521
   57CHL1  H11A 6659   3.943   3.103   9.682 -0.2198 -0.8748  0.8587
   57CHL1  H11B 6660   3.795   3.205   9.714  2.4259  2.0045 -1.8613
   57CHL1    C9 6661   3.749   2.993   9.715 -0.2771  1.1333 -0.7696
   57CHL1    H9 6662   3.644   3.026   9.705 -0.9022 -0.5316 -0.0691
   57CHL1   C10 6663   3.766   2.948   9.863 -1.0656 -0.4752 -1.0856
   57CHL1   C19 6664   3.914   2.905   9.886  0.5459  0.3838 -0.3940
   57CHL1  H19A 6665   3.945   2.826   9.815  1.5648 -0.9390  1.4506
   57CHL1  H19B 6666   3.987   2.988   9.876 -2.0481  2.8321 -0.1763
   57CHL1  H19C 6667   3.921   2.860   9.988  1.4540  1.3883  0.0099
   57CHL1    C1 6668   3.733   3.071   9.957  0.3393 -0.2146  0.2204
   57CHL1   H1A 6669   3.801   3.158   9.947  0.1877 -0.1278 -0.0921
   57CHL1   H1B 6670   3.632   3.111   9.932 -0.1114  1.1568  3.7150
   57CHL1    C2 6671   3.736   3.032  10.104  0.7383  0.1794 -0.4569
   57CHL1   H2A 6672   3.708   3.113  10.176 -1.1595 -0.1093 -0.8230
   57CHL1   H2B 6673   3.835   2.991  10.135  1.1524  0.7402 -0.9898
   57CHL1   C20 6674   3.892   3.082   9.171 -0.1460  0.3173  0.5662
   57CHL1   H20 6675   3.985   3.022   9.167  0.1173  0.6069  1.8284
   57CHL1   C21 6676   3.930   3.217   9.217 -0.0207 -0.2087  0.5317
   57CHL1  H21A 6677   3.844   3.285   9.236 -1.8829 -1.3563 -2.9357
   57CHL1  H21B 6678   3.994   3.261   9.138 -2.2380  1.9485 -0.1965
   57CHL1  H21C 6679   3.994   3.206   9.308 -0.0037 -1.4754  0.3890
   57CHL1   C22 6680   3.821   3.106   9.031  0.5255  0.3683  0.0191
   57CHL1  H22A 6681   3.746   3.025   9.019 -0.4514  1.1591  0.6188
   57CHL1  H22B 6682   3.776   3.207   9.039  2.8358  1.4029  1.2785
   57CHL1   C23 6683   3.919   3.115   8.908  0.0196 -0.2358  0.2215
   57CHL1  H23A 6684   3.991   3.199   8.919  0.9422 -0.5356 -2.7342
   57CHL1  H23B 6685   3.985   3.026   8.912  0.9279  0.4431  2.6972
   57CHL1   C24 6686   3.851   3.122   8.772 -0.1950  0.4744  0.3935
   57CHL1  H24A 6687   3.767   3.050   8.766  0.9417 -0.8414 -0.5804
   57CHL1  H24B 6688   3.807   3.223   8.761 -1.0689  0.2615  1.6275
   57CHL1   C25 6689   3.946   3.088   8.654  0.4530  0.0561  0.2102
   57CHL1   H25 6690   3.987   2.987   8.671 -1.3157 -0.6172  0.7153
   57CHL1   C26 6691   3.874   3.103   8.522  0.0027 -0.1239 -0.1638
   57CHL1  H26A 6692   3.945   3.111   8.437  0.4447  2.7674  0.3982
   57CHL1  H26B 6693   3.802   3.020   8.509  1.5600 -1.9083  1.7615
   57CHL1  H26C 6694   3.823   3.201   8.518  1.9993  1.0088  0.3899
   57CHL1   C27 6695   4.067   3.181   8.659  0.6477  0.2650 -0.6430
   57CHL1  H27A 6696   4.119   3.190   8.757 -0.6861 -0.9672  0.2252
   57CHL1  H27B 6697   4.140   3.139   8.588  1.1857  2.2908 -1.3405
   57CHL1  H27C 6698   4.039   3.282   8.621  0.7109  0.4926 -0.0962
   58CHL1    C3 6699   3.626   4.490  10.002 -0.2706  0.4965 -0.2037
   58CHL1    H3 6700   3.717   4.463   9.945 -0.2046 -2.8239  1.2614
   58CHL1    O3 6701   3.628   4.489  10.145  0.3372  0.5321 -0.7294
   58CHL1   H3' 6702   3.653   4.400  10.170 -3.0396  0.0549  1.6222
   58CHL1    C4 6703   3.579   4.635   9.965  0.3789  0.0955  0.5542
   58CHL1   H4A 6704   3.478   4.654  10.008 -0.6601 -1.5157 -1.0362
   58CHL1   H4B 6705   3.653   4.705  10.010 -0.0100 -0.5052  2.1783
   58CHL1    C5 6706   3.578   4.636   9.810  0.1545 -0.2797 -0.2876
   58CHL1    C6 6707   3.653   4.726   9.740  0.4543 -0.4030  0.6702
   58CHL1    H6 6708   3.706   4.799   9.803  0.2177  0.3559  0.0145
   58CHL1    C7 6709   3.666   4.738   9.588  0.2671 -0.0270  0.0163
   58CHL1   H7A 6710   3.680   4.844   9.559  0.6787  0.3746  1.6003
   58CHL1   H7B 6711   3.763   4.689   9.568  1.3983  2.2640 -0.3915
   58CHL1    C8 6712   3.555   4.655   9.513 -0.0099  0.0628 -0.1190
   58CHL1    H8 6713   3.462   4.714   9.524  0.6683  0.9602  1.1273
   58CHL1   C14 6714   3.583   4.643   9.364 -0.1507  0.0920  0.8283
   58CHL1   H14 6715   3.677   4.585   9.354  0.4583  1.1122  0.4171
   58CHL1   C15 6716   3.618   4.763   9.281 -0.7829  0.3296 -0.1861
   58CHL1  H15A 6717   3.547   4.845   9.302 -3.9688 -2.3698  0.3948
   58CHL1  H15B 6718   3.725   4.790   9.295 -0.3842 -0.6708 -1.1332
   58CHL1   C16 6719   3.603   4.717   9.134  0.1651  0.4027  0.5590
   58CHL1  H16A 6720   3.533   4.779   9.074  0.7304 -0.4770 -1.0659
   58CHL1  H16B 6721   3.705   4.734   9.094 -0.4544  2.9706 -0.1489
   58CHL1   C17 6722   3.555   4.570   9.139  0.3930  0.3475 -0.0527
   58CHL1   H17 6723   3.651   4.514   9.140  0.1956 -0.0462  2.1990
   58CHL1   C13 6724   3.488   4.556   9.280  0.3535 -0.1370 -0.9997
   58CHL1   C18 6725   3.348   4.630   9.266 -0.5297 -0.0817 -0.7243
   58CHL1  H18A 6726   3.350   4.719   9.201 -1.9392  0.6002  0.1100
   58CHL1  H18B 6727   3.275   4.563   9.215 -1.0230  1.5964 -2.2916
   58CHL1  H18C 6728   3.308   4.660   9.365  0.5771 -0.4111 -0.1546
   58CHL1   C12 6729   3.473   4.421   9.352  0.3052  0.0329  0.0323
   58CHL1  H12A 6730   3.398   4.360   9.297  0.5628  0.4388 -0.7816
   58CHL1  H12B 6731   3.571   4.368   9.357  0.5035  0.5061  1.9398
   58CHL1   C11 6732   3.423   4.437   9.505  0.1467  0.9543 -0.2377
   58CHL1  H11A 6733   3.324   4.488   9.500  0.0103  1.1455  2.6895
   58CHL1  H11B 6734   3.400   4.331   9.530 -5.9421  2.3685  1.8957
   58CHL1    C9 6735   3.527   4.517   9.584 -0.4770 -0.3022 -0.2471
   58CHL1    H9 6736   3.628   4.470   9.578 -0.6607 -0.5027 -2.5879
   58CHL1   C10 6737   3.498   4.529   9.733 -0.2094 -0.0968 -0.4046
   58CHL1   C19 6738   3.357   4.573   9.749 -0.1492 -0.1839 -0.2411
   58CHL1  H19A 6739   3.285   4.498   9.708 -0.2390  0.7096 -1.8023
   58CHL1  H19B 6740   3.335   4.588   9.857  1.9466  1.1823  0.0471
   58CHL1  H19C 6741   3.341   4.670   9.698  0.6615  0.5418  0.8585
   58CHL1    C1 6742   3.511   4.388   9.798 -0.3007  0.7167 -0.3698
   58CHL1   H1A 6743   3.419   4.335   9.767 -1.4631  3.0700 -1.1673
   58CHL1   H1B 6744   3.594   4.326   9.757 -2.0790 -0.8259 -1.7850
   58CHL1    C2 6745   3.525   4.394   9.947  0.4913  0.0587 -0.6898
   58CHL1   H2A 6746   3.535   4.292   9.991 -0.4103 -0.2791 -1.2433
   58CHL1   H2B 6747   3.430   4.426   9.995  0.5860 -0.9513  0.2044
   58CHL1   C20 6748   3.483   4.522   9.015 -0.0719 -0.9373 -0.8035
   58CHL1   H20 6749   3.383   4.565   9.033  1.7733  3.1485  0.8721
   58CHL1   C21 6750   3.491   4.367   9.016  0.1312 -0.0348  0.5979
   58CHL1  H21A 6751   3.428   4.330   8.933  3.0278 -0.3654 -1.5971
   58CHL1  H21B 6752   3.440   4.323   9.104 -2.3051  0.8941 -0.2572
   58CHL1  H21C 6753   3.596   4.334   9.006  0.3158  0.5132  0.6500
   58CHL1   C22 6754   3.536   4.573   8.879  0.0538  0.7971  0.7376
   58CHL1  H22A 6755   3.567   4.680   8.883  0.5288  0.6598  0.7854
   58CHL1  H22B 6756   3.617   4.511   8.835 -1.7096  0.5781 -2.5128
   58CHL1   C23 6757   3.421   4.562   8.777 -0.2173 -0.2220 -0.7923
   58CHL1  H23A 6758   3.404   4.455   8.753 -1.2191 -0.4103  0.6620
   58CHL1  H23B 6759   3.334   4.605   8.831  0.0420  0.3565 -0.8278
   58CHL1   C24 6760   3.462   4.629   8.648  0.4551 -0.3313  0.1747
   58CHL1  H24A 6761   3.386   4.602   8.572 -0.6503 -0.1557  1.1887
   58CHL1  H24B 6762   3.470   4.738   8.668  0.6419  0.2587 -2.6684
   58CHL1   C25 6763   3.590   4.577   8.581  0.4862  0.1434 -0.4834
   58CHL1   H25 6764   3.675   4.601   8.648 -2.8528  0.2756  4.1315
   58CHL1   C26 6765   3.594   4.425   8.536  0.2972  0.1320 -0.7884
   58CHL1  H26A 6766   3.689   4.385   8.496  0.0856 -2.1998  0.7936
   58CHL1  H26B 6767   3.556   4.353   8.612  2.6366  0.0523  0.3796
   58CHL1  H26C 6768   3.518   4.406   8.457 -0.5551  0.0776  0.0230
   58CHL1   C27 6769   3.623   4.658   8.456 -0.3637 -0.0735 -0.1063
   58CHL1  H27A 6770   3.536   4.646   8.387 -0.4523 -2.3448  0.3015
   58CHL1  H27B 6771   3.650   4.762   8.483 -0.8078 -0.5787  2.5708
   58CHL1  H27C 6772   3.702   4.618   8.388  1.1047  1.3477  0.6953
   59CHL1    C3 6773   1.193   1.478  10.044 -0.4344  0.2523  0.1061
   59CHL1    H3 6774   1.169   1.371  10.026  0.1201 -0.1334  1.5008
   59CHL1    O3 6775   1.213   1.495  10.185  0.5401  0.1211  0.5538
   59CHL1   H3' 6776   1.238   1.587  10.198 -1.3824  0.8056 -0.2219
   59CHL1    C4 6777   1.334   1.515   9.979  0.5045 -0.4468  0.3592
   59CHL1   H4A 6778   1.369   1.609  10.027 -0.0230 -0.2964  0.4524
   59CHL1   H4B 6779   1.397   1.430  10.010 -1.5538 -1.2495  2.6486
   59CHL1    C5 6780   1.320   1.524   9.825  0.3029 -0.2257 -0.1210
   59CHL1    C6 6781   1.396   1.448   9.744  0.0201  0.0287 -1.0827
   59CHL1    H6 6782   1.472   1.388   9.798 -1.1899  0.8381  1.7166
   59CHL1    C7 6783   1.386   1.456   9.597  0.3987 -0.8341 -0.0291
   59CHL1   H7A 6784   1.485   1.429   9.553  1.4437  3.5904 -0.8101
   59CHL1   H7B 6785   1.321   1.371   9.567 -2.3302  0.9549  0.4365
   59CHL1    C8 6786   1.329   1.588   9.548  0.4891  0.4636  1.0249
   59CHL1    H8 6787   1.402   1.666   9.579  0.3287  0.4415  1.4713
   59CHL1   C14 6788   1.301   1.589   9.400 -0.4339  0.2225  0.7218
   59CHL1   H14 6789   1.219   1.514   9.394 -0.3914 -0.0041  2.5252
   59CHL1   C15 6790   1.420   1.545   9.310 -0.1800  0.1129  0.0553
   59CHL1  H15A 6791   1.514   1.592   9.347 -0.1000 -1.4505  1.9707
   59CHL1  H15B 6792   1.441   1.436   9.303 -0.4365 -0.0936  2.0307
   59CHL1   C16 6793   1.389   1.613   9.169  0.3841  0.9972 -0.7410
   59CHL1  H16A 6794   1.467   1.688   9.144  0.7365  0.5063 -1.1449
   59CHL1  H16B 6795   1.386   1.537   9.088  2.4296  0.1289 -0.0709
   59CHL1   C17 6796   1.249   1.686   9.189  0.3531  0.6933 -0.2853
   59CHL1   H17 6797   1.177   1.607   9.157 -0.4101  1.3063 -0.1112
   59CHL1   C13 6798   1.237   1.714   9.348  0.0010 -0.2471  0.1593
   59CHL1   C18 6799   1.330   1.836   9.382  0.2118  0.0048 -0.5691
   59CHL1  H18A 6800   1.321   1.862   9.490  2.1087  1.2274 -0.6686
   59CHL1  H18B 6801   1.436   1.824   9.352  1.5978 -1.5844  4.0598
   59CHL1  H18C 6802   1.297   1.928   9.329  0.6858  1.3558  1.3609
   59CHL1   C12 6803   1.097   1.722   9.411  0.3889  0.6491 -0.4292
   59CHL1  H12A 6804   1.046   1.816   9.378 -1.3308 -0.7060 -1.8297
   59CHL1  H12B 6805   1.027   1.639   9.386 -1.1392  1.5246  0.7721
   59CHL1   C11 6806   1.111   1.728   9.565 -0.4567  0.5661  0.1302
   59CHL1  H11A 6807   1.161   1.822   9.596 -1.2229  0.5942  1.3732
   59CHL1  H11B 6808   1.013   1.731   9.618  0.1057 -1.5945  1.4250
   59CHL1    C9 6809   1.194   1.611   9.622 -0.3584 -0.6231 -0.2367
   59CHL1    H9 6810   1.142   1.514   9.608 -0.7025 -0.3462 -0.9478
   59CHL1   C10 6811   1.218   1.623   9.775  0.0530 -0.3118  0.3317
   59CHL1   C19 6812   1.270   1.767   9.817  0.3297  0.4262 -0.4508
   59CHL1  H19A 6813   1.321   1.778   9.914 -0.2237  0.2147 -0.1311
   59CHL1  H19B 6814   1.336   1.807   9.737  0.4115 -0.0033 -0.6015
   59CHL1  H19C 6815   1.176   1.825   9.823 -0.2637 -0.4571 -0.9764
   59CHL1    C1 6816   1.081   1.596   9.846  0.5251 -0.2077 -0.4962
   59CHL1   H1A 6817   1.016   1.683   9.826  0.5177 -0.1657 -0.2935
   59CHL1   H1B 6818   1.032   1.511   9.794 -0.8473  0.8206 -0.9211
   59CHL1    C2 6819   1.085   1.577  10.001 -0.3626  0.5100  0.0341
   59CHL1   H2A 6820   0.981   1.546  10.023  0.0374 -1.2039 -0.3307
   59CHL1   H2B 6821   1.097   1.672  10.057 -1.7542  1.4370 -1.1532
   59CHL1   C20 6822   1.241   1.800   9.094 -1.0566  0.3181  0.4299
   59CHL1   H20 6823   1.334   1.857   9.111 -0.9009 -0.0198  0.7071
   59CHL1   C21 6824   1.112   1.873   9.123  0.2996  0.1134  0.0545
   59CHL1  H21A 6825   1.018   1.815   9.120 -0.8541  1.8774  0.5014
   59CHL1  H21B 6826   1.098   1.962   9.058  2.6475  2.3116  2.3318
   59CHL1  H21C 6827   1.111   1.908   9.228 -0.4921  0.6789 -0.1275
   59CHL1   C22 6828   1.255   1.758   8.944  0.1196  0.3872  0.6744
   59CHL1  H22A 6829   1.269   1.850   8.884  0.6204 -0.7799 -1.0772
   59CHL1  H22B 6830   1.343   1.694   8.923 -0.0866  0.4384 -0.4149
   59CHL1   C23 6831   1.134   1.678   8.889 -0.3480  0.3792  0.3426
   59CHL1  H23A 6832   1.109   1.592   8.954 -0.2292  1.4866  1.9097
   59CHL1  H23B 6833   1.045   1.742   8.870 -0.7101 -0.5600 -1.2719
   59CHL1   C24 6834   1.177   1.619   8.754 -0.0988 -0.2218  0.0796
   59CHL1  H24A 6835   1.226   1.694   8.688 -0.1401  0.7997  1.1854
   59CHL1  H24B 6836   1.250   1.536   8.764  1.1599  0.7498 -0.7371
   59CHL1   C25 6837   1.052   1.567   8.687  0.0608 -0.4249 -0.1680
   59CHL1   H25 6838   0.981   1.651   8.671 -0.9794 -1.0213  1.1839
   59CHL1   C26 6839   1.092   1.513   8.549 -0.4364  0.3323 -0.7016
   59CHL1  H26A 6840   1.180   1.568   8.508 -1.0776  0.8330 -1.4317
   59CHL1  H26B 6841   1.130   1.409   8.555 -1.1207  0.0402 -1.3152
   59CHL1  H26C 6842   1.010   1.526   8.475 -2.1465 -0.9074  0.8861
   59CHL1   C27 6843   0.976   1.468   8.774  0.1568  0.1924 -0.1050
   59CHL1  H27A 6844   0.889   1.431   8.716  0.8973  0.3618 -1.3660
   59CHL1  H27B 6845   1.049   1.389   8.803 -0.3211 -0.1234  0.2458
   59CHL1  H27C 6846   0.951   1.516   8.871 -0.1478 -0.5333  0.1883
   60CHL1    C3 6847   2.712   6.465  10.015  0.8111 -0.0857 -0.7857
   60CHL1    H3 6848   2.813   6.421   9.999 -0.1408 -2.4687 -0.6275
   60CHL1    O3 6849   2.671   6.449  10.150 -1.0496  0.3572  0.6746
   60CHL1   H3' 6850   2.732   6.499  10.204 -0.4141  0.6897 -0.3186
   60CHL1    C4 6851   2.708   6.613   9.972 -1.0504  0.6909 -0.3074
   60CHL1   H4A 6852   2.615   6.650  10.020 -1.5108  1.4836 -1.7606
   60CHL1   H4B 6853   2.789   6.666  10.028 -0.6566 -0.8099  0.5999
   60CHL1    C5 6854   2.709   6.634   9.822 -0.2745 -0.1904 -0.6649
   60CHL1    C6 6855   2.812   6.718   9.777  0.4524 -0.3958  0.1708
   60CHL1    H6 6856   2.886   6.771   9.838  0.2421  0.6126 -0.4350
   60CHL1    C7 6857   2.832   6.737   9.629  0.1799  0.7569  0.5899
   60CHL1   H7A 6858   2.861   6.838   9.595 -1.2773  1.4210  1.2354
   60CHL1   H7B 6859   2.916   6.668   9.603 -0.2444  0.5872 -0.4022
   60CHL1    C8 6860   2.715   6.690   9.537  0.2354  0.0432  0.0055
   60CHL1    H8 6861   2.630   6.761   9.544 -0.5748 -0.9700  0.6832
   60CHL1   C14 6862   2.750   6.681   9.388  0.1914  0.1847 -0.1532
   60CHL1   H14 6863   2.826   6.600   9.382  0.0606 -0.0576  1.1654
   60CHL1   C15 6864   2.825   6.803   9.327 -0.4360  0.3711  0.1222
   60CHL1  H15A 6865   2.791   6.903   9.361  1.4278  1.1807 -0.2761
   60CHL1  H15B 6866   2.931   6.785   9.356 -0.9170 -0.3714  1.4928
   60CHL1   C16 6867   2.801   6.800   9.175 -0.1350 -0.1049  0.8258
   60CHL1  H16A 6868   2.736   6.888   9.158  1.1854  1.1158  1.8677
   60CHL1  H16B 6869   2.900   6.809   9.125 -0.7113  2.1882 -0.0440
   60CHL1   C17 6870   2.725   6.664   9.150 -0.9055  0.1046 -0.2366
   60CHL1   H17 6871   2.807   6.592   9.134 -0.5913  0.7135 -1.5284
   60CHL1   C13 6872   2.651   6.634   9.288 -1.1236  0.3097  0.4444
   60CHL1   C18 6873   2.525   6.725   9.299 -0.0327  0.7893  0.3286
   60CHL1  H18A 6874   2.484   6.736   9.402 -1.5344  1.3369 -0.2896
   60CHL1  H18B 6875   2.557   6.826   9.266  1.8020 -0.4503 -1.9408
   60CHL1  H18C 6876   2.444   6.683   9.234  0.8235 -0.3988 -0.0059
   60CHL1   C12 6877   2.626   6.481   9.331 -0.4065 -0.5745 -0.0990
   60CHL1  H12A 6878   2.546   6.431   9.271 -0.4072  0.0746 -0.6562
   60CHL1  H12B 6879   2.713   6.413   9.324  0.3687  0.2227  1.5380
   60CHL1   C11 6880   2.581   6.476   9.482 -0.5071  0.0914 -0.0116
   60CHL1  H11A 6881   2.485   6.534   9.488 -0.1734  0.8239 -1.3845
   60CHL1  H11B 6882   2.554   6.370   9.500  1.3776 -0.6455 -1.2673
   60CHL1    C9 6883   2.679   6.548   9.583 -0.4178 -0.1977 -0.3782
   60CHL1    H9 6884   2.767   6.481   9.585 -1.0098 -0.9940  1.9751
   60CHL1   C10 6885   2.622   6.540   9.731  0.1982  0.0619  0.0683
   60CHL1   C19 6886   2.474   6.580   9.739  0.1457 -0.8729  0.6511
   60CHL1  H19A 6887   2.428   6.596   9.839 -1.4286  1.1499 -0.3288
   60CHL1  H19B 6888   2.456   6.678   9.691 -2.0664 -0.8833  1.3595
   60CHL1  H19C 6889   2.410   6.514   9.677  0.7603 -1.1057  0.2559
   60CHL1    C1 6890   2.634   6.394   9.781 -0.2425 -0.5578 -0.2794
   60CHL1   H1A 6891   2.555   6.335   9.729 -0.4475 -0.3534 -0.2052
   60CHL1   H1B 6892   2.732   6.349   9.757 -0.6858 -3.9812  3.2577
   60CHL1    C2 6893   2.618   6.381   9.936  0.1351 -0.0240  0.4454
   60CHL1   H2A 6894   2.623   6.273   9.963 -0.9217 -0.2137 -0.0407
   60CHL1   H2B 6895   2.514   6.405   9.969  0.0931 -0.4549  0.6365
   60CHL1   C20 6896   2.653   6.663   9.024 -0.1705  0.8137  0.5440
   60CHL1   H20 6897   2.575   6.742   9.031 -0.1574  0.8729  0.0354
   60CHL1   C21 6898   2.588   6.528   9.008  0.1205  0.5559  0.1723
   60CHL1  H21A 6899   2.665   6.448   9.019 -1.0061 -0.4983  0.5779
   60CHL1  H21B 6900   2.550   6.517   8.904  0.2575  0.3945  0.1363
   60CHL1  H21C 6901   2.502   6.513   9.076 -0.9284 -0.8951 -1.3889
   60CHL1   C22 6902   2.752   6.682   8.905  0.4599 -0.3526 -0.4830
   60CHL1  H22A 6903   2.819   6.769   8.921 -1.1720  0.9764 -0.5493
   60CHL1  H22B 6904   2.816   6.594   8.881 -0.8603 -1.0604 -1.5738
   60CHL1   C23 6905   2.671   6.724   8.774  0.1905 -0.0728 -0.1164
   60CHL1  H23A 6906   2.604   6.645   8.734 -3.6984  1.7373  2.2929
   60CHL1  H23B 6907   2.609   6.814   8.795  1.4224  1.3566 -2.2656
   60CHL1   C24 6908   2.754   6.800   8.668  0.3915  0.0526  0.1792
   60CHL1  H24A 6909   2.808   6.890   8.704 -0.7913  2.3764 -3.3456
   60CHL1  H24B 6910   2.833   6.732   8.628  1.8545  0.8630  1.5583
   60CHL1   C25 6911   2.661   6.848   8.553  1.0638 -0.4202 -0.6410
   60CHL1   H25 6912   2.601   6.768   8.504  1.0647  0.5092 -2.2402
   60CHL1   C26 6913   2.576   6.966   8.596  0.0351  0.0161 -0.4887
   60CHL1  H26A 6914   2.628   7.043   8.657  2.2239 -1.7077 -0.0723
   60CHL1  H26B 6915   2.537   7.016   8.505 -1.3112  1.4048  0.7907
   60CHL1  H26C 6916   2.488   6.940   8.658  0.5193  0.9868  0.6485
   60CHL1   C27 6917   2.752   6.898   8.434  0.1554  0.4928  0.3791
   60CHL1  H27A 6918   2.795   6.808   8.386 -0.5750 -0.2616  1.1209
   60CHL1  H27B 6919   2.690   6.958   8.363 -0.9333 -2.6355 -1.4974
   60CHL1  H27C 6920   2.836   6.957   8.477  2.3824 -2.1769 -0.0444
   61CHL1    C3 6921   4.308   1.236  10.090  0.1197 -0.5266  0.1859
   61CHL1    H3 6922   4.199   1.241  10.068  0.2159 -0.7170 -0.3401
   61CHL1    O3 6923   4.333   1.201  10.228 -0.4743 -0.2084 -0.8002
   61CHL1   H3' 6924   4.354   1.280  10.278  0.3229 -1.3024  0.7092
   61CHL1    C4 6925   4.363   1.128  10.004 -0.0082  0.0335 -0.1585
   61CHL1   H4A 6926   4.468   1.101  10.029  1.3493  2.6650 -2.4853
   61CHL1   H4B 6927   4.311   1.035  10.035 -1.4079  0.2736 -1.6338
   61CHL1    C5 6928   4.345   1.146   9.862  0.9793 -1.2635  0.5783
   61CHL1    C6 6929   4.267   1.068   9.782 -0.1844 -0.0303 -0.5635
   61CHL1    H6 6930   4.213   0.982   9.823  1.3638  0.4486  2.8305
   61CHL1    C7 6931   4.265   1.092   9.637  0.6689 -0.1212 -0.1529
   61CHL1   H7A 6932   4.274   0.993   9.587  3.5643  0.6068 -1.2542
   61CHL1   H7B 6933   4.164   1.131   9.611  1.1597  0.7572 -0.7706
   61CHL1    C8 6934   4.370   1.183   9.581 -0.0862 -0.0065 -0.3175
   61CHL1    H8 6935   4.463   1.125   9.600 -1.4250 -1.5889  1.6953
   61CHL1   C14 6936   4.341   1.211   9.428 -0.2069 -0.6211 -1.0184
   61CHL1   H14 6937   4.240   1.255   9.422 -0.5232 -1.5012 -3.1641
   61CHL1   C15 6938   4.326   1.087   9.344 -0.8512  0.0957  0.8221
   61CHL1  H15A 6939   4.412   1.018   9.359 -0.7079  0.1393  0.2310
   61CHL1  H15B 6940   4.231   1.029   9.347 -1.5262  1.1093 -0.1974
   61CHL1   C16 6941   4.333   1.153   9.199  0.7100 -0.7771 -0.3881
   61CHL1  H16A 6942   4.396   1.085   9.139 -0.5020 -1.1488 -1.2884
   61CHL1  H16B 6943   4.230   1.154   9.157  1.2640 -1.2592 -1.8382
   61CHL1   C17 6944   4.385   1.304   9.227 -0.3579 -0.2007  0.8697
   61CHL1   H17 6945   4.291   1.361   9.214 -0.5673 -0.9945 -1.5319
   61CHL1   C13 6946   4.437   1.307   9.368 -0.4098 -0.0732  0.6052
   61CHL1   C18 6947   4.581   1.257   9.366 -0.3735  0.2711 -0.0373
   61CHL1  H18A 6948   4.597   1.213   9.466  0.9021  1.8037  0.4765
   61CHL1  H18B 6949   4.595   1.168   9.302 -0.6996 -1.3695  2.0824
   61CHL1  H18C 6950   4.652   1.343   9.361  0.4375 -0.3193  0.9341
   61CHL1   C12 6951   4.422   1.441   9.443 -0.6908  0.0622  0.4307
   61CHL1  H12A 6952   4.503   1.502   9.397 -0.1940 -1.9400 -1.5146
   61CHL1  H12B 6953   4.322   1.484   9.424 -0.5977 -0.4068 -1.3910
   61CHL1   C11 6954   4.447   1.426   9.595 -0.9642  0.3783  0.0634
   61CHL1  H11A 6955   4.557   1.415   9.609 -0.9202  1.9949  1.3302
   61CHL1  H11B 6956   4.428   1.526   9.641 -2.8749  0.4172 -0.7312
   61CHL1    C9 6957   4.367   1.314   9.665 -0.1466 -0.1647  0.0515
   61CHL1    H9 6958   4.258   1.335   9.654 -0.2989 -1.2304 -0.6879
   61CHL1   C10 6959   4.406   1.290   9.815 -0.1765  0.6566 -0.2707
   61CHL1   C19 6960   4.559   1.270   9.826 -0.6199  0.4382 -0.2847
   61CHL1  H19A 6961   4.594   1.187   9.760 -2.4153  1.4859 -2.7254
   61CHL1  H19B 6962   4.611   1.362   9.793 -1.8091  1.3821  0.4256
   61CHL1  H19C 6963   4.593   1.253   9.930 -0.5719  4.8278  0.5969
   61CHL1    C1 6964   4.367   1.404   9.913 -0.2615  0.0588  0.6229
   61CHL1   H1A 6965   4.414   1.503   9.894  0.9298 -0.7260 -0.7200
   61CHL1   H1B 6966   4.260   1.419   9.887 -0.8227 -3.4864  0.4797
   61CHL1    C2 6967   4.370   1.376  10.058 -0.2879 -0.1467 -0.6508
   61CHL1   H2A 6968   4.318   1.457  10.113  0.1806 -1.2476  1.5558
   61CHL1   H2B 6969   4.477   1.381  10.088  0.3196 -1.6246 -2.3765
   61CHL1   C20 6970   4.469   1.368   9.110  0.2085  0.2966  0.3134
   61CHL1   H20 6971   4.564   1.407   9.151 -0.1079  1.9644 -0.4471
   61CHL1   C21 6972   4.402   1.495   9.055  0.4541  0.0023 -0.6612
   61CHL1  H21A 6973   4.362   1.553   9.141 -1.2213 -0.9076 -0.7961
   61CHL1  H21B 6974   4.321   1.486   8.980  0.4065  4.1317 -1.3387
   61CHL1  H21C 6975   4.469   1.565   9.000  1.7200 -0.6750 -0.0372
   61CHL1   C22 6976   4.495   1.276   8.987  0.5018 -0.0016 -0.3252
   61CHL1  H22A 6977   4.524   1.177   9.027 -0.5299 -0.2781 -0.2378
   61CHL1  H22B 6978   4.391   1.267   8.949 -0.2463  0.5760  1.5012
   61CHL1   C23 6979   4.585   1.332   8.882 -0.7628  0.0708  0.7339
   61CHL1  H23A 6980   4.522   1.400   8.820  0.2014 -1.0693 -1.6484
   61CHL1  H23B 6981   4.660   1.398   8.930  0.2012 -1.3432  1.2189
   61CHL1   C24 6982   4.637   1.218   8.793  0.2311  0.3432  0.4973
   61CHL1  H24A 6983   4.741   1.191   8.823  1.2743  3.5674  0.2652
   61CHL1  H24B 6984   4.574   1.127   8.793  0.9253 -0.1704  1.6068
   61CHL1   C25 6985   4.654   1.263   8.644 -0.3606 -0.1912  0.3610
   61CHL1   H25 6986   4.553   1.281   8.602 -0.5880  0.6358  1.2137
   61CHL1   C26 6987   4.738   1.394   8.629  0.2019  0.2574 -0.2737
   61CHL1  H26A 6988   4.740   1.448   8.532 -1.6141  1.5746  0.3706
   61CHL1  H26B 6989   4.715   1.482   8.693  0.1976  2.0441 -2.6001
   61CHL1  H26C 6990   4.843   1.361   8.644 -0.1650 -0.3157  1.2289
   61CHL1   C27 6991   4.724   1.148   8.570 -0.4868 -0.3825  0.0305
   61CHL1  H27A 6992   4.721   1.171   8.461 -2.2228 -0.7950 -0.0306
   61CHL1  H27B 6993   4.826   1.128   8.611 -0.7825  0.3281  1.1536
   61CHL1  H27C 6994   4.657   1.060   8.580 -1.8180  0.3187 -2.1037
   62CHL1    C3 6995   3.985   2.271  10.243  0.9888 -0.5897 -0.3661
   62CHL1    H3 6996   3.964   2.169  10.203 -0.7955 -0.9176  1.2435
   62CHL1    O3 6997   3.990   2.268  10.384 -0.0025  0.1207  0.0671
   62CHL1   H3' 6998   3.952   2.353  10.411 -1.4941 -0.2637 -0.6854
   62CHL1    C4 6999   4.113   2.324  10.179  0.4231 -0.3844 -0.0038
   62CHL1   H4A 7000   4.144   2.416  10.233  0.5893 -0.8504  0.7086
   62CHL1   H4B 7001   4.186   2.245  10.205 -1.8000 -1.6253  3.0401
   62CHL1    C5 7002   4.104   2.333  10.028 -0.7179  0.5947 -0.1005
   62CHL1    C6 7003   4.199   2.267   9.950  0.5344  0.0998  0.0185
   62CHL1    H6 7004   4.281   2.213  10.000 -0.5147 -2.2503 -0.6569
   62CHL1    C7 7005   4.192   2.272   9.799  0.2731 -0.3206  0.2526
   62CHL1   H7A 7006   4.293   2.309   9.773  0.8344 -1.6458  0.4629
   62CHL1   H7B 7007   4.162   2.175   9.756 -0.0724 -0.2164  0.2534
   62CHL1    C8 7008   4.099   2.382   9.733  0.2940 -0.0194  0.0634
   62CHL1    H8 7009   4.154   2.477   9.747  1.3398 -0.4470 -0.9999
   62CHL1   C14 7010   4.065   2.345   9.590 -0.7662 -0.0509 -0.2553
   62CHL1   H14 7011   4.003   2.253   9.594 -0.0733 -0.5074  0.1361
   62CHL1   C15 7012   4.186   2.321   9.499  0.2389  0.2120 -0.0515
   62CHL1  H15A 7013   4.267   2.387   9.536  0.0981 -0.0528  0.7645
   62CHL1  H15B 7014   4.229   2.219   9.514  0.2045  0.3630  1.1305
   62CHL1   C16 7015   4.139   2.345   9.356 -0.4190  0.5001  0.0766
   62CHL1  H16A 7016   4.206   2.420   9.310  1.7428 -2.5482 -2.1327
   62CHL1  H16B 7017   4.145   2.249   9.300  0.3715  0.4762  0.2042
   62CHL1   C17 7018   3.993   2.381   9.372 -0.2521 -0.3282  0.6437
   62CHL1   H17 7019   3.936   2.285   9.377 -1.6535  0.5284  1.5636
   62CHL1   C13 7020   3.982   2.445   9.506 -0.6360 -0.0049 -0.7198
   62CHL1   C18 7021   4.041   2.585   9.499 -0.3961  0.2589  0.6633
   62CHL1  H18A 7022   4.049   2.633   9.599  2.3235 -1.1528  1.2015
   62CHL1  H18B 7023   4.146   2.581   9.464 -0.4331 -0.5306  0.6228
   62CHL1  H18C 7024   3.984   2.653   9.431  0.2898 -1.1091 -1.3702
   62CHL1   C12 7025   3.852   2.453   9.576 -0.2682 -0.4808 -0.1748
   62CHL1  H12A 7026   3.790   2.533   9.531  1.2041 -0.7351 -2.8050
   62CHL1  H12B 7027   3.807   2.351   9.570 -0.4329 -0.4453  0.3183
   62CHL1   C11 7028   3.873   2.487   9.732 -0.2457  0.0759 -0.2919
   62CHL1  H11A 7029   3.913   2.591   9.733  0.0741  0.0047 -2.0350
   62CHL1  H11B 7030   3.773   2.478   9.780 -1.0241  1.7261 -1.4708
   62CHL1    C9 7031   3.970   2.387   9.811  0.8991 -0.6326  0.2277
   62CHL1    H9 7032   3.931   2.284   9.798  1.5849 -0.9055  0.2776
   62CHL1   C10 7033   3.985   2.410   9.970 -1.1469  0.2702  0.0094
   62CHL1   C19 7034   4.011   2.564   9.995 -0.7567  0.0032  0.0944
   62CHL1  H19A 7035   4.080   2.599   9.915  0.6217 -2.2276  0.2096
   62CHL1  H19B 7036   3.907   2.603   9.992 -1.0756 -0.8651 -0.8973
   62CHL1  H19C 7037   4.056   2.587  10.094  0.9331 -1.7109 -0.1986
   62CHL1    C1 7038   3.858   2.362  10.045  0.1990 -0.0117  0.0759
   62CHL1   H1A 7039   3.774   2.428  10.012 -0.2480 -1.6561 -2.3913
   62CHL1   H1B 7040   3.820   2.262  10.015 -0.0618  0.6601 -1.9749
   62CHL1    C2 7041   3.868   2.375  10.194 -0.7737 -0.7205  0.0100
   62CHL1   H2A 7042   3.769   2.348  10.238 -0.3656 -0.4442  1.1316
   62CHL1   H2B 7043   3.887   2.477  10.234 -0.0773 -1.5537  1.9350
   62CHL1   C20 7044   3.934   2.442   9.243 -0.3448  0.2636 -0.6527
   62CHL1   H20 7045   3.982   2.543   9.242  1.9232 -0.7387  0.4538
   62CHL1   C21 7046   3.778   2.462   9.241 -0.0749 -0.0764 -0.3206
   62CHL1  H21A 7047   3.733   2.518   9.156 -0.8909 -0.9647 -0.4964
   62CHL1  H21B 7048   3.753   2.513   9.337 -2.1391 -0.5917 -0.5251
   62CHL1  H21C 7049   3.743   2.357   9.240 -1.1845  0.2499  1.0373
   62CHL1   C22 7050   3.973   2.368   9.116 -0.1212  0.0098  0.5351
   62CHL1  H22A 7051   4.083   2.352   9.118  0.1349  1.5234  0.0968
   62CHL1  H22B 7052   3.916   2.274   9.106  1.3126 -0.6811 -2.2067
   62CHL1   C23 7053   3.957   2.460   8.992 -0.1791 -0.4365 -0.0777
   62CHL1  H23A 7054   3.850   2.478   8.969  0.1790 -0.3048 -1.7246
   62CHL1  H23B 7055   4.012   2.553   9.017  1.6027 -1.1554 -1.1713
   62CHL1   C24 7056   4.045   2.414   8.873 -0.1881  0.2088 -0.2769
   62CHL1  H24A 7057   4.151   2.407   8.905 -0.3528  0.3705  0.3163
   62CHL1  H24B 7058   4.003   2.320   8.831 -2.1835  0.4450  1.0272
   62CHL1   C25 7059   4.065   2.500   8.743 -0.0492  0.0215 -1.0363
   62CHL1   H25 7060   3.963   2.518   8.702 -1.6309 -1.2275  1.9969
   62CHL1   C26 7061   4.131   2.634   8.768 -1.0107 -0.2337  0.0348
   62CHL1  H26A 7062   4.060   2.709   8.809 -0.2053 -0.1115  1.2516
   62CHL1  H26B 7063   4.225   2.628   8.826 -0.1049 -0.9290 -1.4212
   62CHL1  H26C 7064   4.150   2.687   8.672  1.1249 -0.5224  0.2534
   62CHL1   C27 7065   4.142   2.419   8.637  0.1158 -0.1545  0.0115
   62CHL1  H27A 7066   4.153   2.480   8.544 -2.1362  1.5890  0.7920
   62CHL1  H27B 7067   4.236   2.375   8.676  0.2820 -0.3674 -0.6111
   62CHL1  H27C 7068   4.076   2.334   8.608  0.3741 -0.0550 -0.9214
   63CHL1    C3 7069   6.102   4.259  10.400  0.1957 -0.6402 -0.4394
   63CHL1    H3 7070   6.003   4.294  10.435  0.9983 -1.0749  2.6264
   63CHL1    O3 7071   6.182   4.245  10.517 -0.0245  0.1609  0.3858
   63CHL1   H3' 7072   6.168   4.155  10.546  1.7891 -0.5067 -0.6558
   63CHL1    C4 7073   6.084   4.122  10.345 -0.5933 -0.8915  0.0741
   63CHL1   H4A 7074   6.187   4.084  10.325  0.4767  1.4378  0.8875
   63CHL1   H4B 7075   6.036   4.057  10.422 -0.1466 -0.0731  1.0531
   63CHL1    C5 7076   6.009   4.123  10.216  0.4077 -0.1079  0.9589
   63CHL1    C6 7077   5.914   4.037  10.195  0.5585 -0.0709 -0.0793
   63CHL1    H6 7078   5.888   3.965  10.274 -0.9015 -0.6814 -1.0800
   63CHL1    C7 7079   5.840   4.018  10.061 -0.1463  0.2989  0.0708
   63CHL1   H7A 7080   5.843   3.909  10.044  0.8390  0.2784  0.3249
   63CHL1   H7B 7081   5.735   4.056  10.066 -0.2547  0.1988 -1.2011
   63CHL1    C8 7082   5.904   4.092   9.937 -0.4328 -0.6203 -0.7329
   63CHL1    H8 7083   5.988   4.026   9.905  1.1180  0.6246  0.5869
   63CHL1   C14 7084   5.811   4.109   9.823  0.3979  0.2721  0.0752
   63CHL1   H14 7085   5.734   4.172   9.872 -1.7584 -0.1479 -2.5578
   63CHL1   C15 7086   5.740   3.979   9.767  0.0134  0.0497  0.0175
   63CHL1  H15A 7087   5.814   3.902   9.736 -1.7702 -1.8193  0.1437
   63CHL1  H15B 7088   5.657   3.938   9.830  0.6100 -1.6733 -0.2685
   63CHL1   C16 7089   5.668   4.026   9.639 -0.7720 -0.1364  0.0062
   63CHL1  H16A 7090   5.678   3.937   9.574  2.2734 -0.4025  0.7052
   63CHL1  H16B 7091   5.561   4.051   9.655 -0.8142 -0.5923  0.4491
   63CHL1   C17 7092   5.738   4.160   9.601  0.2735  0.0908  0.4940
   63CHL1   H17 7093   5.660   4.237   9.621 -0.2520  0.3592 -2.1801
   63CHL1   C13 7094   5.860   4.185   9.695  0.1213 -0.6530 -0.7021
   63CHL1   C18 7095   5.987   4.110   9.642  0.0464  0.3303  0.0158
   63CHL1  H18A 7096   5.959   4.021   9.582  1.5714 -1.1419  1.3883
   63CHL1  H18B 7097   6.035   4.174   9.566 -2.5352  1.5286 -0.7435
   63CHL1  H18C 7098   6.060   4.087   9.722 -0.1409 -0.4929 -0.0378
   63CHL1   C12 7099   5.886   4.333   9.751  0.2822  0.6324  0.8389
   63CHL1  H12A 7100   5.928   4.404   9.676  4.2274 -1.7185  0.5174
   63CHL1  H12B 7101   5.787   4.368   9.785 -2.0252 -2.2027 -2.2958
   63CHL1   C11 7102   5.992   4.330   9.865  0.0275 -0.3929 -0.1447
   63CHL1  H11A 7103   6.087   4.293   9.819  1.3466  2.0717  0.4065
   63CHL1  H11B 7104   6.000   4.435   9.898  1.9986  0.6144 -3.3216
   63CHL1    C9 7105   5.951   4.231   9.983  0.4403  0.0138  0.6294
   63CHL1    H9 7106   5.861   4.286  10.017  0.9125  1.7598 -0.8260
   63CHL1   C10 7107   6.051   4.223  10.104  0.0050  0.1780  0.1942
   63CHL1   C19 7108   6.197   4.196  10.048  0.9055 -0.5775 -0.3484
   63CHL1  H19A 7109   6.262   4.145  10.123  1.7614 -1.8720 -1.9188
   63CHL1  H19B 7110   6.202   4.113   9.974 -0.6927 -0.6236 -0.4357
   63CHL1  H19C 7111   6.248   4.286  10.007  0.9637 -1.0845 -1.4209
   63CHL1    C1 7112   6.052   4.361  10.175  0.0467 -0.2022 -0.9171
   63CHL1   H1A 7113   6.079   4.440  10.103 -0.2891  0.2397 -0.5697
   63CHL1   H1B 7114   5.952   4.388  10.217  0.9843  1.0894  0.6097
   63CHL1    C2 7115   6.145   4.363  10.300  0.4553 -0.3477 -0.8670
   63CHL1   H2A 7116   6.154   4.463  10.346 -0.6223  0.4478 -2.3035
   63CHL1   H2B 7117   6.248   4.342  10.265  0.9917  0.3761  0.2242
   63CHL1   C20 7118   5.763   4.170   9.449  0.7500 -1.2034  0.4876
   63CHL1   H20 7119   5.836   4.089   9.427  0.5923 -1.5252  1.1290
   63CHL1   C21 7120   5.829   4.296   9.400 -0.3753 -0.2513 -0.8318
   63CHL1  H21A 7121   5.752   4.376   9.395  0.0219  0.2550  0.5938
   63CHL1  H21B 7122   5.860   4.287   9.293 -0.1208  1.0749 -0.8946
   63CHL1  H21C 7123   5.914   4.329   9.463 -0.0665 -1.0182 -0.8418
   63CHL1   C22 7124   5.638   4.134   9.362  0.2807  0.4589  0.1244
   63CHL1  H22A 7125   5.587   4.042   9.398 -0.8027  1.3958  1.0565
   63CHL1  H22B 7126   5.562   4.214   9.372  0.6826  0.8943 -0.2640
   63CHL1   C23 7127   5.676   4.132   9.217  0.7237  0.0935 -0.4144
   63CHL1  H23A 7128   5.699   4.234   9.180 -1.8825  0.3273 -1.6418
   63CHL1  H23B 7129   5.762   4.062   9.206 -0.8155 -2.0660  0.5225
   63CHL1   C24 7130   5.562   4.076   9.137  0.1769 -0.2090 -0.1576
   63CHL1  H24A 7131   5.553   3.968   9.160 -0.0314 -0.1255  0.1653
   63CHL1  H24B 7132   5.474   4.139   9.161 -0.2076 -0.7254 -0.1892
   63CHL1   C25 7133   5.572   4.084   8.987  0.2412 -0.6066 -0.0443
   63CHL1   H25 7134   5.672   4.058   8.946 -0.2026 -0.9283 -0.9649
   63CHL1   C26 7135   5.467   4.001   8.914 -0.5710 -0.3673  0.6969
   63CHL1  H26A 7136   5.370   4.049   8.941 -0.2158  0.7658  0.0325
   63CHL1  H26B 7137   5.481   4.012   8.804  1.5555  0.0442  0.9588
   63CHL1  H26C 7138   5.460   3.894   8.944  0.5791 -0.4623  0.6789
   63CHL1   C27 7139   5.540   4.223   8.932 -0.3939 -0.0484  0.3821
   63CHL1  H27A 7140   5.445   4.268   8.968 -1.3910 -0.3510 -1.7345
   63CHL1  H27B 7141   5.622   4.298   8.942 -0.6803  0.7008 -2.0770
   63CHL1  H27C 7142   5.517   4.211   8.824  1.5052 -0.2401 -0.0403
   64CHL1    C3 7143   5.381   3.728  10.201  0.4895 -0.0285 -0.1019
   64CHL1    H3 7144   5.353   3.629  10.244 -0.6723  0.6737  0.7993
   64CHL1    O3 7145   5.394   3.829  10.292 -0.6480 -0.8136  0.2840
   64CHL1   H3' 7146   5.444   3.895  10.243 -1.3419 -0.3678  0.1629
   64CHL1    C4 7147   5.509   3.718  10.123 -0.5712 -0.6814 -0.0543
   64CHL1   H4A 7148   5.528   3.816  10.074  1.7562 -1.6112 -1.1542
   64CHL1   H4B 7149   5.595   3.714  10.194  0.4136 -1.2567 -1.2431
   64CHL1    C5 7150   5.507   3.620  10.008  0.5247  0.4596 -0.1266
   64CHL1    C6 7151   5.589   3.517   9.996  0.9209  0.5582 -0.1740
   64CHL1    H6 7152   5.667   3.513  10.074  1.9610  1.8878 -1.0799
   64CHL1    C7 7153   5.587   3.416   9.892 -0.0314  0.2099  0.4248
   64CHL1   H7A 7154   5.686   3.387   9.850  1.9271  3.1595  2.6576
   64CHL1   H7B 7155   5.536   3.323   9.926  0.0624 -0.5375 -1.3623
   64CHL1    C8 7156   5.490   3.452   9.773 -0.8755  0.1063  1.1900
   64CHL1    H8 7157   5.544   3.524   9.709 -1.2984 -0.0215  0.6760
   64CHL1   C14 7158   5.462   3.332   9.687 -0.0138 -0.6288  0.6254
   64CHL1   H14 7159   5.407   3.254   9.744 -0.2863 -2.6049 -2.1725
   64CHL1   C15 7160   5.586   3.257   9.634 -0.0765 -0.3657 -0.0802
   64CHL1  H15A 7161   5.652   3.335   9.589 -0.6792 -0.6970 -1.6059
   64CHL1  H15B 7162   5.628   3.193   9.713 -1.9154 -1.0931  0.3513
   64CHL1   C16 7163   5.533   3.169   9.517 -0.2081 -0.3388 -0.3718
   64CHL1  H16A 7164   5.608   3.185   9.437  2.7942  0.9812  2.4689
   64CHL1  H16B 7165   5.531   3.066   9.559  0.8978  0.5356  2.0537
   64CHL1   C17 7166   5.387   3.219   9.494  0.0446  0.0423  1.0131
   64CHL1   H17 7167   5.322   3.157   9.559 -3.1032  2.9992  0.9635
   64CHL1   C13 7168   5.381   3.362   9.556 -1.1306  0.2593  0.5446
   64CHL1   C18 7169   5.451   3.468   9.463 -0.2151 -0.0585  0.3269
   64CHL1  H18A 7170   5.377   3.528   9.405 -3.3034 -2.4303  1.4907
   64CHL1  H18B 7171   5.506   3.545   9.520 -0.8856  0.0084  0.8954
   64CHL1  H18C 7172   5.516   3.416   9.390 -0.4683 -0.5379  0.4339
   64CHL1   C12 7173   5.242   3.419   9.606 -0.0264  0.9059  0.2100
   64CHL1  H12A 7174   5.180   3.427   9.515  2.9304 -1.1703 -2.2155
   64CHL1  H12B 7175   5.195   3.355   9.684  1.1662  0.8520  0.9081
   64CHL1   C11 7176   5.271   3.545   9.690 -0.0720 -1.5314  0.1085
   64CHL1  H11A 7177   5.322   3.616   9.621  3.0262 -2.2657  1.4763
   64CHL1  H11B 7178   5.185   3.599   9.735  2.1440  1.5653  1.0074
   64CHL1    C9 7179   5.357   3.517   9.822 -0.7331 -0.1447  0.0123
   64CHL1    H9 7180   5.300   3.443   9.882 -1.3081  0.6532  0.4776
   64CHL1   C10 7181   5.381   3.634   9.914  0.4615 -0.0311  0.0302
   64CHL1   C19 7182   5.415   3.756   9.824 -0.9977 -0.6384  0.2228
   64CHL1  H19A 7183   5.460   3.839   9.883 -0.5261  0.2924 -1.3875
   64CHL1  H19B 7184   5.497   3.739   9.751  0.4542  3.4259  0.6439
   64CHL1  H19C 7185   5.331   3.797   9.765 -0.0666 -0.0016 -0.7119
   64CHL1    C1 7186   5.253   3.662   9.995  0.1026  0.3264 -0.4603
   64CHL1   H1A 7187   5.160   3.676   9.937 -0.0896  1.1846  0.0386
   64CHL1   H1B 7188   5.236   3.568  10.052 -0.7784  0.1526 -0.9891
   64CHL1    C2 7189   5.264   3.770  10.107  0.3340  0.2497  0.1814
   64CHL1   H2A 7190   5.167   3.762  10.161  0.1449  0.5065 -0.1174
   64CHL1   H2B 7191   5.286   3.870  10.065 -0.9201  0.2938 -0.3907
   64CHL1   C20 7192   5.331   3.205   9.346  0.0759 -0.0624  0.6578
   64CHL1   H20 7193   5.348   3.294   9.280  0.6622 -0.6844 -0.0616
   64CHL1   C21 7194   5.179   3.185   9.357 -0.1914 -0.1290  0.0587
   64CHL1  H21A 7195   5.168   3.101   9.429 -0.0599  0.1422  0.3921
   64CHL1  H21B 7196   5.143   3.151   9.257 -1.9412  1.5086  0.0729
   64CHL1  H21C 7197   5.121   3.273   9.390  4.2597  3.6496 -1.2241
   64CHL1   C22 7198   5.403   3.090   9.266 -0.2996 -0.0429  0.2233
   64CHL1  H22A 7199   5.513   3.103   9.277 -0.5965  2.3316  1.0661
   64CHL1  H22B 7200   5.366   2.999   9.317 -2.1513 -0.7413 -2.1628
   64CHL1   C23 7201   5.376   3.095   9.113  0.4384  0.7241  0.1161
   64CHL1  H23A 7202   5.269   3.070   9.094  0.2505  0.5447  1.3379
   64CHL1  H23B 7203   5.395   3.199   9.079  1.1900  0.4113 -0.4552
   64CHL1   C24 7204   5.459   2.997   9.029  0.9378  0.2504 -0.5259
   64CHL1  H24A 7205   5.559   3.019   9.073  0.3531  3.4930 -0.5386
   64CHL1  H24B 7206   5.420   2.895   9.044  0.3437 -0.0838 -3.6656
   64CHL1   C25 7207   5.461   3.027   8.880 -0.3478 -0.0583  0.0386
   64CHL1   H25 7208   5.477   3.136   8.866 -3.8753  0.4344 -1.0652
   64CHL1   C26 7209   5.560   2.939   8.805  0.6693 -0.1111 -0.8862
   64CHL1  H26A 7210   5.662   2.953   8.848  0.1813  0.2240  0.1983
   64CHL1  H26B 7211   5.533   2.832   8.819 -0.5851  0.4330  1.2460
   64CHL1  H26C 7212   5.558   2.959   8.696 -0.2124  0.0523 -0.8421
   64CHL1   C27 7213   5.319   3.009   8.816 -0.3902  0.0711 -0.0804
   64CHL1  H27A 7214   5.334   3.047   8.712  0.6426 -0.6797 -0.2113
   64CHL1  H27B 7215   5.271   2.909   8.817 -0.1200 -0.0632  1.5064
   64CHL1  H27C 7216   5.249   3.083   8.860 -0.7070  0.2806 -0.9135
   65CHL1    C3 7217   6.528   0.351  10.141 -0.5487  0.2616  0.7940
   65CHL1    H3 7218   6.474   0.448  10.137 -0.1625  0.5138  1.5627
   65CHL1    O3 7219   6.560   0.317  10.275 -0.2776  0.4061 -0.4401
   65CHL1   H3' 7220   6.553   0.221  10.276 -0.6529  0.3846  2.2665
   65CHL1    C4 7221   6.438   0.242  10.079 -0.1545  0.0777 -0.1392
   65CHL1   H4A 7222   6.478   0.140  10.098 -2.0095 -0.9551 -1.4665
   65CHL1   H4B 7223   6.340   0.245  10.132 -0.0583  1.0818  0.0125
   65CHL1    C5 7224   6.401   0.274   9.934 -0.7573 -0.0945 -0.0706
   65CHL1    C6 7225   6.269   0.265   9.886  0.3921 -0.4964 -0.9103
   65CHL1    H6 7226   6.190   0.237   9.958  0.3833 -0.2170 -0.8100
   65CHL1    C7 7227   6.226   0.289   9.747  0.0035 -0.1892 -0.2849
   65CHL1   H7A 7228   6.153   0.212   9.715 -1.5933  1.3666 -0.5582
   65CHL1   H7B 7229   6.166   0.383   9.756  1.1826  0.4422  1.7069
   65CHL1    C8 7230   6.349   0.301   9.656 -0.4275 -0.3047 -0.4805
   65CHL1    H8 7231   6.385   0.200   9.628  1.2858  0.3165 -0.6215
   65CHL1   C14 7232   6.304   0.369   9.522  0.2870 -0.8383 -1.0387
   65CHL1   H14 7233   6.280   0.473   9.550 -0.2049 -0.9901 -0.8870
   65CHL1   C15 7234   6.180   0.319   9.441  0.2016 -0.1613 -0.3616
   65CHL1  H15A 7235   6.191   0.209   9.429 -1.3082 -0.5956  1.6554
   65CHL1  H15B 7236   6.081   0.338   9.489  0.9207 -0.2964  1.2356
   65CHL1   C16 7237   6.197   0.381   9.297  0.1101 -0.4513  0.2085
   65CHL1  H16A 7238   6.194   0.290   9.234 -0.6365 -1.4498  1.6238
   65CHL1  H16B 7239   6.114   0.454   9.279  1.5347  1.2898  0.4467
   65CHL1   C17 7240   6.335   0.457   9.301  0.6921  0.2805  0.1629
   65CHL1   H17 7241   6.321   0.560   9.339  1.6955  0.0798  1.1491
   65CHL1   C13 7242   6.411   0.378   9.416  0.6239 -0.1830 -0.5736
   65CHL1   C18 7243   6.458   0.236   9.363  0.3609  0.7866 -0.3386
   65CHL1  H18A 7244   6.515   0.173   9.434  2.5921  1.3687 -1.5370
   65CHL1  H18B 7245   6.376   0.178   9.315  0.4013  0.5264 -0.0989
   65CHL1  H18C 7246   6.528   0.253   9.279  1.0246  1.9004  0.4183
   65CHL1   C12 7247   6.524   0.460   9.477  0.3280  0.0232 -0.0566
   65CHL1  H12A 7248   6.618   0.481   9.422  1.0235 -0.3696  0.9607
   65CHL1  H12B 7249   6.488   0.560   9.510  2.8381  0.7244  0.7773
   65CHL1   C11 7250   6.580   0.395   9.609 -0.6492  0.8376 -0.3755
   65CHL1  H11A 7251   6.631   0.301   9.580 -1.7103 -0.1193  0.7719
   65CHL1  H11B 7252   6.650   0.471   9.650 -1.3351  0.3830  1.7640
   65CHL1    C9 7253   6.470   0.372   9.715  1.2297  0.2724 -0.2770
   65CHL1    H9 7254   6.431   0.474   9.738  2.2427  0.4506  0.7666
   65CHL1   C10 7255   6.521   0.318   9.847  0.5367 -0.3928  0.1405
   65CHL1   C19 7256   6.599   0.183   9.822  0.2473  0.4056  0.3128
   65CHL1  H19A 7257   6.623   0.136   9.920 -2.0355 -2.5951 -0.4066
   65CHL1  H19B 7258   6.542   0.108   9.763  1.8935 -1.4972  1.0420
   65CHL1  H19C 7259   6.694   0.204   9.768  0.3961 -0.9970 -0.0048
   65CHL1    C1 7260   6.623   0.416   9.913  0.0562  0.0918  0.5126
   65CHL1   H1A 7261   6.722   0.424   9.863 -0.3121  0.4734 -0.1633
   65CHL1   H1B 7262   6.582   0.518   9.927 -1.2181 -0.0262 -1.8797
   65CHL1    C2 7263   6.661   0.383  10.059 -0.3968  0.2278 -0.7220
   65CHL1   H2A 7264   6.717   0.462  10.113  1.4170 -0.4748 -1.4823
   65CHL1   H2B 7265   6.732   0.297  10.060 -0.3467  0.2706  0.1158
   65CHL1   C20 7266   6.389   0.467   9.159 -0.4602  0.1627 -0.0413
   65CHL1   H20 7267   6.412   0.365   9.124  0.1621 -0.1457  1.2198
   65CHL1   C21 7268   6.523   0.542   9.147  0.3680  0.9221  0.1756
   65CHL1  H21A 7269   6.513   0.648   9.180 -3.0218  0.8573 -0.3319
   65CHL1  H21B 7270   6.562   0.541   9.043  0.9281 -3.0454  0.2506
   65CHL1  H21C 7271   6.601   0.488   9.205  0.1205 -1.8156 -1.8358
   65CHL1   C22 7272   6.291   0.516   9.059  0.1328 -0.1866 -0.1382
   65CHL1  H22A 7273   6.194   0.463   9.073  0.9041 -1.2385  1.5584
   65CHL1  H22B 7274   6.276   0.623   9.087  1.6264  0.0163 -0.0159
   65CHL1   C23 7275   6.329   0.495   8.910 -0.5091 -0.7144 -0.3348
   65CHL1  H23A 7276   6.250   0.544   8.849 -2.0194 -2.2262  0.3374
   65CHL1  H23B 7277   6.432   0.524   8.881 -0.9443 -1.3377 -2.7746
   65CHL1   C24 7278   6.330   0.346   8.865  0.0267  0.2578 -0.2683
   65CHL1  H24A 7279   6.402   0.296   8.934 -1.8271 -1.2772  0.6485
   65CHL1  H24B 7280   6.228   0.305   8.879  0.2708  0.7722  5.2609
   65CHL1   C25 7281   6.377   0.317   8.718  0.3509  0.4320  0.2335
   65CHL1   H25 7282   6.480   0.360   8.714  1.0727 -1.1928  0.4424
   65CHL1   C26 7283   6.401   0.175   8.693  0.3912  0.1898  0.0717
   65CHL1  H26A 7284   6.498   0.153   8.743 -0.2102 -0.8954  0.8159
   65CHL1  H26B 7285   6.322   0.116   8.746  2.4281 -1.2641  1.6773
   65CHL1  H26C 7286   6.414   0.154   8.585 -0.4243  1.3366 -0.2628
   65CHL1   C27 7287   6.293   0.374   8.600 -0.6313  0.1790 -0.7737
   65CHL1  H27A 7288   6.188   0.336   8.602  0.3581 -2.8814 -1.7372
   65CHL1  H27B 7289   6.306   0.484   8.596  1.1274 -0.0332 -1.9018
   65CHL1  H27C 7290   6.331   0.340   8.501 -1.9962 -1.6937 -0.7175
   66CHL1    C3 7291   5.806   0.197  10.397  0.3035  0.5135  0.0271
   66CHL1    H3 7292   5.891   0.130  10.374  0.0697  0.7615 -1.6383
   66CHL1    O3 7293   5.802   0.223  10.540  0.4548  0.5229 -0.4722
   66CHL1   H3' 7294   5.723   0.277  10.551 -0.6576 -1.1260 -0.0166
   66CHL1    C4 7295   5.814   0.329  10.326  0.5940 -0.2872  0.6423
   66CHL1   H4A 7296   5.727   0.389  10.358  0.5775 -0.1588  0.3486
   66CHL1   H4B 7297   5.897   0.395  10.359 -1.0235  0.8497  2.6923
   66CHL1    C5 7298   5.801   0.306  10.178 -0.4480  0.4367  0.5500
   66CHL1    C6 7299   5.892   0.346  10.092 -0.3134 -0.0671  0.6680
   66CHL1    H6 7300   5.981   0.400  10.130 -0.1415  0.6865 -0.7347
   66CHL1    C7 7301   5.873   0.333   9.942  0.3212 -0.0222 -0.5761
   66CHL1   H7A 7302   5.925   0.408   9.879  0.4157 -0.2105 -0.7214
   66CHL1   H7B 7303   5.913   0.239   9.901 -0.7239 -0.6714 -0.1548
   66CHL1    C8 7304   5.726   0.322   9.894 -0.5199  0.6259 -0.0439
   66CHL1    H8 7305   5.670   0.413   9.923 -1.0687  0.2906 -0.0214
   66CHL1   C14 7306   5.718   0.292   9.743 -0.4282  0.0584 -0.1329
   66CHL1   H14 7307   5.774   0.199   9.721 -1.0654 -0.7357  1.4678
   66CHL1   C15 7308   5.796   0.396   9.649  0.4880  0.5571  0.8236
   66CHL1  H15A 7309   5.762   0.498   9.676 -0.8170 -0.0009  1.3979
   66CHL1  H15B 7310   5.906   0.401   9.649  0.7047 -2.1696 -0.7454
   66CHL1   C16 7311   5.729   0.370   9.506  0.1644  0.3322 -0.2757
   66CHL1  H16A 7312   5.683   0.463   9.466 -0.2465 -0.2362 -1.1663
   66CHL1  H16B 7313   5.795   0.321   9.431  1.3328  2.0218 -0.3953
   66CHL1   C17 7314   5.610   0.268   9.531  0.2313  0.0145  0.2931
   66CHL1   H17 7315   5.652   0.169   9.502 -0.6622 -0.2639 -0.0890
   66CHL1   C13 7316   5.582   0.274   9.688 -0.0980 -0.0618  0.1708
   66CHL1   C18 7317   5.498   0.401   9.705 -0.4114 -0.3216 -0.0946
   66CHL1  H18A 7318   5.524   0.490   9.643 -3.1913  0.5413 -0.1282
   66CHL1  H18B 7319   5.392   0.369   9.694 -0.7098  1.4576 -3.7362
   66CHL1  H18C 7320   5.514   0.443   9.806  0.2137 -2.0654  0.5663
   66CHL1   C12 7321   5.525   0.151   9.759  0.1315  0.1533 -0.8897
   66CHL1  H12A 7322   5.420   0.128   9.730 -1.3997  2.0271  2.5834
   66CHL1  H12B 7323   5.582   0.057   9.740 -3.2276 -1.9420 -1.5261
   66CHL1   C11 7324   5.527   0.169   9.912  0.0941 -0.0261 -0.6563
   66CHL1  H11A 7325   5.448   0.244   9.933  0.9606 -0.0340  3.6397
   66CHL1  H11B 7326   5.505   0.072   9.963  1.1978 -0.7069 -1.4276
   66CHL1    C9 7327   5.666   0.204   9.975  0.2084 -0.0391  1.1027
   66CHL1    H9 7328   5.732   0.117   9.954  0.2365  0.3432 -0.5962
   66CHL1   C10 7329   5.673   0.231  10.128  0.2451 -0.1241  0.3615
   66CHL1   C19 7330   5.543   0.312  10.169 -0.4791 -0.1179 -0.4125
   66CHL1  H19A 7331   5.538   0.350  10.273  1.6968  0.4331 -0.4503
   66CHL1  H19B 7332   5.542   0.412  10.121  0.3262 -0.0363 -0.2836
   66CHL1  H19C 7333   5.445   0.262  10.153 -1.3287  0.2487  2.9326
   66CHL1    C1 7334   5.665   0.095  10.206 -0.1582  0.1070  0.1378
   66CHL1   H1A 7335   5.564   0.052  10.189 -0.8488  2.0269 -0.8937
   66CHL1   H1B 7336   5.742   0.023  10.171  1.4362  1.0031  1.6604
   66CHL1    C2 7337   5.683   0.117  10.355 -0.1353 -0.6465  0.0935
   66CHL1   H2A 7338   5.697   0.021  10.408  2.0787  0.4352  1.5983
   66CHL1   H2B 7339   5.592   0.171  10.391 -0.9352 -0.8855 -1.4648
   66CHL1   C20 7340   5.502   0.299   9.425  0.4681  0.3026 -0.0930
   66CHL1   H20 7341   5.463   0.402   9.445 -1.3323 -0.6455  1.5856
   66CHL1   C21 7342   5.388   0.191   9.443 -0.0169 -0.7050  0.1547
   66CHL1  H21A 7343   5.295   0.209   9.385 -1.2710 -1.2188  1.9421
   66CHL1  H21B 7344   5.345   0.194   9.545  1.5645 -0.2683  0.8502
   66CHL1  H21C 7345   5.424   0.087   9.426 -0.0751 -1.3255  3.2244
   66CHL1   C22 7346   5.559   0.294   9.274  1.2250  0.2624  0.9541
   66CHL1  H22A 7347   5.662   0.325   9.247  0.5889  0.5139 -1.4663
   66CHL1  H22B 7348   5.565   0.186   9.248  1.0927  0.0319  1.8649
   66CHL1   C23 7349   5.460   0.358   9.173 -0.9486 -0.1882 -0.1878
   66CHL1  H23A 7350   5.357   0.318   9.183 -2.1745  2.3239 -1.6757
   66CHL1  H23B 7351   5.448   0.469   9.178  0.7435  0.0320 -0.3258
   66CHL1   C24 7352   5.508   0.342   9.033 -0.0985  0.0811 -0.2246
   66CHL1  H24A 7353   5.602   0.400   9.026 -0.3110  0.5827  0.8306
   66CHL1  H24B 7354   5.531   0.235   9.018 -0.6474 -0.4940  2.5444
   66CHL1   C25 7355   5.426   0.396   8.916 -0.2676  1.0767  0.0353
   66CHL1   H25 7356   5.373   0.490   8.944 -2.3914  0.6440 -2.2201
   66CHL1   C26 7357   5.521   0.413   8.797 -0.3592  0.5445 -0.1982
   66CHL1  H26A 7358   5.580   0.506   8.812 -0.3792  0.3256  1.4504
   66CHL1  H26B 7359   5.587   0.325   8.781  1.8342  2.1710 -0.5057
   66CHL1  H26C 7360   5.463   0.440   8.707  0.0275 -1.5323 -1.1370
   66CHL1   C27 7361   5.304   0.298   8.892 -0.4555 -0.1026 -0.2308
   66CHL1  H27A 7362   5.244   0.286   8.985 -0.9200  0.4903 -0.4506
   66CHL1  H27B 7363   5.242   0.329   8.806  1.1298  0.8794 -1.0760
   66CHL1  H27C 7364   5.353   0.199   8.878  0.7114  0.1657  1.5937
   67CHL1    C3 7365   2.379   2.135   9.995  0.6143 -0.4067  0.3203
   67CHL1    H3 7366   2.419   2.032   9.989  0.1869 -0.6180  0.9633
   67CHL1    O3 7367   2.383   2.175  10.135 -0.5600  0.1623  0.2248
   67CHL1   H3' 7368   2.349   2.264  10.145 -0.4447  0.0590  1.8991
   67CHL1    C4 7369   2.459   2.236   9.916 -0.7476  0.0167 -0.0726
   67CHL1   H4A 7370   2.411   2.337   9.916 -1.4926 -0.3293  0.1653
   67CHL1   H4B 7371   2.564   2.241   9.954  0.0063 -2.9552 -1.4909
   67CHL1    C5 7372   2.469   2.190   9.770 -0.2578 -0.2041 -0.4277
   67CHL1    C6 7373   2.580   2.180   9.700 -0.8998  0.9048 -0.1916
   67CHL1    H6 7374   2.675   2.202   9.750 -0.4340 -0.1909 -0.5674
   67CHL1    C7 7375   2.583   2.164   9.544 -0.2987  0.0317 -0.9250
   67CHL1   H7A 7376   2.649   2.234   9.489 -1.3020  1.7272 -0.0647
   67CHL1   H7B 7377   2.647   2.074   9.533  0.5103  0.0130  2.5111
   67CHL1    C8 7378   2.445   2.149   9.483 -0.6733 -0.5925 -0.4309
   67CHL1    H8 7379   2.403   2.249   9.459 -1.5863 -0.9958 -0.5505
   67CHL1   C14 7380   2.455   2.058   9.363  0.5302 -0.1880  0.3496
   67CHL1   H14 7381   2.473   1.959   9.411  0.1065 -0.5788 -0.2999
   67CHL1   C15 7382   2.578   2.087   9.266 -0.4459  0.6748  0.6973
   67CHL1  H15A 7383   2.581   2.195   9.238  0.7396  0.8811  1.5123
   67CHL1  H15B 7384   2.664   2.037   9.315 -2.0986 -1.0867  1.9246
   67CHL1   C16 7385   2.540   2.010   9.131 -0.5384 -1.1080 -0.2496
   67CHL1  H16A 7386   2.551   2.077   9.044  2.0081 -2.0079 -0.7343
   67CHL1  H16B 7387   2.603   1.919   9.116  0.5096 -0.6089  0.8666
   67CHL1   C17 7388   2.394   1.960   9.160  0.3111  0.5443  0.7995
   67CHL1   H17 7389   2.398   1.856   9.199 -0.9479 -0.7533 -2.2281
   67CHL1   C13 7390   2.331   2.043   9.275 -0.0664 -0.0136 -0.4897
   67CHL1   C18 7391   2.284   2.179   9.217 -0.2229 -0.0237  0.1426
   67CHL1  H18A 7392   2.368   2.208   9.150  0.5569 -2.2431  0.0968
   67CHL1  H18B 7393   2.192   2.166   9.157 -0.6544  0.9531  0.5691
   67CHL1  H18C 7394   2.280   2.263   9.290 -0.0038 -0.4508  0.6532
   67CHL1   C12 7395   2.234   1.972   9.364  0.2712 -0.1121 -0.2623
   67CHL1  H12A 7396   2.135   1.964   9.316  0.4092  1.3405 -0.8341
   67CHL1  H12B 7397   2.263   1.867   9.384 -0.6217  0.0249  2.0500
   67CHL1   C11 7398   2.221   2.044   9.501 -0.4553  0.2307 -0.0376
   67CHL1  H11A 7399   2.169   2.138   9.475 -1.3675 -0.1222  0.4556
   67CHL1  H11B 7400   2.160   1.981   9.570 -0.4213  2.4454  2.1869
   67CHL1    C9 7401   2.351   2.079   9.575  0.1735 -0.3383 -1.0983
   67CHL1    H9 7402   2.373   1.974   9.606 -1.9054 -0.0961  1.5857
   67CHL1   C10 7403   2.328   2.164   9.705 -0.6305 -0.0247 -0.3106
   67CHL1   C19 7404   2.251   2.298   9.682 -0.5614 -0.9141 -0.0614
   67CHL1  H19A 7405   2.234   2.356   9.775 -0.1009 -0.3883 -0.2995
   67CHL1  H19B 7406   2.313   2.362   9.616 -2.6490  2.5168  1.0548
   67CHL1  H19C 7407   2.150   2.269   9.646  0.0328  0.5200 -3.2323
   67CHL1    C1 7408   2.230   2.084   9.809 -0.0730 -0.9610  0.0278
   67CHL1   H1A 7409   2.126   2.074   9.771 -0.2174  1.8901 -0.5098
   67CHL1   H1B 7410   2.276   1.983   9.823  5.0185  1.1315  0.6884
   67CHL1    C2 7411   2.236   2.142   9.952  0.3231  0.7359  0.1802
   67CHL1   H2A 7412   2.173   2.079  10.018 -0.5203  0.9127 -0.4452
   67CHL1   H2B 7413   2.190   2.244   9.957 -1.5705 -0.1228  1.6486
   67CHL1   C20 7414   2.318   1.947   9.024 -0.0848 -0.0330  0.4216
   67CHL1   H20 7415   2.312   2.049   8.980  0.8724  0.0710  0.5009
   67CHL1   C21 7416   2.174   1.896   9.041  0.7571  0.1196  0.0052
   67CHL1  H21A 7417   2.120   1.977   9.094  0.3403 -0.0950 -0.0881
   67CHL1  H21B 7418   2.168   1.819   9.121  1.7049  0.2167  0.1871
   67CHL1  H21C 7419   2.117   1.874   8.948 -0.2912  0.2839  0.5938
   67CHL1   C22 7420   2.392   1.864   8.917 -0.6301  0.1452 -0.2997
   67CHL1  H22A 7421   2.493   1.908   8.903  0.1152 -1.2205  0.5593
   67CHL1  H22B 7422   2.404   1.758   8.951  0.5018  0.5427  0.6121
   67CHL1   C23 7423   2.314   1.868   8.775 -0.0697 -0.0598  0.4339
   67CHL1  H23A 7424   2.210   1.831   8.781  0.6747 -2.4312 -0.0269
   67CHL1  H23B 7425   2.315   1.975   8.747 -2.1437 -0.4206 -1.2111
   67CHL1   C24 7426   2.397   1.779   8.679 -0.0990 -0.0027 -0.0109
   67CHL1  H24A 7427   2.506   1.793   8.694 -0.1757 -0.2128  0.8321
   67CHL1  H24B 7428   2.384   1.674   8.714 -2.7736  0.2402 -0.1101
   67CHL1   C25 7429   2.361   1.796   8.534  0.2573  0.3246  0.6459
   67CHL1   H25 7430   2.254   1.771   8.514  0.7479 -0.9527 -0.5665
   67CHL1   C26 7431   2.397   1.936   8.468  0.5975  0.0300 -0.2803
   67CHL1  H26A 7432   2.505   1.953   8.486  0.9189  0.1484 -2.1028
   67CHL1  H26B 7433   2.376   1.944   8.359 -2.9509  1.2563  0.3421
   67CHL1  H26C 7434   2.338   2.012   8.524  0.1703 -1.4361  1.3505
   67CHL1   C27 7435   2.430   1.685   8.445 -1.0210 -0.0222  0.5254
   67CHL1  H27A 7436   2.536   1.715   8.437 -0.8174  0.4137  3.6144
   67CHL1  H27B 7437   2.416   1.583   8.485 -1.0742 -0.3431 -0.2874
   67CHL1  H27C 7438   2.373   1.696   8.350 -0.3098  2.4358  0.2991
   68CHL1    C3 7439   0.808   0.279  10.197  0.0948 -0.1360 -0.3894
   68CHL1    H3 7440   0.802   0.389  10.210 -0.4123 -0.3240  1.0398
   68CHL1    O3 7441   0.812   0.235  10.334  0.1286 -0.7254  0.5492
   68CHL1   H3' 7442   0.820   0.140  10.333 -2.3789 -1.0277 -1.3185
   68CHL1    C4 7443   0.694   0.202  10.134  0.2336 -0.6006  0.1850
   68CHL1   H4A 7444   0.692   0.093  10.156  0.6567 -0.6206  0.1312
   68CHL1   H4B 7445   0.594   0.241  10.164 -1.2492 -2.0284 -2.5138
   68CHL1    C5 7446   0.696   0.214   9.984 -0.5679  0.0904  0.4109
   68CHL1    C6 7447   0.580   0.246   9.914  0.1742 -0.2973  0.7926
   68CHL1    H6 7448   0.482   0.252   9.964 -0.6025 -1.4926 -0.5147
   68CHL1    C7 7449   0.574   0.246   9.761  0.7264 -1.0926 -0.2293
   68CHL1   H7A 7450   0.473   0.218   9.724 -0.4079  1.8197  0.3871
   68CHL1   H7B 7451   0.588   0.343   9.709  0.1766  0.1879  1.9249
   68CHL1    C8 7452   0.688   0.164   9.698  0.5079  0.0759  0.1161
   68CHL1    H8 7453   0.663   0.059   9.726 -4.0790  0.7909 -0.4029
   68CHL1   C14 7454   0.685   0.185   9.544 -0.1800 -0.2289 -0.7252
   68CHL1   H14 7455   0.709   0.293   9.534 -0.2235  0.0921  1.8334
   68CHL1   C15 7456   0.560   0.173   9.453  0.2724 -1.1771  0.0636
   68CHL1  H15A 7457   0.503   0.081   9.477  0.7111 -1.7280 -0.9743
   68CHL1  H15B 7458   0.493   0.260   9.472  1.5618 -0.5146  1.7980
   68CHL1   C16 7459   0.617   0.168   9.312 -0.1234 -0.5768  0.6547
   68CHL1  H16A 7460   0.576   0.081   9.258 -0.7828 -0.0991  0.3828
   68CHL1  H16B 7461   0.583   0.253   9.250 -0.9288 -0.8570  0.7043
   68CHL1   C17 7462   0.772   0.164   9.319 -0.1644 -0.5247  0.6702
   68CHL1   H17 7463   0.804   0.270   9.309  2.2612 -1.2555  0.1099
   68CHL1   C13 7464   0.806   0.128   9.468  0.3564  0.8149 -0.3408
   68CHL1   C18 7465   0.802  -0.027   9.479 -0.1005  0.2613 -0.5045
   68CHL1  H18A 7466   0.893  -0.070   9.434 -0.1696  0.4537 -0.8345
   68CHL1  H18B 7467   0.800  -0.051   9.587  0.9462  0.1410 -0.5017
   68CHL1  H18C 7468   0.706  -0.063   9.435  0.0285 -0.5576 -0.1298
   68CHL1   C12 7469   0.937   0.192   9.528 -0.0665 -0.7217 -0.6622
   68CHL1  H12A 7470   1.026   0.148   9.477 -0.8544 -0.4414 -2.3603
   68CHL1  H12B 7471   0.949   0.301   9.511 -0.7450 -0.9973 -3.4201
   68CHL1   C11 7472   0.949   0.166   9.678 -0.2316 -0.4828 -0.2503
   68CHL1  H11A 7473   0.966   0.056   9.682  1.9042 -0.1785  0.4288
   68CHL1  H11B 7474   1.040   0.212   9.721 -1.2959  1.6385 -0.1155
   68CHL1    C9 7475   0.820   0.211   9.759 -0.1788 -0.0738 -1.2141
   68CHL1    H9 7476   0.819   0.320   9.737 -1.5695 -0.3155 -2.4682
   68CHL1   C10 7477   0.826   0.177   9.907  0.4868 -0.1714  0.6212
   68CHL1   C19 7478   0.846   0.027   9.937  0.2426 -0.5537  0.6543
   68CHL1  H19A 7479   0.840  -0.003  10.044 -0.9825 -1.5162  0.3321
   68CHL1  H19B 7480   0.793  -0.048   9.874 -1.8749  0.8526  0.6528
   68CHL1  H19C 7481   0.953   0.007   9.918  0.5617 -1.3530  2.9739
   68CHL1    C1 7482   0.943   0.251   9.983 -0.1611  0.2748 -0.1534
   68CHL1   H1A 7483   1.039   0.207   9.950  0.6442  1.5548  0.3886
   68CHL1   H1B 7484   0.950   0.355   9.944 -0.7611  0.2993 -0.2058
   68CHL1    C2 7485   0.942   0.236  10.139  0.1467 -0.1617  0.0390
   68CHL1   H2A 7486   1.027   0.293  10.182  2.0807 -1.4334 -1.8694
   68CHL1   H2B 7487   0.956   0.128  10.162  0.1569 -0.2706 -0.4658
   68CHL1   C20 7488   0.836   0.105   9.193 -0.2190  0.2116 -0.7717
   68CHL1   H20 7489   0.802  -0.001   9.190 -0.3563  0.2239  0.1044
   68CHL1   C21 7490   0.983   0.101   9.201  0.6787 -0.0929 -0.4388
   68CHL1  H21A 7491   1.021   0.099   9.097 -0.7759 -0.5860 -0.9772
   68CHL1  H21B 7492   1.009   0.008   9.256 -0.2929 -1.1512 -1.7078
   68CHL1  H21C 7493   1.029   0.189   9.251  2.3695 -1.3943  0.4219
   68CHL1   C22 7494   0.787   0.166   9.066 -0.0202 -0.0822  0.7423
   68CHL1  H22A 7495   0.686   0.213   9.068 -0.3665 -0.6974  3.7541
   68CHL1  H22B 7496   0.853   0.251   9.039  0.1576 -0.4038  0.1715
   68CHL1   C23 7497   0.795   0.059   8.952 -0.4722  0.0722  0.4551
   68CHL1  H23A 7498   0.883  -0.008   8.967 -0.2593 -0.2013 -1.7301
   68CHL1  H23B 7499   0.709  -0.007   8.971 -0.8506 -0.0173 -1.4229
   68CHL1   C24 7500   0.818   0.112   8.804 -0.4451  0.5442  0.5902
   68CHL1  H24A 7501   0.745   0.190   8.774  0.4871  2.2065  2.4522
   68CHL1  H24B 7502   0.921   0.153   8.804  1.0472 -2.6540 -2.3986
   68CHL1   C25 7503   0.834   0.003   8.688 -0.1227 -0.0189  0.1006
   68CHL1   H25 7504   0.900  -0.079   8.723  1.5705  0.3674 -1.9567
   68CHL1   C26 7505   0.698  -0.057   8.643  0.2173  0.0448 -1.0035
   68CHL1  H26A 7506   0.698  -0.146   8.575  2.4950 -0.5297 -0.3393
   68CHL1  H26B 7507   0.637  -0.089   8.730  0.2235  0.6088 -0.7904
   68CHL1  H26C 7508   0.640   0.027   8.600  0.5027  1.4887  1.3129
   68CHL1   C27 7509   0.914   0.067   8.583  0.3108 -0.5195 -0.2748
   68CHL1  H27A 7510   0.885   0.172   8.559 -2.1873 -1.2240 -0.6111
   68CHL1  H27B 7511   1.024   0.066   8.598  0.2813  1.7319  0.4388
   68CHL1  H27C 7512   0.897  -0.001   8.497  1.3855 -1.9945  0.6398
   69CHL1    C3 7513   2.432   1.350   6.795  0.0878 -0.9051 -0.9335
   69CHL1    H3 7514   2.482   1.257   6.829  1.1737  0.2271  0.7397
   69CHL1    O3 7515   2.372   1.342   6.665  0.4577 -0.2553  0.1915
   69CHL1   H3' 7516   2.328   1.427   6.659 -0.1548 -0.4764  1.2019
   69CHL1    C4 7517   2.320   1.404   6.885  0.7887  0.1692 -0.5759
   69CHL1   H4A 7518   2.294   1.509   6.859 -0.9312 -0.1094 -0.1222
   69CHL1   H4B 7519   2.235   1.333   6.884  1.2914 -0.4929  0.8444
   69CHL1    C5 7520   2.367   1.422   7.029  0.6669  0.0770  0.2647
   69CHL1    C6 7521   2.303   1.355   7.130 -0.0704 -0.0194  0.6299
   69CHL1    H6 7522   2.221   1.286   7.104 -0.5662  1.1020 -0.9424
   69CHL1    C7 7523   2.354   1.353   7.270 -0.1672  0.5209 -0.0774
   69CHL1   H7A 7524   2.266   1.385   7.330  0.6240 -2.6675  3.0967
   69CHL1   H7B 7525   2.374   1.249   7.305 -3.1896 -1.2346 -2.8436
   69CHL1    C8 7526   2.472   1.447   7.301 -0.7895 -0.4238  0.0813
   69CHL1    H8 7527   2.435   1.552   7.313 -1.9690 -0.8940  0.7388
   69CHL1   C14 7528   2.547   1.400   7.427  0.1158 -0.0702  0.1173
   69CHL1   H14 7529   2.593   1.301   7.405 -0.1433 -0.1502 -0.0754
   69CHL1   C15 7530   2.463   1.372   7.557 -0.0614 -0.6553 -0.3041
   69CHL1  H15A 7531   2.406   1.461   7.590 -1.0390 -1.6822  0.8655
   69CHL1  H15B 7532   2.398   1.281   7.562  0.4393 -1.0069 -0.0932
   69CHL1   C16 7533   2.579   1.369   7.662 -0.0587 -0.0222  0.0828
   69CHL1  H16A 7534   2.552   1.447   7.735 -1.2860 -1.5844  1.3856
   69CHL1  H16B 7535   2.591   1.270   7.712  1.3591  1.1218  2.1160
   69CHL1   C17 7536   2.716   1.418   7.595  1.2891 -0.0196 -0.2983
   69CHL1   H17 7537   2.772   1.326   7.571  2.8991  0.1886  2.3195
   69CHL1   C13 7538   2.666   1.489   7.468 -0.4866 -0.2496 -0.0188
   69CHL1   C18 7539   2.610   1.631   7.507  0.6827  0.2843  0.3657
   69CHL1  H18A 7540   2.698   1.688   7.543  1.5333 -0.4081 -0.5648
   69CHL1  H18B 7541   2.579   1.686   7.416  2.0062  0.4394 -0.0068
   69CHL1  H18C 7542   2.538   1.636   7.591 -0.5761 -0.8583 -0.6056
   69CHL1   C12 7543   2.759   1.487   7.353  0.7113  0.2131  0.8882
   69CHL1  H12A 7544   2.848   1.552   7.369  1.8250 -1.6211  2.7906
   69CHL1  H12B 7545   2.797   1.383   7.352 -0.6264 -0.2941  0.3403
   69CHL1   C11 7546   2.696   1.525   7.215  0.5187 -0.6796  0.2243
   69CHL1  H11A 7547   2.685   1.636   7.225  1.6611 -0.4362 -1.0086
   69CHL1  H11B 7548   2.772   1.509   7.137  1.0660  1.0047  0.3595
   69CHL1    C9 7549   2.567   1.449   7.187  0.2865  0.2312  0.6601
   69CHL1    H9 7550   2.598   1.343   7.174 -1.0654 -0.2670  1.2876
   69CHL1   C10 7551   2.504   1.488   7.052  0.0205 -0.9742 -0.2208
   69CHL1   C19 7552   2.471   1.641   7.057  0.3051  0.1078  0.4334
   69CHL1  H19A 7553   2.388   1.665   7.127  0.2990 -0.7943  0.7514
   69CHL1  H19B 7554   2.566   1.696   7.072  0.9725 -1.3947  2.2227
   69CHL1  H19C 7555   2.428   1.675   6.961  0.0455  0.2078  0.5834
   69CHL1    C1 7556   2.609   1.460   6.934  0.9268 -0.0800  0.3088
   69CHL1   H1A 7557   2.671   1.552   6.937 -1.1568  1.4118 -0.0200
   69CHL1   H1B 7558   2.671   1.371   6.955  1.5073  0.2157 -0.1228
   69CHL1    C2 7559   2.545   1.452   6.790 -0.1168  0.3587  0.0303
   69CHL1   H2A 7560   2.611   1.415   6.708 -1.7112  0.8204 -1.5214
   69CHL1   H2B 7561   2.513   1.551   6.751  4.4215  3.0244  2.2605
   69CHL1   C20 7562   2.800   1.495   7.701 -0.3817 -0.8670  0.5441
   69CHL1   H20 7563   2.738   1.584   7.725  0.4070 -0.4166  0.9490
   69CHL1   C21 7564   2.924   1.546   7.642  0.3759  0.1262  0.4374
   69CHL1  H21A 7565   2.901   1.630   7.574  1.5013 -0.4093 -0.6517
   69CHL1  H21B 7566   2.988   1.470   7.592  1.9186 -0.4578  3.0721
   69CHL1  H21C 7567   2.992   1.585   7.721 -1.2127  2.0731  0.9238
   69CHL1   C22 7568   2.816   1.412   7.828  0.3507  0.5723 -0.8528
   69CHL1  H22A 7569   2.713   1.380   7.853 -0.8898  3.7238 -1.4614
   69CHL1  H22B 7570   2.882   1.328   7.798 -0.6275  0.3216 -2.3998
   69CHL1   C23 7571   2.868   1.496   7.946  0.1810  0.4363 -0.6786
   69CHL1  H23A 7572   2.940   1.573   7.909 -0.9416  2.4811  1.1000
   69CHL1  H23B 7573   2.797   1.563   7.999  3.5452  0.8209  3.9555
   69CHL1   C24 7574   2.931   1.418   8.068 -0.4771 -0.4935 -0.9674
   69CHL1  H24A 7575   2.849   1.361   8.117 -0.8243 -0.5890 -1.6480
   69CHL1  H24B 7576   3.004   1.341   8.033  2.1308  1.3827  0.0209
   69CHL1   C25 7577   3.013   1.512   8.167 -0.2778 -0.1879 -0.0880
   69CHL1   H25 7578   3.092   1.569   8.114 -0.0109 -0.6947 -0.2372
   69CHL1   C26 7579   2.911   1.609   8.235 -0.2221 -0.7864  0.4746
   69CHL1  H26A 7580   2.893   1.685   8.156  2.3410 -0.1797  0.3937
   69CHL1  H26B 7581   2.811   1.565   8.256 -1.7520  1.5300 -1.5393
   69CHL1  H26C 7582   2.956   1.649   8.328  1.7482  2.0046 -1.5361
   69CHL1   C27 7583   3.100   1.431   8.266 -0.1280  0.0599  0.0885
   69CHL1  H27A 7584   3.185   1.379   8.216  0.2015 -1.7279  2.3237
   69CHL1  H27B 7585   3.148   1.503   8.335 -0.4546  0.5864 -0.2274
   69CHL1  H27C 7586   3.034   1.363   8.325  2.6619 -1.9610  1.1281
   70CHL1    C3 7587   5.115   4.774   7.037  0.3923  0.5199  0.3163
   70CHL1    H3 7588   5.126   4.885   7.039  1.1840  0.4429  0.4564
   70CHL1    O3 7589   5.127   4.726   6.902  0.3327 -0.1407 -0.3225
   70CHL1   H3' 7590   5.080   4.642   6.901 -1.3006  0.7303 -0.8478
   70CHL1    C4 7591   5.236   4.725   7.111  0.2855  0.2968 -0.3085
   70CHL1   H4A 7592   5.237   4.614   7.104  2.1984  0.1939  0.7671
   70CHL1   H4B 7593   5.321   4.765   7.051 -0.5838  0.6217 -1.3358
   70CHL1    C5 7594   5.240   4.758   7.259 -0.6355  0.1636  0.0989
   70CHL1    C6 7595   5.348   4.818   7.317 -0.7361 -0.0434  0.2739
   70CHL1    H6 7596   5.426   4.858   7.251  0.1123 -0.1262  1.1973
   70CHL1    C7 7597   5.367   4.842   7.461 -0.1378  0.1021  0.1917
   70CHL1   H7A 7598   5.469   4.820   7.498  0.1767  2.0465  0.6088
   70CHL1   H7B 7599   5.337   4.945   7.489  0.4948  0.7388 -1.3571
   70CHL1    C8 7600   5.257   4.767   7.542 -0.6158  0.7075 -0.3350
   70CHL1    H8 7601   5.291   4.661   7.542 -0.0550  0.8857 -0.3821
   70CHL1   C14 7602   5.252   4.812   7.686 -0.1020  0.3112 -0.3425
   70CHL1   H14 7603   5.207   4.914   7.677  0.8244  0.6232 -1.6063
   70CHL1   C15 7604   5.387   4.821   7.763 -0.2979 -0.3587  0.0908
   70CHL1  H15A 7605   5.451   4.730   7.760  0.3226  0.0319  1.0423
   70CHL1  H15B 7606   5.450   4.907   7.733 -0.8184  0.6350  1.6954
   70CHL1   C16 7607   5.328   4.838   7.906 -0.4441 -0.6621 -1.0244
   70CHL1  H16A 7608   5.375   4.761   7.970 -1.4147 -1.4808 -1.2781
   70CHL1  H16B 7609   5.342   4.935   7.958 -1.2921 -1.0922  0.0352
   70CHL1   C17 7610   5.173   4.809   7.907 -0.1382 -0.1359 -0.7117
   70CHL1   H17 7611   5.122   4.907   7.898 -0.6853 -0.5097 -1.8088
   70CHL1   C13 7612   5.154   4.736   7.773  0.2477 -0.6982 -0.0955
   70CHL1   C18 7613   5.197   4.594   7.790 -0.8625  0.3827 -0.0458
   70CHL1  H18A 7614   5.211   4.558   7.686  1.6300  1.2263 -0.0610
   70CHL1  H18B 7615   5.298   4.592   7.836 -0.3895 -0.2974 -1.0704
   70CHL1  H18C 7616   5.136   4.534   7.860  1.1490 -3.2184 -1.1664
   70CHL1   C12 7617   5.015   4.746   7.708 -0.4295  0.5165 -0.6334
   70CHL1  H12A 7618   4.952   4.676   7.765  1.5575 -0.3504  0.6220
   70CHL1  H12B 7619   4.978   4.849   7.724  1.6582  1.0942  1.0367
   70CHL1   C11 7620   5.016   4.706   7.559  0.9683  0.1091  0.4563
   70CHL1  H11A 7621   4.996   4.597   7.560 -3.4293  0.7631  0.4582
   70CHL1  H11B 7622   4.926   4.747   7.509 -0.0379 -3.4569 -0.9962
   70CHL1    C9 7623   5.119   4.776   7.474 -0.6827 -0.1505 -0.5060
   70CHL1    H9 7624   5.096   4.883   7.457  2.6096  0.3710 -2.6040
   70CHL1   C10 7625   5.118   4.712   7.329  0.6852 -0.0806 -0.3134
   70CHL1   C19 7626   5.125   4.555   7.344  0.3934 -0.0574 -0.6955
   70CHL1  H19A 7627   5.183   4.528   7.434  1.3387  3.6197 -0.0664
   70CHL1  H19B 7628   5.024   4.510   7.358  0.0665  1.4077  2.7081
   70CHL1  H19C 7629   5.161   4.496   7.257 -0.4407 -0.8013 -0.5616
   70CHL1    C1 7630   4.989   4.750   7.256 -0.5472 -0.3617  0.1122
   70CHL1   H1A 7631   4.901   4.697   7.297 -1.1127  0.5586  0.1007
   70CHL1   H1B 7632   4.979   4.861   7.262 -1.3781 -0.5067  2.4761
   70CHL1    C2 7633   4.990   4.722   7.105  0.5392 -1.0541 -0.2301
   70CHL1   H2A 7634   4.909   4.775   7.049  1.8120  1.8688  0.4979
   70CHL1   H2B 7635   4.980   4.612   7.094 -1.6801 -1.1157  1.5617
   70CHL1   C20 7636   5.132   4.734   8.037  0.3381 -0.2922  0.0275
   70CHL1   H20 7637   5.184   4.636   8.043  0.7477  0.0104  1.9939
   70CHL1   C21 7638   4.981   4.708   8.044  0.2916  0.2366 -0.1585
   70CHL1  H21A 7639   4.922   4.796   8.010 -0.4991  0.5803  1.9128
   70CHL1  H21B 7640   4.957   4.668   8.145  0.4767 -4.3128 -1.6978
   70CHL1  H21C 7641   4.941   4.635   7.972  0.0328  0.5360 -0.3209
   70CHL1   C22 7642   5.182   4.815   8.170  0.4088  0.1841  0.1838
   70CHL1  H22A 7643   5.279   4.867   8.156  0.0478  1.0272  0.6949
   70CHL1  H22B 7644   5.114   4.901   8.188 -0.0814  0.1317 -1.3042
   70CHL1   C23 7645   5.185   4.734   8.295 -0.1978  0.1353  0.0703
   70CHL1  H23A 7646   5.090   4.698   8.338 -0.0543  0.6419  0.8246
   70CHL1  H23B 7647   5.251   4.651   8.262  0.6195  0.4939  0.7573
   70CHL1   C24 7648   5.259   4.815   8.404  0.0492 -0.2044  0.3710
   70CHL1  H24A 7649   5.365   4.824   8.371  0.1449 -5.1095 -1.3485
   70CHL1  H24B 7650   5.218   4.918   8.411  1.3842  0.3294  0.7875
   70CHL1   C25 7651   5.262   4.748   8.544  0.7017 -0.3339  0.3362
   70CHL1   H25 7652   5.156   4.722   8.565  0.2793  1.1538  0.1026
   70CHL1   C26 7653   5.341   4.619   8.539 -0.3890  0.1224  0.7941
   70CHL1  H26A 7654   5.345   4.560   8.633 -1.6461 -1.1807  0.0703
   70CHL1  H26B 7655   5.292   4.556   8.462 -1.1773  2.3087 -0.6164
   70CHL1  H26C 7656   5.443   4.645   8.505 -1.2894  0.5375 -1.7957
   70CHL1   C27 7657   5.306   4.844   8.651 -0.4645 -0.9602 -0.1949
   70CHL1  H27A 7658   5.416   4.861   8.644 -0.4737 -0.5605  0.5065
   70CHL1  H27B 7659   5.244   4.936   8.651 -0.6337 -1.0398  1.3881
   70CHL1  H27C 7660   5.285   4.805   8.753 -0.2404  0.9954  0.6608
   71CHL1    C3 7661   2.803   1.113   6.588  0.3933  0.6302 -0.2426
   71CHL1    H3 7662   2.821   1.222   6.574  3.6899  0.1480 -0.5142
   71CHL1    O3 7663   2.745   1.068   6.468 -0.3089  0.5279 -0.3263
   71CHL1   H3' 7664   2.700   0.989   6.499  0.7698 -0.6873 -1.6902
   71CHL1    C4 7665   2.934   1.030   6.614  0.0922 -0.0307 -0.4473
   71CHL1   H4A 7666   2.924   0.920   6.604  2.7649 -0.4649  0.7523
   71CHL1   H4B 7667   3.011   1.067   6.543  2.2810 -1.9184  0.8228
   71CHL1    C5 7668   2.988   1.056   6.753  0.2290  0.1515  0.1433
   71CHL1    C6 7669   3.113   1.093   6.773 -0.0813 -0.2436 -0.4831
   71CHL1    H6 7670   3.171   1.112   6.681 -2.5740 -1.8550 -2.5405
   71CHL1    C7 7671   3.177   1.122   6.908  0.8082 -0.0738 -0.7384
   71CHL1   H7A 7672   3.285   1.100   6.921  0.6082 -0.4151  0.4418
   71CHL1   H7B 7673   3.184   1.232   6.917 -4.8623  0.4452  2.0786
   71CHL1    C8 7674   3.089   1.057   7.032 -0.2558 -0.4038  0.8448
   71CHL1    H8 7675   3.113   0.949   7.028  1.2043 -0.0615 -0.8820
   71CHL1   C14 7676   3.133   1.117   7.165  0.1462  0.7148  0.5754
   71CHL1   H14 7677   3.103   1.223   7.148  2.5112  0.9320 -3.4059
   71CHL1   C15 7678   3.284   1.124   7.199  0.1120 -0.4449  0.2845
   71CHL1  H15A 7679   3.335   1.027   7.182  0.4416 -0.2578  0.2000
   71CHL1  H15B 7680   3.344   1.206   7.154  1.9517 -0.9380  1.7420
   71CHL1   C16 7681   3.282   1.135   7.352 -0.0892 -0.0664  0.3437
   71CHL1  H16A 7682   3.332   1.041   7.386  1.9661  0.4983 -0.9526
   71CHL1  H16B 7683   3.359   1.207   7.386  1.1632 -2.2536  2.5349
   71CHL1   C17 7684   3.136   1.140   7.395  0.0496 -0.3335 -0.4566
   71CHL1   H17 7685   3.096   1.243   7.408 -2.0861 -1.2669  0.9606
   71CHL1   C13 7686   3.054   1.070   7.282 -0.1058 -0.8287 -0.5730
   71CHL1   C18 7687   3.057   0.916   7.295 -0.3919 -0.2088 -0.3477
   71CHL1  H18A 7688   2.994   0.880   7.379 -0.7121  1.6698  0.2648
   71CHL1  H18B 7689   3.023   0.880   7.195  2.4415 -1.7267 -0.8725
   71CHL1  H18C 7690   3.162   0.878   7.297 -0.6600 -0.9610  0.0064
   71CHL1   C12 7691   2.905   1.115   7.259 -0.0405  0.0172 -0.7110
   71CHL1  H12A 7692   2.843   1.089   7.347  1.1805 -1.5517 -0.2631
   71CHL1  H12B 7693   2.904   1.226   7.253 -0.6445  0.0262 -0.5564
   71CHL1   C11 7694   2.847   1.067   7.125  0.0387 -0.2975 -0.0860
   71CHL1  H11A 7695   2.840   0.956   7.133  2.0311 -0.7057 -2.6782
   71CHL1  H11B 7696   2.755   1.129   7.113  1.0540  1.2029 -0.3901
   71CHL1    C9 7697   2.939   1.092   7.010  0.5242 -0.4609  0.5262
   71CHL1    H9 7698   2.940   1.203   7.010 -1.9476 -0.3553  1.3760
   71CHL1   C10 7699   2.886   1.038   6.866 -0.4028 -0.1596 -0.5621
   71CHL1   C19 7700   2.862   0.889   6.882  0.3732  0.7169  0.6820
   71CHL1  H19A 7701   2.783   0.872   6.959 -0.7501 -0.1056 -0.5958
   71CHL1  H19B 7702   2.820   0.841   6.791  0.6252 -0.7311  1.3018
   71CHL1  H19C 7703   2.947   0.830   6.922 -1.0883 -1.7174  0.4044
   71CHL1    C1 7704   2.759   1.112   6.827  0.4474  0.4941 -0.2655
   71CHL1   H1A 7705   2.679   1.088   6.901  1.1563 -1.2351 -0.0140
   71CHL1   H1B 7706   2.782   1.220   6.824  1.5254  0.3498  1.5208
   71CHL1    C2 7707   2.700   1.074   6.694  0.0539 -0.0227  0.1468
   71CHL1   H2A 7708   2.610   1.136   6.675  0.6993  1.1818  0.9109
   71CHL1   H2B 7709   2.679   0.965   6.695 -0.2706  0.0387 -0.0843
   71CHL1   C20 7710   3.131   1.089   7.539  0.5370  0.0076 -0.2744
   71CHL1   H20 7711   3.166   0.983   7.548 -1.1250 -0.5642 -0.3227
   71CHL1   C21 7712   2.987   1.085   7.584  0.0382  0.2418  0.5144
   71CHL1  H21A 7713   2.942   1.185   7.566 -0.3527  0.2882  1.6904
   71CHL1  H21B 7714   2.988   1.062   7.692 -0.1543  1.6180  0.8214
   71CHL1  H21C 7715   2.921   1.010   7.535  0.1061 -0.5900  1.6711
   71CHL1   C22 7716   3.217   1.165   7.635  0.4234  0.4184  0.9117
   71CHL1  H22A 7717   3.316   1.196   7.596  0.6602  1.6143  2.3768
   71CHL1  H22B 7718   3.165   1.264   7.638 -1.3581 -0.3940 -0.7983
   71CHL1   C23 7719   3.235   1.105   7.775 -0.0507  0.1686  0.6283
   71CHL1  H23A 7720   3.142   1.085   7.831 -0.1933 -1.0036  0.0049
   71CHL1  H23B 7721   3.279   1.005   7.758  0.4861  0.2012  1.7106
   71CHL1   C24 7722   3.338   1.191   7.836  0.2047  0.6299 -0.5438
   71CHL1  H24A 7723   3.430   1.216   7.779 -1.0008  2.1782 -1.9074
   71CHL1  H24B 7724   3.292   1.291   7.846 -0.4785  0.4603 -1.8204
   71CHL1   C25 7725   3.375   1.143   7.980 -0.3526  0.1794 -0.5044
   71CHL1   H25 7726   3.284   1.099   8.026  1.1460 -1.0839  1.4509
   71CHL1   C26 7727   3.481   1.032   7.978  0.2756  0.7380  0.3718
   71CHL1  H26A 7728   3.517   0.987   8.073  1.5123  1.2842  0.1879
   71CHL1  H26B 7729   3.428   0.950   7.925 -0.3657  1.4056 -0.0365
   71CHL1  H26C 7730   3.565   1.060   7.911 -0.5982 -2.5168 -2.3250
   71CHL1   C27 7731   3.433   1.253   8.070  0.1841 -0.1955 -0.0872
   71CHL1  H27A 7732   3.536   1.291   8.050  0.4980  1.0545  3.2639
   71CHL1  H27B 7733   3.373   1.345   8.086 -0.4677 -0.4509 -0.9533
   71CHL1  H27C 7734   3.454   1.211   8.170 -1.5169 -1.7263 -0.3470
   72CHL1    C3 7735   0.138   4.494   7.077  0.4996  0.3868 -0.2727
   72CHL1    H3 7736   0.047   4.550   7.109 -0.0020 -1.4684  1.8085
   72CHL1    O3 7737   0.159   4.505   6.941 -0.3458 -0.2495  0.0799
   72CHL1   H3' 7738   0.239   4.456   6.920 -0.4855 -0.0537 -0.9672
   72CHL1    C4 7739   0.264   4.548   7.150 -0.4515 -0.2853 -0.1904
   72CHL1   H4A 7740   0.357   4.490   7.135  0.4229  0.5348  1.7073
   72CHL1   H4B 7741   0.282   4.653   7.121 -0.7694  0.0021  0.6107
   72CHL1    C5 7742   0.239   4.548   7.297 -0.6203  0.3709 -0.2589
   72CHL1    C6 7743   0.238   4.661   7.365  0.6342  0.1425 -0.9695
   72CHL1    H6 7744   0.262   4.755   7.313 -0.9265  2.2169  1.8044
   72CHL1    C7 7745   0.242   4.660   7.514  0.1685 -0.2336  0.6597
   72CHL1   H7A 7746   0.328   4.722   7.550  1.5253 -0.8102 -1.4091
   72CHL1   H7B 7747   0.149   4.707   7.551 -0.5211 -0.7107 -0.4277
   72CHL1    C8 7748   0.251   4.515   7.580  0.1195 -0.7736 -0.0108
   72CHL1    H8 7749   0.361   4.497   7.575  0.4551  0.7919  0.9349
   72CHL1   C14 7750   0.208   4.528   7.726  0.7562  0.1112 -0.0375
   72CHL1   H14 7751   0.100   4.552   7.713 -0.1389 -3.4658 -0.2724
   72CHL1   C15 7752   0.259   4.645   7.809  0.0382 -0.2755  0.3173
   72CHL1  H15A 7753   0.369   4.644   7.799 -0.0396 -0.7488 -0.5697
   72CHL1  H15B 7754   0.211   4.743   7.783 -0.6438 -0.7004 -0.0698
   72CHL1   C16 7755   0.229   4.603   7.957  0.7501 -0.1854  0.3225
   72CHL1  H16A 7756   0.329   4.604   8.006  1.1309  0.2511 -0.4371
   72CHL1  H16B 7757   0.165   4.681   8.004  0.2932  0.5132 -1.3852
   72CHL1   C17 7758   0.154   4.466   7.949  0.2417 -0.4113 -1.3408
   72CHL1   H17 7759   0.048   4.497   7.936  1.4414  5.6021  0.1996
   72CHL1   C13 7760   0.203   4.404   7.815  0.5412  0.2085 -0.1476
   72CHL1   C18 7761   0.343   4.351   7.839 -0.0853  0.5567  0.5750
   72CHL1  H18A 7762   0.400   4.328   7.746  0.3476  1.5680  0.5803
   72CHL1  H18B 7763   0.419   4.421   7.880  1.2370 -0.2541 -0.3790
   72CHL1  H18C 7764   0.351   4.262   7.906  0.3502 -1.0496 -1.5234
   72CHL1   C12 7765   0.123   4.291   7.735 -0.4652 -0.2230  0.0869
   72CHL1  H12A 7766   0.130   4.190   7.781  2.5258  0.1872  0.7237
   72CHL1  H12B 7767   0.021   4.333   7.721  0.4442  1.9447 -0.5583
   72CHL1   C11 7768   0.183   4.278   7.593  0.0817  0.0148  0.7108
   72CHL1  H11A 7769   0.293   4.257   7.594  0.3558  1.4201  1.4547
   72CHL1  H11B 7770   0.128   4.195   7.544  0.4534 -0.6878  1.4497
   72CHL1    C9 7771   0.172   4.409   7.508 -0.7876  0.1630  0.6097
   72CHL1    H9 7772   0.071   4.455   7.514  0.8372  4.0707  0.9286
   72CHL1   C10 7773   0.207   4.404   7.351 -0.4619  0.5916  0.0303
   72CHL1   C19 7774   0.332   4.305   7.333 -0.3251 -0.8134  0.1755
   72CHL1  H19A 7775   0.373   4.305   7.230 -0.8296  1.7285 -0.0703
   72CHL1  H19B 7776   0.415   4.321   7.406 -0.8301  0.7986  0.4123
   72CHL1  H19C 7777   0.290   4.203   7.348 -0.6404 -0.3900  2.5201
   72CHL1    C1 7778   0.094   4.332   7.269  0.5289 -1.0365  0.4013
   72CHL1   H1A 7779   0.081   4.224   7.291 -1.0630 -0.8376  0.5073
   72CHL1   H1B 7780  -0.006   4.372   7.297 -0.3195 -0.5861 -2.9149
   72CHL1    C2 7781   0.113   4.350   7.117  0.1680 -0.3141  0.4993
   72CHL1   H2A 7782   0.028   4.313   7.057  0.3847  0.3448 -0.2271
   72CHL1   H2B 7783   0.198   4.286   7.086 -0.7461 -1.0558 -0.5560
   72CHL1   C20 7784   0.168   4.379   8.075 -0.1388 -0.0016  0.0032
   72CHL1   H20 7785   0.260   4.318   8.074 -0.1391  0.0050 -1.5212
   72CHL1   C21 7786   0.056   4.276   8.085  0.6364  0.2894  0.7760
   72CHL1  H21A 7787   0.083   4.190   8.150 -0.0569  1.0720  2.1377
   72CHL1  H21B 7788   0.048   4.219   7.990 -1.9777  1.4690  0.2193
   72CHL1  H21C 7789  -0.042   4.311   8.124  0.3051 -1.0581  1.2074
   72CHL1   C22 7790   0.189   4.451   8.212 -0.5170  0.2878 -0.3276
   72CHL1  H22A 7791   0.286   4.504   8.209  0.7436 -1.8632  0.2862
   72CHL1  H22B 7792   0.105   4.523   8.223 -0.6300 -0.0247  0.9535
   72CHL1   C23 7793   0.185   4.374   8.345 -0.1815  0.2534 -0.1041
   72CHL1  H23A 7794   0.083   4.330   8.344 -0.4074  0.7553  0.1493
   72CHL1  H23B 7795   0.265   4.297   8.345  1.2080  1.6578  0.6135
   72CHL1   C24 7796   0.190   4.473   8.466 -0.3481  0.4722 -0.0454
   72CHL1  H24A 7797   0.266   4.553   8.457 -1.1212  1.0552 -1.8950
   72CHL1  H24B 7798   0.089   4.521   8.475 -0.6972 -0.5939  2.5788
   72CHL1   C25 7799   0.231   4.401   8.595 -0.0832 -0.3070 -0.2182
   72CHL1   H25 7800   0.314   4.329   8.575  1.7696  1.2498  1.5166
   72CHL1   C26 7801   0.283   4.498   8.702 -0.6785 -0.8279  0.3387
   72CHL1  H26A 7802   0.317   4.458   8.800  0.5539 -1.1518 -0.2044
   72CHL1  H26B 7803   0.366   4.559   8.661 -0.2876 -1.0547  0.7818
   72CHL1  H26C 7804   0.203   4.571   8.724 -0.8136 -0.4154 -1.4030
   72CHL1   C27 7805   0.107   4.322   8.647 -0.8929  0.3372  0.5957
   72CHL1  H27A 7806   0.109   4.280   8.750  3.1525 -1.6084 -0.0852
   72CHL1  H27B 7807   0.017   4.385   8.633 -1.1838 -0.4643 -1.3534
   72CHL1  H27C 7808   0.088   4.234   8.582 -1.0321  0.0540  1.0119
   73CHL1    C3 7809   0.703   1.118   6.959 -0.6410  0.3936 -0.1118
   73CHL1    H3 7810   0.714   1.223   6.993 -0.6761 -0.4368  2.6775
   73CHL1    O3 7811   0.718   1.105   6.824 -0.0205 -0.4987  0.7085
   73CHL1   H3' 7812   0.769   1.024   6.817 -0.5054 -1.0782  3.0845
   73CHL1    C4 7813   0.826   1.040   7.025 -0.3007  0.7420  0.4418
   73CHL1   H4A 7814   0.810   0.935   6.993 -1.7973  0.4829  1.8851
   73CHL1   H4B 7815   0.917   1.080   6.975  0.0341 -0.5539 -0.0307
   73CHL1    C5 7816   0.823   1.050   7.178 -0.4471  0.4239  0.0481
   73CHL1    C6 7817   0.931   1.102   7.242  1.2832 -0.0125 -0.1764
   73CHL1    H6 7818   1.017   1.132   7.180  1.0911 -0.8611 -0.8810
   73CHL1    C7 7819   0.945   1.112   7.390  0.2499  0.0311  0.0789
   73CHL1   H7A 7820   1.032   1.056   7.430 -0.0236  0.3742  1.1787
   73CHL1   H7B 7821   0.954   1.221   7.413 -2.8624  0.0420  1.8182
   73CHL1    C8 7822   0.818   1.060   7.466 -0.1443 -0.1246 -0.0090
   73CHL1    H8 7823   0.826   0.950   7.476  1.0714 -0.0879 -0.3681
   73CHL1   C14 7824   0.807   1.125   7.601  0.4185  0.6130  0.6900
   73CHL1   H14 7825   0.793   1.229   7.566 -2.0057 -0.0644 -0.6072
   73CHL1   C15 7826   0.935   1.123   7.681  0.0438  0.1990 -0.2728
   73CHL1  H15A 7827   0.971   1.019   7.699 -1.2352 -0.3941 -1.0612
   73CHL1  H15B 7828   1.023   1.180   7.643  0.1754 -0.6812 -1.3262
   73CHL1   C16 7829   0.880   1.178   7.818  0.6687  0.0860  0.5281
   73CHL1  H16A 7830   0.926   1.105   7.888 -1.1544 -0.5099  1.1758
   73CHL1  H16B 7831   0.922   1.277   7.844  0.6579  0.1840  0.1822
   73CHL1   C17 7832   0.727   1.176   7.814  1.1721 -0.6054  0.1471
   73CHL1   H17 7833   0.691   1.276   7.781 -0.4180 -1.6226 -1.3953
   73CHL1   C13 7834   0.690   1.086   7.696 -0.1494 -0.6063  0.4430
   73CHL1   C18 7835   0.703   0.936   7.724  0.6417 -0.0797  0.0403
   73CHL1  H18A 7836   0.624   0.890   7.788  0.0521 -0.5609 -1.0177
   73CHL1  H18B 7837   0.688   0.890   7.624  0.2705  1.3881 -0.6087
   73CHL1  H18C 7838   0.798   0.909   7.774  0.4966  0.1720  0.4640
   73CHL1   C12 7839   0.559   1.126   7.622  0.5780 -0.7836  0.0348
   73CHL1  H12A 7840   0.466   1.095   7.672  0.1330 -1.3803 -1.1274
   73CHL1  H12B 7841   0.556   1.236   7.606  0.8669 -0.7767  0.0052
   73CHL1   C11 7842   0.563   1.071   7.480  0.2705  0.2718  0.6453
   73CHL1  H11A 7843   0.531   0.965   7.489 -1.8960  0.7250 -0.9394
   73CHL1  H11B 7844   0.483   1.109   7.413 -1.2625 -2.4060  0.7978
   73CHL1    C9 7845   0.689   1.087   7.391  0.3005  0.0890  0.4777
   73CHL1    H9 7846   0.683   1.197   7.378  0.0775 -0.1101 -1.3024
   73CHL1   C10 7847   0.690   1.019   7.244 -0.5826  0.6103  0.1023
   73CHL1   C19 7848   0.684   0.861   7.252  0.0826 -0.7566  0.1451
   73CHL1  H19A 7849   0.771   0.827   7.312  1.0606  2.8220  1.0371
   73CHL1  H19B 7850   0.590   0.824   7.299  0.4453 -1.5543  0.2655
   73CHL1  H19C 7851   0.677   0.821   7.149 -0.4762  0.1114 -0.1644
   73CHL1    C1 7852   0.573   1.086   7.164  0.3187 -0.0905 -0.0495
   73CHL1   H1A 7853   0.477   1.057   7.211  0.3252  0.8091  0.5511
   73CHL1   H1B 7854   0.570   1.197   7.167  2.1761  0.0109 -1.0100
   73CHL1    C2 7855   0.565   1.067   7.012 -0.4836 -0.0784  0.1302
   73CHL1   H2A 7856   0.474   1.118   6.972 -0.6230 -1.0846 -0.9000
   73CHL1   H2B 7857   0.560   0.959   6.985  1.4883  0.4261 -2.7870
   73CHL1   C20 7858   0.668   1.147   7.956 -0.0248  1.0550  0.2023
   73CHL1   H20 7859   0.694   1.045   7.991  0.6218  0.3464 -2.1358
   73CHL1   C21 7860   0.511   1.144   7.941 -0.2848 -0.5122 -0.1550
   73CHL1  H21A 7861   0.478   1.241   7.899  1.3620 -0.6110 -1.7748
   73CHL1  H21B 7862   0.458   1.134   8.039  0.4086 -0.1966  0.2569
   73CHL1  H21C 7863   0.484   1.052   7.885 -1.8044  0.2204 -0.6690
   73CHL1   C22 7864   0.709   1.253   8.061  0.1436 -0.2536  0.9097
   73CHL1  H22A 7865   0.821   1.250   8.062  0.2931  0.5832 -2.2447
   73CHL1  H22B 7866   0.687   1.355   8.023 -1.0448 -0.6823  0.4001
   73CHL1   C23 7867   0.647   1.230   8.201  0.3039  0.7244  0.5739
   73CHL1  H23A 7868   0.537   1.239   8.190  0.5232  1.1612 -1.8170
   73CHL1  H23B 7869   0.676   1.128   8.234  1.1710  0.3464 -1.1821
   73CHL1   C24 7870   0.694   1.338   8.296 -0.2617  0.9999  0.4576
   73CHL1  H24A 7871   0.798   1.310   8.324 -0.0245  2.7009  1.4110
   73CHL1  H24B 7872   0.712   1.436   8.246 -1.8734  1.0391 -0.0943
   73CHL1   C25 7873   0.609   1.359   8.423  0.2454  0.3460 -0.4682
   73CHL1   H25 7874   0.525   1.427   8.396 -1.6256 -1.1834  1.0944
   73CHL1   C26 7875   0.540   1.229   8.472  0.2698  0.1587 -0.1798
   73CHL1  H26A 7876   0.462   1.262   8.544 -2.4672 -4.0608 -0.8394
   73CHL1  H26B 7877   0.489   1.185   8.384 -0.0178 -0.1775  0.1501
   73CHL1  H26C 7878   0.616   1.170   8.528  0.4197  0.4790 -0.0455
   73CHL1   C27 7879   0.687   1.426   8.535  0.4529  0.7911 -0.7073
   73CHL1  H27A 7880   0.765   1.356   8.570  1.5275  2.6159  0.7800
   73CHL1  H27B 7881   0.738   1.515   8.492 -0.8780  2.4291  0.9226
   73CHL1  H27C 7882   0.617   1.470   8.610 -0.3064  0.2860 -1.1090
   74CHL1    C3 7883   5.600   6.348   6.948  0.2111 -0.0056  0.0073
   74CHL1    H3 7884   5.592   6.455   6.977 -0.5085  0.3185 -1.3128
   74CHL1    O3 7885   5.602   6.322   6.810 -0.0851 -0.6305  0.0896
   74CHL1   H3' 7886   5.629   6.230   6.803 -1.1049 -0.9120 -0.4121
   74CHL1    C4 7887   5.726   6.278   7.020  0.1172 -0.2322  0.1042
   74CHL1   H4A 7888   5.732   6.178   6.973  0.3238 -0.8195  1.3177
   74CHL1   H4B 7889   5.816   6.338   6.994  0.0073 -0.6891 -1.3695
   74CHL1    C5 7890   5.719   6.282   7.174  0.6998  0.2337  0.1916
   74CHL1    C6 7891   5.819   6.326   7.243  0.0969 -0.6461 -0.0836
   74CHL1    H6 7892   5.909   6.367   7.196  0.1285 -1.8405 -1.1083
   74CHL1    C7 7893   5.821   6.317   7.393  0.1624  0.3881  0.1753
   74CHL1   H7A 7894   5.920   6.279   7.428 -0.0821 -1.1280 -0.6927
   74CHL1   H7B 7895   5.802   6.421   7.427 -0.2276  1.0754 -1.9785
   74CHL1    C8 7896   5.710   6.224   7.452 -0.1514 -0.7099  0.4041
   74CHL1    H8 7897   5.749   6.122   7.435  4.3955  0.9725 -0.8974
   74CHL1   C14 7898   5.696   6.239   7.600 -0.0602 -0.0928 -0.6887
   74CHL1   H14 7899   5.674   6.347   7.616 -0.3886 -0.2111 -0.3093
   74CHL1   C15 7900   5.823   6.227   7.682  0.3868  0.3045  0.2706
   74CHL1  H15A 7901   5.874   6.132   7.656  0.4538  0.3273  0.3173
   74CHL1  H15B 7902   5.891   6.309   7.649  0.1661  0.2569 -0.3098
   74CHL1   C16 7903   5.770   6.235   7.825  0.0664 -0.2519 -0.1899
   74CHL1  H16A 7904   5.815   6.150   7.881  1.4177 -0.8179 -2.0217
   74CHL1  H16B 7905   5.794   6.332   7.874 -0.4006 -1.0277  1.6601
   74CHL1   C17 7906   5.620   6.210   7.822 -0.2080  0.0572  0.3615
   74CHL1   H17 7907   5.577   6.311   7.839 -1.7588 -0.7353  1.3654
   74CHL1   C13 7908   5.588   6.163   7.676 -0.4935  0.7498  0.1644
   74CHL1   C18 7909   5.615   6.012   7.671  0.6628  0.6819 -0.4010
   74CHL1  H18A 7910   5.623   5.972   7.568  3.2610  0.9246 -0.3718
   74CHL1  H18B 7911   5.711   5.975   7.714 -0.1427 -0.3213  0.6120
   74CHL1  H18C 7912   5.528   5.957   7.714  0.4282  0.7099 -0.8370
   74CHL1   C12 7913   5.458   6.207   7.613 -0.3025 -0.0062 -0.5825
   74CHL1  H12A 7914   5.378   6.143   7.656  0.4799 -0.1811  0.6898
   74CHL1  H12B 7915   5.444   6.316   7.627  0.3823  0.4076 -2.6963
   74CHL1   C11 7916   5.451   6.180   7.460  0.1524 -0.3430 -0.3596
   74CHL1  H11A 7917   5.451   6.069   7.448 -0.0186 -0.4416  0.5247
   74CHL1  H11B 7918   5.358   6.219   7.415  0.3836  0.0320 -0.5212
   74CHL1    C9 7919   5.573   6.251   7.386  0.6780 -0.4209  0.0626
   74CHL1    H9 7920   5.557   6.360   7.397 -1.9178 -0.7713  0.2378
   74CHL1   C10 7921   5.579   6.229   7.234 -0.1095  0.7951  0.1939
   74CHL1   C19 7922   5.569   6.073   7.210  0.4035 -0.1289 -0.0952
   74CHL1  H19A 7923   5.633   6.019   7.283  0.7166 -0.1813 -0.4098
   74CHL1  H19B 7924   5.464   6.052   7.241  0.7228  1.7837  2.6978
   74CHL1  H19C 7925   5.585   6.032   7.108 -0.5985 -2.0009  0.4528
   74CHL1    C1 7926   5.472   6.308   7.157  0.0088  0.2227 -0.2526
   74CHL1   H1A 7927   5.375   6.276   7.200  0.2419 -0.0678  0.0658
   74CHL1   H1B 7928   5.478   6.418   7.171 -1.4961  0.4810 -1.4981
   74CHL1    C2 7929   5.468   6.296   7.003  0.2317  0.4874  0.3375
   74CHL1   H2A 7930   5.388   6.354   6.953  0.0789  1.0088  1.1738
   74CHL1   H2B 7931   5.448   6.189   6.980 -0.2091  0.4324  0.9469
   74CHL1   C20 7932   5.565   6.129   7.943 -0.2677  0.1711 -1.0223
   74CHL1   H20 7933   5.607   6.027   7.951  0.1962  0.4955  2.1666
   74CHL1   C21 7934   5.410   6.119   7.924 -0.4612  0.1360 -0.3108
   74CHL1  H21A 7935   5.362   6.056   8.002 -1.5367  1.6355  0.2742
   74CHL1  H21B 7936   5.410   6.050   7.837  3.0521 -2.4648  1.4812
   74CHL1  H21C 7937   5.371   6.222   7.916 -2.5339 -0.5987 -0.2108
   74CHL1   C22 7938   5.615   6.198   8.080  0.0752 -0.1668  0.2221
   74CHL1  H22A 7939   5.725   6.202   8.073  0.1618 -2.0462 -0.1880
   74CHL1  H22B 7940   5.576   6.302   8.080 -1.0675 -0.5777  0.0852
   74CHL1   C23 7941   5.574   6.134   8.213 -0.2568 -0.8073  0.0534
   74CHL1  H23A 7942   5.602   6.207   8.292 -0.6147  0.5966 -1.0600
   74CHL1  H23B 7943   5.463   6.142   8.211 -0.1310  2.7418 -0.8179
   74CHL1   C24 7944   5.631   5.998   8.245 -0.0095 -0.1481  0.1695
   74CHL1  H24A 7945   5.586   5.933   8.167  0.1438  2.1122 -1.8910
   74CHL1  H24B 7946   5.741   6.008   8.235 -0.3073  1.3081 -2.1890
   74CHL1   C25 7947   5.596   5.938   8.387 -0.2241  0.0426  0.4815
   74CHL1   H25 7948   5.486   5.925   8.379 -0.3818  2.0403 -2.2927
   74CHL1   C26 7949   5.639   5.793   8.401  0.6150 -0.1013 -0.0474
   74CHL1  H26A 7950   5.603   5.759   8.500  1.0683  1.3177  0.6232
   74CHL1  H26B 7951   5.615   5.713   8.327 -1.2715 -0.9816  1.4237
   74CHL1  H26C 7952   5.750   5.780   8.405  0.7412  0.7969 -0.4363
   74CHL1   C27 7953   5.645   6.030   8.499 -0.2826  0.2666 -0.3615
   74CHL1  H27A 7954   5.754   6.043   8.514 -0.0054  0.2861 -2.1483
   74CHL1  H27B 7955   5.603   6.133   8.491  1.8398  1.1768 -0.3961
   74CHL1  H27C 7956   5.615   5.980   8.594 -0.9468  1.6353  0.1833
   75CHL1    C3 7957   2.582   0.621   6.792 -0.1370 -0.8907 -0.5100
   75CHL1    H3 7958   2.569   0.725   6.827  0.7193 -0.2678 -1.9582
   75CHL1    O3 7959   2.601   0.627   6.656  0.1711 -0.6672  0.2494
   75CHL1   H3' 7960   2.619   0.535   6.635 -0.5058 -0.7487 -0.0131
   75CHL1    C4 7961   2.701   0.557   6.862 -0.2381  0.6108  0.4439
   75CHL1   H4A 7962   2.722   0.456   6.821 -2.3554 -0.0220  0.7955
   75CHL1   H4B 7963   2.794   0.612   6.839  0.4367 -0.3501  0.7912
   75CHL1    C5 7964   2.668   0.546   7.010 -0.4995 -0.2610  0.0109
   75CHL1    C6 7965   2.752   0.609   7.102  0.3440  0.2230 -0.6001
   75CHL1    H6 7966   2.845   0.654   7.065  0.7857 -0.7855 -0.7615
   75CHL1    C7 7967   2.731   0.607   7.252 -0.5879  0.2658  0.3939
   75CHL1   H7A 7968   2.831   0.609   7.300  0.3084  0.2598 -1.3835
   75CHL1   H7B 7969   2.694   0.704   7.290  2.3289  1.5354  0.2477
   75CHL1    C8 7970   2.644   0.483   7.291 -0.1935 -0.2632  0.5823
   75CHL1    H8 7971   2.705   0.393   7.267  0.3006  1.1059 -4.2205
   75CHL1   C14 7972   2.607   0.487   7.440 -0.2847  0.3910 -0.0437
   75CHL1   H14 7973   2.548   0.581   7.448  0.7683  1.0133  0.6782
   75CHL1   C15 7974   2.723   0.494   7.540  0.1357 -0.1220  0.3512
   75CHL1  H15A 7975   2.801   0.425   7.503 -1.4508 -1.4118 -0.7212
   75CHL1  H15B 7976   2.760   0.599   7.542 -0.7701  0.2156  0.1213
   75CHL1   C16 7977   2.657   0.448   7.672 -0.2853  0.0138 -0.3748
   75CHL1  H16A 7978   2.713   0.363   7.716 -0.2909  0.3948  0.3762
   75CHL1  H16B 7979   2.641   0.540   7.731  0.7475  0.3804 -0.6408
   75CHL1   C17 7980   2.510   0.415   7.635  0.0149  0.1646 -0.0426
   75CHL1   H17 7981   2.457   0.512   7.642  1.0432  0.8166 -0.9272
   75CHL1   C13 7982   2.512   0.380   7.485 -0.6257 -0.0223  0.4406
   75CHL1   C18 7983   2.580   0.236   7.469  0.5237  0.6608 -0.1064
   75CHL1  H18A 7984   2.637   0.208   7.560 -0.1866 -1.3964 -0.2470
   75CHL1  H18B 7985   2.506   0.162   7.434  1.4291  0.1078 -0.8792
   75CHL1  H18C 7986   2.650   0.234   7.384  1.6223 -2.5698  0.7510
   75CHL1   C12 7987   2.385   0.391   7.404  0.2526 -0.2027 -0.0632
   75CHL1  H12A 7988   2.308   0.318   7.435 -0.5900  1.4023  1.8333
   75CHL1  H12B 7989   2.339   0.484   7.443  0.1005  0.1798 -1.1335
   75CHL1   C11 7990   2.408   0.381   7.255 -0.3373 -0.2091 -0.5619
   75CHL1  H11A 7991   2.444   0.278   7.234 -1.0234 -0.9122  1.4467
   75CHL1  H11B 7992   2.311   0.387   7.200 -1.7343 -3.7897  1.1836
   75CHL1    C9 7993   2.516   0.482   7.201  0.2341 -0.3743 -0.2475
   75CHL1    H9 7994   2.478   0.585   7.217  0.2745 -0.3756 -0.1471
   75CHL1   C10 7995   2.544   0.470   7.050  0.3424  0.0345 -0.1665
   75CHL1   C19 7996   2.592   0.328   7.025 -0.0965  0.1041  0.4206
   75CHL1  H19A 7997   2.676   0.292   7.088  0.5133 -0.3826 -0.6422
   75CHL1  H19B 7998   2.509   0.260   7.055  0.9215 -0.4731  2.0742
   75CHL1  H19C 7999   2.623   0.307   6.920  1.1397 -0.0791  0.8095
   75CHL1    C1 8000   2.427   0.513   6.962  0.4384 -0.0224 -0.5956
   75CHL1   H1A 8001   2.357   0.427   6.971  0.6784 -0.2141 -0.5564
   75CHL1   H1B 8002   2.369   0.603   6.991  0.0529 -0.0425 -1.2773
   75CHL1    C2 8003   2.461   0.535   6.817  0.5654 -0.5081 -0.9185
   75CHL1   H2A 8004   2.369   0.578   6.771  0.1368 -0.8817 -0.4289
   75CHL1   H2B 8005   2.489   0.439   6.769 -0.3460 -0.6301 -1.2243
   75CHL1   C20 8006   2.433   0.320   7.730  0.2041 -0.2796 -0.4556
   75CHL1   H20 8007   2.435   0.217   7.687 -0.6774  0.0245 -1.2657
   75CHL1   C21 8008   2.284   0.371   7.735  1.4740  0.5002  0.0470
   75CHL1  H21A 8009   2.250   0.403   7.634 -0.7891 -1.0076  0.2607
   75CHL1  H21B 8010   2.281   0.453   7.809 -1.7250  0.1007  0.4897
   75CHL1  H21C 8011   2.214   0.295   7.775  2.6085 -0.6126 -0.0138
   75CHL1   C22 8012   2.491   0.326   7.878 -0.0709  0.1042  0.5942
   75CHL1  H22A 8013   2.592   0.279   7.876  1.7677  3.6984  0.3016
   75CHL1  H22B 8014   2.501   0.435   7.897  1.1396 -0.1645  1.6270
   75CHL1   C23 8015   2.400   0.251   7.983 -0.2402 -0.1866  0.5008
   75CHL1  H23A 8016   2.298   0.295   7.984 -0.3623 -0.4478 -0.2319
   75CHL1  H23B 8017   2.392   0.148   7.944  1.1726 -1.1879  2.6215
   75CHL1   C24 8018   2.468   0.225   8.116  1.0479 -0.0794 -0.3611
   75CHL1  H24A 8019   2.564   0.170   8.110  2.1670  1.6190  0.9525
   75CHL1  H24B 8020   2.484   0.319   8.174 -2.0671  0.6025 -0.4255
   75CHL1   C25 8021   2.393   0.148   8.222 -0.5691 -0.2794  0.1125
   75CHL1   H25 8022   2.465   0.141   8.306  0.6544 -0.2090 -0.9052
   75CHL1   C26 8023   2.270   0.226   8.268 -0.0879 -0.0654 -0.3916
   75CHL1  H26A 8024   2.188   0.229   8.193 -1.3866 -2.5338  0.7963
   75CHL1  H26B 8025   2.236   0.173   8.360  0.4762 -2.6628 -1.5725
   75CHL1  H26C 8026   2.294   0.331   8.296 -3.2251  0.6067  0.1352
   75CHL1   C27 8027   2.342   0.008   8.176  0.0216 -0.2024  0.4894
   75CHL1  H27A 8028   2.286   0.024   8.082  2.1133  0.5654 -0.6891
   75CHL1  H27B 8029   2.425  -0.065   8.161 -1.8731 -2.5068  0.6370
   75CHL1  H27C 8030   2.274  -0.043   8.248  1.0148 -0.5699  1.1864
   76CHL1    C3 8031   6.387   3.403   7.387 -0.0123 -0.5425  0.5401
   76CHL1    H3 8032   6.497   3.422   7.390 -0.0307 -0.5159  1.0132
   76CHL1    O3 8033   6.342   3.424   7.248 -0.4411  0.1086 -0.5452
   76CHL1   H3' 8034   6.375   3.351   7.195  2.6986  1.7487 -1.1076
   76CHL1    C4 8035   6.360   3.266   7.427 -0.0629  0.6617 -0.0429
   76CHL1   H4A 8036   6.251   3.248   7.419  0.0624 -0.4053  0.5014
   76CHL1   H4B 8037   6.399   3.189   7.357 -1.0540  2.0926 -2.2847
   76CHL1    C5 8038   6.396   3.237   7.575 -0.8760 -0.7044  0.3156
   76CHL1    C6 8039   6.480   3.138   7.611 -0.4831  0.5575  0.6693
   76CHL1    H6 8040   6.526   3.075   7.534  0.8268  0.0019  1.8749
   76CHL1    C7 8041   6.502   3.091   7.752 -0.1926 -0.4465 -0.5833
   76CHL1   H7A 8042   6.494   2.981   7.766  3.5584 -0.6789  1.0080
   76CHL1   H7B 8043   6.599   3.123   7.795 -0.0761  0.1981 -1.3117
   76CHL1    C8 8044   6.405   3.164   7.849 -0.0200 -0.1802 -0.3967
   76CHL1    H8 8045   6.311   3.105   7.838  0.3225 -0.8722  0.3138
   76CHL1   C14 8046   6.467   3.154   7.989 -0.1054 -0.5980 -0.8964
   76CHL1   H14 8047   6.557   3.218   7.982 -0.5674 -0.0213 -1.6757
   76CHL1   C15 8048   6.525   3.019   8.041  0.3756 -1.0602 -0.2097
   76CHL1  H15A 8049   6.455   2.933   8.032 -1.3317  0.1614  0.9698
   76CHL1  H15B 8050   6.620   2.989   7.991  0.5504 -0.0056 -0.5211
   76CHL1   C16 8051   6.531   3.040   8.198 -0.5452  0.0728 -0.5904
   76CHL1  H16A 8052   6.462   2.963   8.238  1.5833 -1.2798  0.6728
   76CHL1  H16B 8053   6.622   3.014   8.255 -3.0099 -1.9057  2.8421
   76CHL1   C17 8054   6.469   3.179   8.218 -1.1009 -0.2868  0.4960
   76CHL1   H17 8055   6.555   3.249   8.209  0.5657 -2.5208 -2.2287
   76CHL1   C13 8056   6.382   3.218   8.100 -0.6993  0.4677 -0.1003
   76CHL1   C18 8057   6.253   3.131   8.106 -0.2662  0.3839 -0.6928
   76CHL1  H18A 8058   6.196   3.150   8.200 -0.2675  0.8742 -0.7904
   76CHL1  H18B 8059   6.186   3.155   8.021  0.7515  0.5120 -1.4728
   76CHL1  H18C 8060   6.285   3.025   8.108 -1.5660 -0.0359 -1.2493
   76CHL1   C12 8061   6.352   3.363   8.067  0.0738 -0.1694 -0.4859
   76CHL1  H12A 8062   6.275   3.405   8.136  0.5744  1.3391 -0.8071
   76CHL1  H12B 8063   6.443   3.426   8.077 -1.2104  1.9526 -1.4018
   76CHL1   C11 8064   6.294   3.384   7.924  0.0539 -0.5417  0.6202
   76CHL1  H11A 8065   6.196   3.331   7.933 -0.5997  0.2033 -1.5574
   76CHL1  H11B 8066   6.272   3.489   7.897  2.4293 -0.0446  0.4432
   76CHL1    C9 8067   6.371   3.310   7.816 -0.2012 -0.7483 -0.3187
   76CHL1    H9 8068   6.469   3.363   7.822 -0.1806 -0.5510 -1.9748
   76CHL1   C10 8069   6.325   3.330   7.669  0.2590 -0.2113 -0.2936
   76CHL1   C19 8070   6.169   3.295   7.669 -0.5515  0.0135 -0.6584
   76CHL1  H19A 8071   6.154   3.198   7.719  1.9168 -0.0981 -0.0071
   76CHL1  H19B 8072   6.113   3.366   7.734 -3.3063 -2.3890 -0.1926
   76CHL1  H19C 8073   6.118   3.305   7.570  0.0411  1.7480 -0.8379
   76CHL1    C1 8074   6.342   3.476   7.623 -0.2029  0.3358  0.9667
   76CHL1   H1A 8075   6.269   3.540   7.677 -1.1936  0.9183 -0.9955
   76CHL1   H1B 8076   6.444   3.519   7.634 -0.6636  1.3691  1.2629
   76CHL1    C2 8077   6.315   3.499   7.474  0.7113  0.1524  0.3155
   76CHL1   H2A 8078   6.331   3.602   7.437 -0.0105 -0.4995 -1.9642
   76CHL1   H2B 8079   6.209   3.473   7.451  0.3418  0.6622  1.3450
   76CHL1   C20 8080   6.410   3.216   8.361 -0.4989  0.4430  0.0473
   76CHL1   H20 8081   6.359   3.311   8.336  0.5132  0.3874 -2.5697
   76CHL1   C21 8082   6.526   3.258   8.461  0.1479  0.2832 -0.2120
   76CHL1  H21A 8083   6.583   3.343   8.418 -0.2056  0.1466 -0.9540
   76CHL1  H21B 8084   6.596   3.178   8.495  2.4169  3.0121  2.0920
   76CHL1  H21C 8085   6.482   3.294   8.556 -0.4895  2.8395 -1.3913
   76CHL1   C22 8086   6.316   3.118   8.428  0.1261 -0.3948  0.1173
   76CHL1  H22A 8087   6.251   3.056   8.362 -0.5693 -0.3398  0.7373
   76CHL1  H22B 8088   6.383   3.046   8.480  1.2190  0.5394  0.0408
   76CHL1   C23 8089   6.211   3.176   8.524 -0.4412 -0.1122 -0.3777
   76CHL1  H23A 8090   6.252   3.226   8.615 -0.8887 -0.8347  0.2337
   76CHL1  H23B 8091   6.154   3.257   8.473  0.6777  2.3509  1.9774
   76CHL1   C24 8092   6.110   3.075   8.577 -0.4295 -0.7801  0.1603
   76CHL1  H24A 8093   6.054   3.040   8.487  1.7414 -1.4854 -0.9809
   76CHL1  H24B 8094   6.164   2.987   8.619  2.6146  0.8873 -0.0188
   76CHL1   C25 8095   6.004   3.126   8.681 -0.1025  0.0806  0.3420
   76CHL1   H25 8096   6.059   3.155   8.773 -0.8290  0.9546  0.5193
   76CHL1   C26 8097   5.921   3.241   8.617  0.6230 -0.1923 -0.0393
   76CHL1  H26A 8098   5.978   3.310   8.551 -1.7709  1.8873 -0.0734
   76CHL1  H26B 8099   5.838   3.194   8.560  0.4638 -0.4767  0.4226
   76CHL1  H26C 8100   5.867   3.308   8.687  0.8268 -0.1919  0.1180
   76CHL1   C27 8101   5.898   3.024   8.717 -0.7094 -0.0161 -0.8159
   76CHL1  H27A 8102   5.953   2.931   8.743  2.1225  0.7756 -3.4091
   76CHL1  H27B 8103   5.832   3.058   8.799  0.0333 -0.3093 -0.0844
   76CHL1  H27C 8104   5.834   2.988   8.633 -0.5683 -2.8048  0.1706
   77CHL1    C3 8105   1.057   1.469   6.942 -0.4891 -0.0434  0.3292
   77CHL1    H3 8106   0.982   1.389   6.961  0.0331 -0.5698  0.1742
   77CHL1    O3 8107   1.040   1.525   6.812  0.8712 -0.4021 -0.1784
   77CHL1   H3' 8108   0.982   1.460   6.772  0.1560 -0.3490  0.7274
   77CHL1    C4 8109   1.042   1.573   7.056  0.2112 -0.0842  0.6282
   77CHL1   H4A 8110   1.093   1.666   7.024 -0.2174  0.2782  0.9928
   77CHL1   H4B 8111   0.935   1.601   7.058 -0.2425 -1.6780  0.4617
   77CHL1    C5 8112   1.098   1.525   7.186 -0.2178 -0.0494 -0.4786
   77CHL1    C6 8113   1.012   1.523   7.291 -0.7270  0.3742  0.4990
   77CHL1    H6 8114   0.912   1.568   7.281 -1.8957 -1.8141  1.6061
   77CHL1    C7 8115   1.057   1.505   7.432 -0.2408  0.3935 -0.0641
   77CHL1   H7A 8116   1.037   1.597   7.491  2.3259  0.0337  1.4994
   77CHL1   H7B 8117   1.001   1.420   7.475  0.4016 -0.4713 -0.8968
   77CHL1    C8 8118   1.209   1.505   7.448 -0.1873 -0.1431  0.0275
   77CHL1    H8 8119   1.266   1.600   7.458  0.6186 -0.7141  1.0493
   77CHL1   C14 8120   1.232   1.419   7.568 -0.3202 -0.8090  0.1983
   77CHL1   H14 8121   1.182   1.324   7.539 -1.8629  0.8775 -3.3211
   77CHL1   C15 8122   1.170   1.468   7.708  0.3203  0.6062 -0.2262
   77CHL1  H15A 8123   1.154   1.577   7.718 -1.7071  0.2827  0.4780
   77CHL1  H15B 8124   1.068   1.424   7.699 -1.5652  4.3536  0.7783
   77CHL1   C16 8125   1.258   1.388   7.808 -0.7399  0.0612 -0.2144
   77CHL1  H16A 8126   1.299   1.462   7.880 -1.5859 -1.6582  2.1880
   77CHL1  H16B 8127   1.195   1.324   7.874  0.4239 -0.2310  0.6417
   77CHL1   C17 8128   1.364   1.309   7.727 -0.6443  0.5117 -0.0076
   77CHL1   H17 8129   1.327   1.213   7.686  0.7709  0.5808 -1.6066
   77CHL1   C13 8130   1.382   1.389   7.596 -0.9382  0.6899 -0.7817
   77CHL1   C18 8131   1.464   1.528   7.613 -0.1038  0.3195 -0.5405
   77CHL1  H18A 8132   1.465   1.591   7.521  2.8350  2.2759  0.7046
   77CHL1  H18B 8133   1.424   1.587   7.698 -0.2851  0.2644 -0.5860
   77CHL1  H18C 8134   1.567   1.499   7.641 -0.6157  0.1059  1.2414
   77CHL1   C12 8135   1.455   1.310   7.482  1.5788 -0.2470  0.0026
   77CHL1  H12A 8136   1.564   1.326   7.498  1.4982  0.6002 -0.2502
   77CHL1  H12B 8137   1.421   1.205   7.470 -0.7021  0.2074  1.8042
   77CHL1   C11 8138   1.421   1.371   7.344 -0.2916 -0.5060  0.5909
   77CHL1  H11A 8139   1.476   1.466   7.332  0.8767 -0.9325  2.2482
   77CHL1  H11B 8140   1.461   1.304   7.265  0.7217 -0.9383  1.4415
   77CHL1    C9 8141   1.271   1.416   7.332  0.1396 -0.8581  0.5397
   77CHL1    H9 8142   1.213   1.321   7.330 -1.5672  0.1441 -0.7855
   77CHL1   C10 8143   1.240   1.474   7.189  0.0233  0.2735 -0.2853
   77CHL1   C19 8144   1.322   1.606   7.162  0.6454  0.2873  0.2016
   77CHL1  H19A 8145   1.298   1.686   7.236 -1.0143 -0.8371  0.9676
   77CHL1  H19B 8146   1.430   1.582   7.160  0.2761 -1.4492 -0.6845
   77CHL1  H19C 8147   1.288   1.650   7.066 -0.3269  2.4356  1.4472
   77CHL1    C1 8148   1.245   1.375   7.062  0.6876  0.7330  0.0741
   77CHL1   H1A 8149   1.351   1.343   7.052 -0.0645 -1.9712  0.0937
   77CHL1   H1B 8150   1.188   1.283   7.087  0.1240  1.1565  0.3763
   77CHL1    C2 8151   1.199   1.418   6.929  0.9419  0.4057 -0.5776
   77CHL1   H2A 8152   1.203   1.331   6.860 -0.5845 -0.8518  0.8314
   77CHL1   H2B 8153   1.275   1.492   6.897  0.5032  1.6529  1.1121
   77CHL1   C20 8154   1.483   1.269   7.822  0.3754 -0.2270 -0.5905
   77CHL1   H20 8155   1.541   1.360   7.852  2.3231 -1.9559  1.2601
   77CHL1   C21 8156   1.593   1.181   7.749  0.3616 -0.9132 -0.7258
   77CHL1  H21A 8157   1.626   1.237   7.659 -1.6125 -0.5878 -1.2921
   77CHL1  H21B 8158   1.544   1.085   7.721 -1.3497 -0.7812  1.5384
   77CHL1  H21C 8159   1.681   1.157   7.812 -0.5290 -1.1052  0.4732
   77CHL1   C22 8160   1.432   1.208   7.951  0.2137 -0.3208 -0.3920
   77CHL1  H22A 8161   1.372   1.278   8.014  0.5411  1.7497 -2.2345
   77CHL1  H22B 8162   1.371   1.122   7.915  2.7135 -1.4877 -2.0650
   77CHL1   C23 8163   1.538   1.158   8.050  0.0927  0.3254  0.1436
   77CHL1  H23A 8164   1.614   1.094   8.001  0.4844 -1.6173  3.0835
   77CHL1  H23B 8165   1.595   1.249   8.079  1.2887 -0.3500 -0.0468
   77CHL1   C24 8166   1.488   1.099   8.181  0.1809 -0.0835  0.0056
   77CHL1  H24A 8167   1.422   1.174   8.230 -2.0764 -0.2887 -2.5175
   77CHL1  H24B 8168   1.424   1.011   8.161 -0.2510 -0.4933  2.8123
   77CHL1   C25 8169   1.598   1.058   8.284  0.0836  0.4173 -0.0929
   77CHL1   H25 8170   1.543   1.051   8.380  1.0479 -0.3443  0.4191
   77CHL1   C26 8171   1.656   0.914   8.261 -0.2145 -0.2422 -0.3174
   77CHL1  H26A 8172   1.579   0.834   8.248 -0.0117 -0.5994  0.6435
   77CHL1  H26B 8173   1.719   0.903   8.170 -0.7914 -4.5083 -0.4101
   77CHL1  H26C 8174   1.699   0.869   8.353  0.1254 -1.5150 -1.0686
   77CHL1   C27 8175   1.704   1.168   8.290  0.5849  0.7802  0.0232
   77CHL1  H27A 8176   1.781   1.144   8.367  1.4495 -0.3026 -1.1483
   77CHL1  H27B 8177   1.755   1.175   8.192 -0.5401  0.9952 -0.5621
   77CHL1  H27C 8178   1.656   1.264   8.320  1.0008  0.0117  3.6506
   78CHL1    C3 8179   1.801   2.657   6.749  0.0854  0.4722  0.0759
   78CHL1    H3 8180   1.908   2.660   6.778  0.3421 -0.8017 -0.6480
   78CHL1    O3 8181   1.790   2.709   6.613  0.2008  0.2236 -0.5035
   78CHL1   H3' 8182   1.695   2.722   6.610  0.1777 -0.1088 -1.7798
   78CHL1    C4 8183   1.772   2.504   6.754 -0.2929 -0.8431 -0.3344
   78CHL1   H4A 8184   1.670   2.488   6.714 -1.0738  1.3266  0.6047
   78CHL1   H4B 8185   1.844   2.469   6.677  0.9155  0.7215  0.0285
   78CHL1    C5 8186   1.801   2.444   6.899  0.4321 -0.5282  0.2563
   78CHL1    C6 8187   1.880   2.332   6.921 -0.1706 -0.8619  1.0129
   78CHL1    H6 8188   1.913   2.274   6.833  1.0425  0.2304  0.7074
   78CHL1    C7 8189   1.901   2.277   7.058  0.1182  0.1462 -0.6049
   78CHL1   H7A 8190   1.882   2.169   7.076  1.3327  0.1178  0.6856
   78CHL1   H7B 8191   2.007   2.300   7.082 -0.1930 -0.2562  1.3150
   78CHL1    C8 8192   1.830   2.345   7.175  0.2417 -0.0027  0.8187
   78CHL1    H8 8193   1.729   2.299   7.181  0.5145 -0.7582 -0.1247
   78CHL1   C14 8194   1.883   2.319   7.310  0.0367 -0.2743  0.5555
   78CHL1   H14 8195   1.984   2.365   7.312  1.1302 -2.5080  0.6745
   78CHL1   C15 8196   1.931   2.173   7.336 -0.5038 -0.1206  0.3826
   78CHL1  H15A 8197   1.854   2.101   7.300  0.0221  0.1347 -1.3647
   78CHL1  H15B 8198   2.021   2.164   7.271 -1.5933  1.1052 -1.3977
   78CHL1   C16 8199   1.947   2.177   7.485  0.5678 -0.9610 -0.0673
   78CHL1  H16A 8200   1.885   2.098   7.532  0.4341  0.1385  1.7044
   78CHL1  H16B 8201   2.052   2.161   7.517  0.2660 -2.1178  0.3617
   78CHL1   C17 8202   1.880   2.309   7.545  0.5601 -0.2282  0.1828
   78CHL1   H17 8203   1.968   2.378   7.544 -1.9386  3.2028  0.6920
   78CHL1   C13 8204   1.798   2.361   7.428  0.1315 -0.4081  0.7797
   78CHL1   C18 8205   1.653   2.292   7.421  0.0749 -0.1756  0.7710
   78CHL1  H18A 8206   1.658   2.185   7.393  0.3079 -0.5531  2.2031
   78CHL1  H18B 8207   1.588   2.304   7.510 -1.6120 -0.4690 -0.3734
   78CHL1  H18C 8208   1.603   2.345   7.337  1.8684  2.1552  1.0681
   78CHL1   C12 8209   1.789   2.518   7.417 -0.8948  0.2116 -0.4408
   78CHL1  H12A 8210   1.737   2.557   7.507  2.1460  3.0163  0.2676
   78CHL1  H12B 8211   1.889   2.556   7.445 -1.5853 -0.0417  2.7107
   78CHL1   C11 8212   1.746   2.572   7.280  0.2266  0.2224 -0.2380
   78CHL1  H11A 8213   1.636   2.583   7.272  0.2148  0.2856 -0.0024
   78CHL1  H11B 8214   1.796   2.672   7.280 -0.3940  0.5573  1.8279
   78CHL1    C9 8215   1.808   2.498   7.158 -0.1310 -0.5199 -0.0624
   78CHL1    H9 8216   1.913   2.535   7.153  0.1916 -1.2255  1.1707
   78CHL1   C10 8217   1.741   2.536   7.017 -0.5481  0.5900 -0.3342
   78CHL1   C19 8218   1.586   2.500   7.030 -0.8546 -0.0463  0.1315
   78CHL1  H19A 8219   1.530   2.554   7.109  0.8887  1.0270  0.6756
   78CHL1  H19B 8220   1.540   2.528   6.932  0.8704  0.7957 -0.4888
   78CHL1  H19C 8221   1.564   2.392   7.021 -2.5647  0.3555 -1.4576
   78CHL1    C1 8222   1.764   2.693   6.995 -0.2291 -0.3361  0.4898
   78CHL1   H1A 8223   1.700   2.758   7.058 -0.4257  0.1804 -0.2282
   78CHL1   H1B 8224   1.872   2.712   7.009  0.1886 -2.0179 -0.1652
   78CHL1    C2 8225   1.720   2.739   6.850  0.8693  0.3941  0.6475
   78CHL1   H2A 8226   1.748   2.846   6.847 -1.4862  1.1020  2.0328
   78CHL1   H2B 8227   1.612   2.729   6.828  1.2502  0.5994 -1.6604
   78CHL1   C20 8228   1.831   2.292   7.688 -0.1678  0.1929  0.6739
   78CHL1   H20 8229   1.773   2.197   7.690 -1.0213  0.6674 -0.3554
   78CHL1   C21 8230   1.736   2.417   7.729 -0.4613  0.2945  0.2194
   78CHL1  H21A 8231   1.643   2.424   7.669 -0.0786 -0.9990 -0.5611
   78CHL1  H21B 8232   1.802   2.507   7.728 -0.2888  0.1627 -0.3450
   78CHL1  H21C 8233   1.702   2.414   7.835 -1.3544 -1.3361 -0.0986
   78CHL1   C22 8234   1.954   2.284   7.795 -0.1049  0.1347 -0.0359
   78CHL1  H22A 8235   2.043   2.226   7.759  0.1548 -0.0326  0.8674
   78CHL1  H22B 8236   1.982   2.388   7.820 -0.0833 -0.3544  2.1897
   78CHL1   C23 8237   1.914   2.217   7.923 -0.2276  0.3525 -0.0772
   78CHL1  H23A 8238   1.821   2.269   7.955 -0.9282 -0.6646 -0.4010
   78CHL1  H23B 8239   1.894   2.109   7.906 -0.2459  0.4871 -0.9488
   78CHL1   C24 8240   2.032   2.231   8.029  0.5504  0.1843 -0.3908
   78CHL1  H24A 8241   2.124   2.199   7.975 -0.2631  1.2187 -2.4658
   78CHL1  H24B 8242   2.055   2.336   8.056  0.4068 -0.4377  2.4169
   78CHL1   C25 8243   2.016   2.144   8.160 -0.1456 -0.0261  0.5439
   78CHL1   H25 8244   2.092   2.182   8.232  1.4161  0.5632 -1.3176
   78CHL1   C26 8245   1.879   2.165   8.230  0.5814 -0.3726  0.2561
   78CHL1  H26A 8246   1.881   2.119   8.331 -0.4303  0.5189  0.6921
   78CHL1  H26B 8247   1.865   2.275   8.231  2.6803 -0.0530  1.7346
   78CHL1  H26C 8248   1.803   2.112   8.169  1.6265 -1.9352  0.2422
   78CHL1   C27 8249   2.057   2.002   8.119  0.2842  0.2272  0.4031
   78CHL1  H27A 8250   2.054   1.933   8.206  0.8214  0.8782  0.9573
   78CHL1  H27B 8251   1.999   1.961   8.034 -0.0153 -0.0815  0.7560
   78CHL1  H27C 8252   2.160   1.997   8.077 -0.2115  1.0399 -0.9754
   79CHL1    C3 8253   6.500   4.085   7.162 -0.9480 -0.3053  0.1939
   79CHL1    H3 8254   6.515   4.194   7.176  1.3801 -0.7934  2.1585
   79CHL1    O3 8255   6.509   4.061   7.027  0.2580  0.8279  0.1540
   79CHL1   H3' 8256   6.468   3.975   7.012  1.1089  0.5411 -0.5587
   79CHL1    C4 8257   6.615   4.014   7.239 -0.2884 -0.1050  0.0558
   79CHL1   H4A 8258   6.611   3.908   7.206  2.7936 -0.8789  1.7578
   79CHL1   H4B 8259   6.713   4.054   7.206 -1.0310  1.9942  0.2406
   79CHL1    C5 8260   6.610   4.024   7.388  0.4375  0.4052  0.0059
   79CHL1    C6 8261   6.711   4.060   7.463  0.5463  0.8836  0.6799
   79CHL1    H6 8262   6.804   4.096   7.416  0.4444 -0.1365 -0.3545
   79CHL1    C7 8263   6.712   4.063   7.611 -0.1443 -0.1648  0.1810
   79CHL1   H7A 8264   6.797   3.998   7.639  2.4953  1.1516 -3.8100
   79CHL1   H7B 8265   6.722   4.169   7.645  0.0921 -0.7407  2.0069
   79CHL1    C8 8266   6.593   3.994   7.672 -0.5643  0.0252  0.1004
   79CHL1    H8 8267   6.617   3.886   7.665 -0.6857  0.0288 -0.3760
   79CHL1   C14 8268   6.585   4.019   7.824  0.7316  0.0959 -0.2300
   79CHL1   H14 8269   6.571   4.129   7.832  1.1523  0.2518 -1.4729
   79CHL1   C15 8270   6.709   3.989   7.910 -0.5755  0.0988 -0.3678
   79CHL1  H15A 8271   6.733   3.881   7.896 -1.5386 -0.2969  0.9069
   79CHL1  H15B 8272   6.790   4.062   7.888 -0.2864  0.1162  0.6987
   79CHL1   C16 8273   6.646   4.003   8.050  0.5611  0.3699 -0.3567
   79CHL1  H16A 8274   6.666   3.914   8.115  0.5802  0.2922 -0.4684
   79CHL1  H16B 8275   6.680   4.098   8.096  2.3283  0.4827 -1.7910
   79CHL1   C17 8276   6.488   4.014   8.033 -0.0734  1.1226  0.2577
   79CHL1   H17 8277   6.457   4.119   8.019 -1.7669  0.6535  0.2193
   79CHL1   C13 8278   6.463   3.957   7.895  0.5246  0.3823  0.6198
   79CHL1   C18 8279   6.479   3.799   7.902  1.2163 -0.5481 -0.0429
   79CHL1  H18A 8280   6.552   3.775   7.982 -0.5873  3.0707  2.9927
   79CHL1  H18B 8281   6.381   3.758   7.932  0.0670  2.7397  1.0805
   79CHL1  H18C 8282   6.507   3.767   7.799  0.5776 -3.3139  0.5592
   79CHL1   C12 8283   6.331   4.007   7.825  0.2699 -0.0837  0.6758
   79CHL1  H12A 8284   6.232   3.973   7.863 -0.3449  2.7190  1.8021
   79CHL1  H12B 8285   6.328   4.118   7.820  0.4664  0.0191  2.3274
   79CHL1   C11 8286   6.341   3.957   7.672 -0.9971 -0.8814  0.2194
   79CHL1  H11A 8287   6.345   3.846   7.661 -0.4004 -0.6183 -4.1396
   79CHL1  H11B 8288   6.252   3.995   7.618  1.1646  2.4608 -1.3353
   79CHL1    C9 8289   6.467   4.025   7.598 -0.1591  0.0606 -0.0526
   79CHL1    H9 8290   6.441   4.132   7.596  0.9661  0.3370 -1.0960
   79CHL1   C10 8291   6.478   3.986   7.451  1.1158  0.2965 -0.1716
   79CHL1   C19 8292   6.463   3.832   7.431  0.3130  0.6519 -0.6724
   79CHL1  H19A 8293   6.543   3.778   7.487 -1.4196 -3.4633 -1.8651
   79CHL1  H19B 8294   6.361   3.802   7.462 -0.4478  1.7925 -1.9458
   79CHL1  H19C 8295   6.485   3.805   7.325  1.4717  2.4319 -0.9401
   79CHL1    C1 8296   6.367   4.060   7.366  0.4245  0.0122 -0.1147
   79CHL1   H1A 8297   6.272   4.019   7.407  0.9035 -0.4784  0.5292
   79CHL1   H1B 8298   6.358   4.171   7.377 -2.8545  0.0249 -1.6491
   79CHL1    C2 8299   6.369   4.041   7.215  0.4017  0.2916 -0.0115
   79CHL1   H2A 8300   6.290   4.100   7.164  1.2589  1.0522 -0.5090
   79CHL1   H2B 8301   6.352   3.934   7.191  1.1801  0.3781 -1.0148
   79CHL1   C20 8302   6.409   3.956   8.151 -0.3253 -0.5410 -0.3940
   79CHL1   H20 8303   6.405   3.845   8.160  1.1508 -0.5712  0.0911
   79CHL1   C21 8304   6.262   4.008   8.133 -0.5559 -0.5524  0.1934
   79CHL1  H21A 8305   6.208   3.991   8.229 -2.0336 -0.8681 -0.6469
   79CHL1  H21B 8306   6.205   3.954   8.054  0.5846 -2.6582  0.7496
   79CHL1  H21C 8307   6.262   4.115   8.105  1.3006 -0.7076 -0.5169
   79CHL1   C22 8308   6.459   3.988   8.295  0.2427  0.7641  0.0991
   79CHL1  H22A 8309   6.384   3.942   8.364  0.2058  0.7727  0.0652
   79CHL1  H22B 8310   6.556   3.943   8.323  0.0804 -0.5627 -1.2881
   79CHL1   C23 8311   6.457   4.134   8.332  0.6394 -0.1418  0.0330
   79CHL1  H23A 8312   6.508   4.188   8.249  1.5168 -1.9564 -0.6513
   79CHL1  H23B 8313   6.349   4.160   8.327  0.4112 -1.0574  0.0004
   79CHL1   C24 8314   6.526   4.164   8.468 -0.5883 -0.3351 -1.1915
   79CHL1  H24A 8315   6.459   4.128   8.549  0.2510 -1.1606 -0.8439
   79CHL1  H24B 8316   6.617   4.101   8.478 -0.3778  0.1031 -0.2059
   79CHL1   C25 8317   6.539   4.319   8.493 -0.7299 -1.3216 -0.4073
   79CHL1   H25 8318   6.587   4.336   8.591  0.3549  1.7729 -1.3547
   79CHL1   C26 8319   6.642   4.385   8.398  0.4364  0.0008  0.5330
   79CHL1  H26A 8320   6.702   4.300   8.360  0.2299 -0.5709  1.4484
   79CHL1  H26B 8321   6.590   4.434   8.312 -1.4632 -0.4505  1.3589
   79CHL1  H26C 8322   6.694   4.462   8.457 -0.0810  0.9240 -0.1848
   79CHL1   C27 8323   6.408   4.396   8.492  0.7931 -0.2253  0.2035
   79CHL1  H27A 8324   6.362   4.402   8.392 -2.9387  0.8071  1.7987
   79CHL1  H27B 8325   6.329   4.368   8.566 -1.0724  1.1311 -1.2006
   79CHL1  H27C 8326   6.411   4.506   8.508  0.0770 -0.3708  1.5118
   80CHL1    C3 8327   0.292   0.799   7.170 -0.6620 -0.0174  0.2516
   80CHL1    H3 8328   0.381   0.865   7.178  1.1084 -2.0417 -1.5309
   80CHL1    O3 8329   0.263   0.775   7.035  0.1717  0.1448  0.3215
   80CHL1   H3' 8330   0.261   0.858   6.987 -2.6222  0.8277  1.4309
   80CHL1    C4 8331   0.314   0.673   7.241 -0.8599  0.3201  0.7175
   80CHL1   H4A 8332   0.229   0.602   7.227  0.9946 -2.1117  1.0803
   80CHL1   H4B 8333   0.411   0.631   7.208 -1.4732 -0.4210 -0.2054
   80CHL1    C5 8334   0.307   0.698   7.394  0.3015 -0.1408  0.2566
   80CHL1    C6 8335   0.413   0.655   7.464 -0.1487 -0.7489 -0.3700
   80CHL1    H6 8336   0.501   0.609   7.418 -0.1174 -1.7181  0.6121
   80CHL1    C7 8337   0.420   0.667   7.612  0.3611  0.6061  0.1656
   80CHL1   H7A 8338   0.464   0.571   7.649  0.0490  0.4022  0.0166
   80CHL1   H7B 8339   0.482   0.756   7.635  0.6532 -0.0071  1.8864
   80CHL1    C8 8340   0.281   0.687   7.679  0.4886 -0.4029  0.2167
   80CHL1    H8 8341   0.226   0.594   7.654 -1.4119  0.8243 -0.3170
   80CHL1   C14 8342   0.289   0.722   7.829  0.4916 -0.5203 -0.4864
   80CHL1   H14 8343   0.356   0.810   7.839  0.7109 -0.8024  0.6711
   80CHL1   C15 8344   0.355   0.614   7.913 -0.0041 -0.0493  0.2641
   80CHL1  H15A 8345   0.313   0.512   7.897 -0.0437 -0.1974  1.2622
   80CHL1  H15B 8346   0.465   0.617   7.893  0.5479 -1.5469  2.7063
   80CHL1   C16 8347   0.326   0.665   8.059 -0.4851  0.2592 -0.5409
   80CHL1  H16A 8348   0.308   0.573   8.118 -2.9254  0.9003 -0.1709
   80CHL1  H16B 8349   0.418   0.715   8.097  0.8961 -2.1735 -0.4841
   80CHL1   C17 8350   0.203   0.759   8.055 -0.0976 -0.8254  0.7247
   80CHL1   H17 8351   0.246   0.861   8.068 -0.0536 -0.9451  1.5104
   80CHL1   C13 8352   0.161   0.756   7.900  0.0470 -0.3673 -0.0428
   80CHL1   C18 8353   0.069   0.633   7.892  0.7363 -0.3174  0.3625
   80CHL1  H18A 8354   0.104   0.562   7.970  0.3548  0.5118  1.3136
   80CHL1  H18B 8355  -0.036   0.666   7.911  1.2048  1.1888  0.4977
   80CHL1  H18C 8356   0.079   0.593   7.789  3.4353  2.3433 -0.5647
   80CHL1   C12 8357   0.093   0.879   7.834 -0.0972 -0.9027  0.3775
   80CHL1  H12A 8358  -0.011   0.883   7.873  0.3648 -0.2184  1.5680
   80CHL1  H12B 8359   0.146   0.975   7.852  0.8059 -1.1525 -0.8235
   80CHL1   C11 8360   0.081   0.857   7.679  0.3830 -0.2296 -0.2236
   80CHL1  H11A 8361   0.002   0.780   7.663 -1.2168  0.8931  1.7886
   80CHL1  H11B 8362   0.049   0.955   7.637 -0.0032 -0.2963 -0.0946
   80CHL1    C9 8363   0.208   0.798   7.605 -0.1094  0.4680  0.0833
   80CHL1    H9 8364   0.277   0.885   7.608  0.7304 -0.1791 -0.1367
   80CHL1   C10 8365   0.187   0.772   7.454 -0.6474  0.0203 -0.3640
   80CHL1   C19 8366   0.053   0.700   7.438 -0.4739 -0.5962 -0.0267
   80CHL1  H19A 8367  -0.024   0.774   7.470  1.8499  1.2356  1.7853
   80CHL1  H19B 8368   0.038   0.658   7.337  2.4335  0.0640 -0.8495
   80CHL1  H19C 8369   0.059   0.612   7.506  1.3660 -1.8099 -1.6514
   80CHL1    C1 8370   0.171   0.905   7.376  0.5084  0.1018 -0.9060
   80CHL1   H1A 8371   0.069   0.948   7.377  0.0824 -0.8687  0.5986
   80CHL1   H1B 8372   0.244   0.987   7.393 -1.3813  1.8049 -0.6288
   80CHL1    C2 8373   0.177   0.882   7.223  0.3934  1.0169  0.0444
   80CHL1   H2A 8374   0.163   0.975   7.164 -0.1315  0.0461 -1.4378
   80CHL1   H2B 8375   0.089   0.819   7.197  1.1569 -0.5724  1.1428
   80CHL1   C20 8376   0.098   0.731   8.157 -1.2655 -0.6391  0.2105
   80CHL1   H20 8377   0.040   0.638   8.144 -0.2726 -1.1336 -0.8737
   80CHL1   C21 8378  -0.004   0.850   8.168  0.1317  0.2212  0.1350
   80CHL1  H21A 8379  -0.084   0.813   8.236 -0.5520 -0.3562 -0.9557
   80CHL1  H21B 8380  -0.053   0.873   8.071  1.3779 -0.9525 -0.8070
   80CHL1  H21C 8381   0.053   0.940   8.201  1.9672 -1.1758  0.8957
   80CHL1   C22 8382   0.167   0.725   8.294 -0.2785 -0.5341 -0.4318
   80CHL1  H22A 8383   0.239   0.640   8.305  2.5050  1.9440  2.6166
   80CHL1  H22B 8384   0.232   0.811   8.320  1.0607 -1.4256 -0.6891
   80CHL1   C23 8385   0.069   0.702   8.407  0.0906  0.4852 -0.5756
   80CHL1  H23A 8386   0.005   0.792   8.418 -1.0026 -0.4484  1.1271
   80CHL1  H23B 8387   0.016   0.608   8.384 -0.0547  0.6549 -0.9411
   80CHL1   C24 8388   0.131   0.681   8.543  0.3727  0.5087 -0.7973
   80CHL1  H24A 8389   0.203   0.596   8.539 -0.7697 -0.9389  3.6187
   80CHL1  H24B 8390   0.195   0.770   8.558  0.1173  0.4851  0.6021
   80CHL1   C25 8391   0.036   0.658   8.662  0.1674 -0.1330 -0.4216
   80CHL1   H25 8392  -0.020   0.753   8.674  0.3968  0.3377 -2.6367
   80CHL1   C26 8393  -0.069   0.544   8.646  0.2371  0.5250  0.1854
   80CHL1  H26A 8394  -0.109   0.516   8.745 -0.5991  1.4067  0.1118
   80CHL1  H26B 8395  -0.149   0.581   8.577  0.0301 -1.0427 -0.4489
   80CHL1  H26C 8396  -0.028   0.451   8.602  1.1140  1.7064 -1.6739
   80CHL1   C27 8397   0.131   0.631   8.781 -0.1767 -0.4308 -0.2045
   80CHL1  H27A 8398   0.213   0.707   8.785 -1.3775  0.8520  2.3076
   80CHL1  H27B 8399   0.087   0.645   8.882 -0.0279 -1.3930 -0.0030
   80CHL1  H27C 8400   0.166   0.527   8.765  0.0051 -0.4747  0.4440
   81CHL1    C3 8401   4.591   0.471   6.904  0.0637  0.5771 -0.4673
   81CHL1    H3 8402   4.696   0.505   6.917  0.2213  0.0407 -0.2778
   81CHL1    O3 8403   4.538   0.539   6.791  0.1208 -0.2314  0.4517
   81CHL1   H3' 8404   4.445   0.517   6.799 -0.3079  0.7094 -1.4507
   81CHL1    C4 8405   4.584   0.314   6.886  0.4959 -0.2267  0.2751
   81CHL1   H4A 8406   4.479   0.295   6.854  1.0810 -2.8574 -0.3248
   81CHL1   H4B 8407   4.644   0.278   6.799 -0.3607 -0.6040 -0.1819
   81CHL1    C5 8408   4.617   0.238   7.015  0.0143 -0.5259  0.6697
   81CHL1    C6 8409   4.717   0.145   7.016  0.3805  0.0953  0.1976
   81CHL1    H6 8410   4.764   0.121   6.920  0.5616 -0.2753  0.3765
   81CHL1    C7 8411   4.758   0.059   7.130 -0.3273 -0.1416  0.5936
   81CHL1   H7A 8412   4.752  -0.049   7.105 -0.7510 -0.5152  2.1910
   81CHL1   H7B 8413   4.860   0.082   7.165  0.2316  3.2834 -2.6114
   81CHL1    C8 8414   4.661   0.083   7.254  0.4023 -0.0916 -0.1615
   81CHL1    H8 8415   4.577   0.013   7.236  0.4159  0.4758 -2.7658
   81CHL1   C14 8416   4.742   0.052   7.380 -0.2377  0.5576 -0.2338
   81CHL1   H14 8417   4.824   0.126   7.392 -3.1987  3.7292  1.9597
   81CHL1   C15 8418   4.811  -0.087   7.392 -0.3720  0.2160 -0.4957
   81CHL1  H15A 8419   4.743  -0.166   7.352 -0.2197 -0.0709 -0.1862
   81CHL1  H15B 8420   4.904  -0.087   7.330 -1.1637  0.5574 -1.7306
   81CHL1   C16 8421   4.856  -0.095   7.539  0.5968 -0.0335 -0.3083
   81CHL1  H16A 8422   4.822  -0.192   7.583  0.8997  0.1073  0.2540
   81CHL1  H16B 8423   4.963  -0.082   7.568  0.2810 -0.5863  1.2148
   81CHL1   C17 8424   4.772   0.012   7.615 -0.1398 -0.5085  0.5099
   81CHL1   H17 8425   4.832   0.105   7.618 -1.6136  0.5582 -0.9172
   81CHL1   C13 8426   4.665   0.070   7.511  0.2879  0.7397 -0.6384
   81CHL1   C18 8427   4.551  -0.033   7.522 -0.5018  0.3713  0.2280
   81CHL1  H18A 8428   4.577  -0.134   7.485 -1.8774  0.5618 -1.3713
   81CHL1  H18B 8429   4.497  -0.028   7.619  1.3357  1.8671  1.2276
   81CHL1  H18C 8430   4.471   0.004   7.454 -1.7817  1.1928  2.1058
   81CHL1   C12 8431   4.617   0.219   7.525  0.4702  0.7224 -0.8914
   81CHL1  H12A 8432   4.556   0.223   7.617  0.1453  0.3330 -1.0871
   81CHL1  H12B 8433   4.703   0.289   7.520  1.4826 -0.2514  1.4860
   81CHL1   C11 8434   4.522   0.241   7.405  0.8141  0.2098  0.8886
   81CHL1  H11A 8435   4.425   0.187   7.411 -0.1888  1.9130  0.7024
   81CHL1  H11B 8436   4.499   0.350   7.411  0.6282  0.1476  1.3281
   81CHL1    C9 8437   4.603   0.224   7.271  0.7792  0.2289 -0.7007
   81CHL1    H9 8438   4.691   0.289   7.288  1.3304 -0.1391 -2.0741
   81CHL1   C10 8439   4.539   0.284   7.142  0.1528  0.3073 -0.2592
   81CHL1   C19 8440   4.383   0.245   7.141  0.4793  0.7643 -0.3543
   81CHL1  H19A 8441   4.338   0.291   7.231 -1.1252 -1.8417  0.2896
   81CHL1  H19B 8442   4.341   0.266   7.041 -0.8720 -0.1337  0.0080
   81CHL1  H19C 8443   4.372   0.139   7.174  1.8345 -0.2691 -2.9275
   81CHL1    C1 8444   4.551   0.437   7.144  0.6772  0.5446 -0.1777
   81CHL1   H1A 8445   4.499   0.492   7.225  0.0875  0.1572 -0.2901
   81CHL1   H1B 8446   4.659   0.458   7.159  1.2079 -0.8510 -1.7042
   81CHL1    C2 8447   4.505   0.513   7.019  0.5106  0.2288 -0.0811
   81CHL1   H2A 8448   4.509   0.623   7.026 -1.7837  0.4259 -1.1739
   81CHL1   H2B 8449   4.397   0.491   7.009  0.1408  0.2532  2.8357
   81CHL1   C20 8450   4.729  -0.022   7.759 -0.3855 -0.0499  0.0919
   81CHL1   H20 8451   4.637  -0.085   7.761 -2.2827  2.5349  1.9673
   81CHL1   C21 8452   4.685   0.105   7.836  0.7233  0.3648  0.4187
   81CHL1  H21A 8453   4.584   0.141   7.805  1.1694 -0.9621 -3.0633
   81CHL1  H21B 8454   4.757   0.187   7.814  0.7585  0.7260  1.8371
   81CHL1  H21C 8455   4.681   0.079   7.944  2.1197 -2.8246 -0.1958
   81CHL1   C22 8456   4.837  -0.103   7.837  0.0859  0.2139 -0.5000
   81CHL1  H22A 8457   4.843  -0.200   7.782 -1.4673 -0.9454  1.2497
   81CHL1  H22B 8458   4.936  -0.053   7.839  1.1259 -1.7721  1.2764
   81CHL1   C23 8459   4.802  -0.131   7.988 -0.3981 -0.6616 -0.2500
   81CHL1  H23A 8460   4.692  -0.117   7.999 -0.2369  3.3058 -2.0307
   81CHL1  H23B 8461   4.829  -0.236   8.010 -0.6490 -0.1501  2.9148
   81CHL1   C24 8462   4.887  -0.049   8.092  0.3054  0.0333  0.2553
   81CHL1  H24A 8463   4.995  -0.049   8.066  0.2964  0.7223  0.1867
   81CHL1  H24B 8464   4.849   0.055   8.083 -0.0446 -0.0980  0.2258
   81CHL1   C25 8465   4.876  -0.104   8.241  0.2014  0.3484  0.5684
   81CHL1   H25 8466   4.884  -0.214   8.226 -2.7929  0.1549 -0.1629
   81CHL1   C26 8467   4.985  -0.039   8.325  0.0780  0.2221  0.3746
   81CHL1  H26A 8468   4.989   0.069   8.301 -0.8992 -0.1280 -1.4919
   81CHL1  H26B 8469   4.961  -0.047   8.434 -0.4612 -3.1848  0.1178
   81CHL1  H26C 8470   5.084  -0.085   8.304 -0.6043 -1.2736  0.3474
   81CHL1   C27 8471   4.742  -0.071   8.297  0.7797  0.4497  0.3720
   81CHL1  H27A 8472   4.716  -0.125   8.390 -1.8406 -0.1115 -0.6064
   81CHL1  H27B 8473   4.746   0.039   8.312 -2.0945  0.5378  1.1123
   81CHL1  H27C 8474   4.658  -0.097   8.229 -0.8544 -0.3119  2.5689
   82CHL1    C3 8475   6.042   1.071   6.901 -0.4730  0.1125 -0.4027
   82CHL1    H3 8476   5.987   0.974   6.908  0.2955 -0.3050  0.0129
   82CHL1    O3 8477   6.059   1.095   6.764  0.3887  0.1754  0.0343
   82CHL1   H3' 8478   5.971   1.110   6.730  0.3545 -1.1239 -0.5087
   82CHL1    C4 8479   5.983   1.185   6.985 -0.1042  0.4962  0.0539
   82CHL1   H4A 8480   6.060   1.266   6.992  1.5725 -1.1454  2.0006
   82CHL1   H4B 8481   5.883   1.206   6.943  0.0223  0.3146 -0.3424
   82CHL1    C5 8482   5.964   1.145   7.129  0.6205 -0.6679 -0.1264
   82CHL1    C6 8483   5.841   1.141   7.190 -0.2084  0.0425  0.0939
   82CHL1    H6 8484   5.749   1.165   7.136  0.2136  3.4205  0.6324
   82CHL1    C7 8485   5.810   1.101   7.329  0.1342 -0.6933 -0.9154
   82CHL1   H7A 8486   5.746   1.175   7.381  0.7795 -0.8258  0.1030
   82CHL1   H7B 8487   5.770   0.998   7.340 -1.8179  0.1514  0.5407
   82CHL1    C8 8488   5.939   1.098   7.417 -0.1116  1.3036  0.1740
   82CHL1    H8 8489   5.972   1.200   7.447  2.2583  0.9880 -1.0895
   82CHL1   C14 8490   5.915   1.015   7.546  0.2730 -0.5843 -0.2601
   82CHL1   H14 8491   5.892   0.913   7.511  1.1229 -0.5041 -1.1067
   82CHL1   C15 8492   5.805   1.077   7.635  0.1177  0.4099  0.3829
   82CHL1  H15A 8493   5.830   1.185   7.642  0.4902  0.2400  2.0964
   82CHL1  H15B 8494   5.708   1.056   7.585  1.2506  0.7558 -2.0712
   82CHL1   C16 8495   5.822   1.008   7.773 -0.0085 -0.2774  0.2430
   82CHL1  H16A 8496   5.839   1.082   7.853 -1.2415 -1.5881  1.7849
   82CHL1  H16B 8497   5.746   0.932   7.802  1.1931 -1.5882  0.0919
   82CHL1   C17 8498   5.955   0.927   7.755  0.0106  0.4871  0.4819
   82CHL1   H17 8499   5.928   0.827   7.715 -0.3358  0.7839 -0.0308
   82CHL1   C13 8500   6.031   0.999   7.643  0.8378 -1.2050 -0.4055
   82CHL1   C18 8501   6.086   1.133   7.706 -0.1683 -0.5765  0.5404
   82CHL1  H18A 8502   6.170   1.108   7.775  0.9497  0.9118 -0.2190
   82CHL1  H18B 8503   6.133   1.202   7.633  2.3982 -1.8509  0.8426
   82CHL1  H18C 8504   6.010   1.199   7.753 -0.5826  0.6132 -1.6663
   82CHL1   C12 8505   6.133   0.917   7.560  0.3055 -0.0945  0.1694
   82CHL1  H12A 8506   6.218   0.888   7.625 -1.4030  0.1953  2.6508
   82CHL1  H12B 8507   6.074   0.827   7.534  0.3267  0.4108 -1.8123
   82CHL1   C11 8508   6.170   0.989   7.439  0.2218 -0.2033 -0.5586
   82CHL1  H11A 8509   6.224   1.081   7.469 -0.9138 -0.0701  1.2409
   82CHL1  H11B 8510   6.246   0.934   7.380 -0.0802 -0.8066 -0.3992
   82CHL1    C9 8511   6.050   1.028   7.343 -0.5005  0.5898 -0.3538
   82CHL1    H9 8512   6.007   0.931   7.311  0.2602  0.0114  0.3381
   82CHL1   C10 8513   6.091   1.097   7.203  0.2750 -0.5880 -0.1850
   82CHL1   C19 8514   6.185   1.222   7.235  0.6240  0.7424  0.0436
   82CHL1  H19A 8515   6.273   1.186   7.293  0.5373  1.9851  1.0011
   82CHL1  H19B 8516   6.217   1.255   7.134 -2.8200  0.3232 -1.3085
   82CHL1  H19C 8517   6.134   1.302   7.293  0.3664  1.2163 -0.8149
   82CHL1    C1 8518   6.167   0.990   7.114  0.8042 -0.2933  0.2570
   82CHL1   H1A 8519   6.268   0.975   7.160  0.6300 -1.8734  0.1572
   82CHL1   H1B 8520   6.104   0.899   7.111  0.3628  0.0213 -0.0152
   82CHL1    C2 8521   6.181   1.037   6.967  0.3784 -0.0439  0.3206
   82CHL1   H2A 8522   6.220   0.956   6.902 -0.5367  0.2340 -0.5938
   82CHL1   H2B 8523   6.239   1.132   6.956 -2.8638  2.2922  1.6793
   82CHL1   C20 8524   6.032   0.905   7.891  0.6871 -0.0200 -1.0874
   82CHL1   H20 8525   6.041   0.996   7.953 -1.7236 -1.3373  1.3998
   82CHL1   C21 8526   6.170   0.839   7.869 -0.3516  0.1689 -0.8480
   82CHL1  H21A 8527   6.165   0.770   7.782 -2.9192 -1.8525  0.7449
   82CHL1  H21B 8528   6.198   0.784   7.961 -4.2213 -0.2330  0.2883
   82CHL1  H21C 8529   6.255   0.903   7.837 -0.7920  0.4620 -1.4625
   82CHL1   C22 8530   5.944   0.811   7.983  0.0827 -1.0962  0.9391
   82CHL1  H22A 8531   5.842   0.856   7.991 -0.5001 -2.1049 -0.3362
   82CHL1  H22B 8532   5.921   0.713   7.936  0.4035 -1.8621  2.3412
   82CHL1   C23 8533   5.989   0.787   8.129  0.2109  0.3250 -0.5082
   82CHL1  H23A 8534   6.078   0.720   8.131  1.6450  2.1548  0.4866
   82CHL1  H23B 8535   6.025   0.880   8.178 -0.8761  0.3397  0.2925
   82CHL1   C24 8536   5.882   0.709   8.216  0.3017 -0.7403  0.8113
   82CHL1  H24A 8537   5.795   0.778   8.223  0.7835  0.0953 -0.9971
   82CHL1  H24B 8538   5.846   0.623   8.156  0.5282 -1.8228  2.1816
   82CHL1   C25 8539   5.946   0.669   8.349  0.2384 -0.0589  0.6248
   82CHL1   H25 8540   6.012   0.753   8.381  0.7456 -0.6732  1.2268
   82CHL1   C26 8541   5.844   0.659   8.464 -0.4707 -0.0173  0.4059
   82CHL1  H26A 8542   5.786   0.566   8.444 -0.0435 -0.4509  1.1302
   82CHL1  H26B 8543   5.887   0.637   8.564 -0.7357  0.0521  0.5357
   82CHL1  H26C 8544   5.780   0.748   8.480 -0.7377 -0.5291  2.4950
   82CHL1   C27 8545   6.029   0.538   8.330  0.2973 -0.2507 -0.0428
   82CHL1  H27A 8546   6.119   0.566   8.272 -0.8388 -1.1443 -2.3266
   82CHL1  H27B 8547   6.054   0.507   8.434 -0.4469 -3.9541 -0.8209
   82CHL1  H27C 8548   5.987   0.453   8.274  0.7123  0.8718 -2.1377
   83CHL1    C3 8549   6.489   2.188   6.903 -0.0982 -0.0393  0.0824
   83CHL1    H3 8550   6.392   2.142   6.930  0.0236  0.0763  0.7187
   83CHL1    O3 8551   6.479   2.220   6.766  0.2680 -0.2893  0.0040
   83CHL1   H3' 8552   6.475   2.134   6.722 -1.3914 -0.1032 -0.2541
   83CHL1    C4 8553   6.505   2.314   6.986 -0.8964 -1.1370  0.2399
   83CHL1   H4A 8554   6.596   2.369   6.952 -2.6657  0.8608 -1.5645
   83CHL1   H4B 8555   6.424   2.389   6.975  0.5491  0.2277 -2.0740
   83CHL1    C5 8556   6.508   2.284   7.138 -0.2243  0.2375 -0.3423
   83CHL1    C6 8557   6.403   2.322   7.213  0.1056  0.8042  0.1525
   83CHL1    H6 8558   6.318   2.366   7.159  0.9193  0.7418 -1.2139
   83CHL1    C7 8559   6.401   2.303   7.358 -0.4335  0.2862  0.1433
   83CHL1   H7A 8560   6.364   2.394   7.411  0.3220 -0.0327  1.2620
   83CHL1   H7B 8561   6.326   2.224   7.381  0.6415 -1.6946 -2.7062
   83CHL1    C8 8562   6.546   2.276   7.412 -1.3230 -0.3942 -0.2592
   83CHL1    H8 8563   6.600   2.369   7.384 -0.1810 -1.0486 -0.2993
   83CHL1   C14 8564   6.555   2.254   7.566 -0.1002  0.0297 -0.2956
   83CHL1   H14 8565   6.489   2.169   7.593  1.0634 -0.3744  1.3797
   83CHL1   C15 8566   6.518   2.379   7.654 -0.3549  0.5152  0.4739
   83CHL1  H15A 8567   6.574   2.471   7.627 -1.4080  0.9109 -0.4069
   83CHL1  H15B 8568   6.410   2.401   7.661 -0.8051 -0.6981 -1.8641
   83CHL1   C16 8569   6.587   2.344   7.787  0.4798  0.1720  0.1538
   83CHL1  H16A 8570   6.655   2.427   7.812  0.4427 -0.0489  1.0130
   83CHL1  H16B 8571   6.515   2.327   7.871  1.7750  0.3924  1.3388
   83CHL1   C17 8572   6.670   2.214   7.771 -0.1272  0.0021 -0.3878
   83CHL1   H17 8573   6.607   2.130   7.808  0.6100  0.6482  2.5634
   83CHL1   C13 8574   6.692   2.198   7.617  1.0563 -0.5799  0.0718
   83CHL1   C18 8575   6.806   2.307   7.584  0.7304 -0.7680  0.1598
   83CHL1  H18A 8576   6.792   2.355   7.485  1.7030 -2.5799 -0.9195
   83CHL1  H18B 8577   6.805   2.392   7.655 -0.1690  1.6502 -2.5466
   83CHL1  H18C 8578   6.898   2.246   7.582 -0.0347 -1.9423 -0.4220
   83CHL1   C12 8579   6.724   2.064   7.552 -0.3464  0.7095  0.1308
   83CHL1  H12A 8580   6.818   2.013   7.585  0.0505  0.7411 -0.9128
   83CHL1  H12B 8581   6.640   1.996   7.581  0.5789  0.7131  3.1987
   83CHL1   C11 8582   6.724   2.083   7.402 -0.1316 -0.2013 -0.0931
   83CHL1  H11A 8583   6.826   2.124   7.386  0.8403 -2.7652 -0.9361
   83CHL1  H11B 8584   6.715   1.985   7.352  0.0600  1.1042 -2.8883
   83CHL1    C9 8585   6.602   2.160   7.337 -0.6079 -0.2508 -0.0847
   83CHL1    H9 8586   6.533   2.074   7.347 -0.4153 -0.3912  0.0457
   83CHL1   C10 8587   6.625   2.189   7.185  0.1989  0.5131  0.5067
   83CHL1   C19 8588   6.773   2.249   7.173 -0.3387 -0.6050  0.3520
   83CHL1  H19A 8589   6.786   2.287   7.070  0.3245 -0.0227  0.6417
   83CHL1  H19B 8590   6.773   2.335   7.244  1.0628 -0.3139  0.0263
   83CHL1  H19C 8591   6.856   2.178   7.194  0.6077 -0.0360 -1.3291
   83CHL1    C1 8592   6.606   2.070   7.090 -0.1245 -0.4374  0.1707
   83CHL1   H1A 8593   6.697   2.006   7.098  2.5188  2.8507 -0.8419
   83CHL1   H1B 8594   6.515   2.011   7.111 -0.3309 -0.0833  0.2791
   83CHL1    C2 8595   6.606   2.095   6.937 -0.2954  0.3180 -0.2888
   83CHL1   H2A 8596   6.591   2.000   6.883 -3.0224  0.6585 -0.2855
   83CHL1   H2B 8597   6.699   2.136   6.892 -0.0069  1.1429  1.0079
   83CHL1   C20 8598   6.797   2.211   7.862 -0.5961  0.2815  0.4598
   83CHL1   H20 8599   6.864   2.293   7.829  0.9433 -1.8343 -2.0173
   83CHL1   C21 8600   6.865   2.072   7.849  0.4293 -0.0871 -0.0058
   83CHL1  H21A 8601   6.939   2.054   7.930  1.3609 -1.0514 -1.0301
   83CHL1  H21B 8602   6.913   2.078   7.749 -1.3870  0.4328 -0.8913
   83CHL1  H21C 8603   6.794   1.987   7.851 -0.9577  1.0336 -0.4706
   83CHL1   C22 8604   6.773   2.235   8.015  0.2035 -0.6116  0.4812
   83CHL1  H22A 8605   6.867   2.222   8.072  1.7898  1.0475 -1.5997
   83CHL1  H22B 8606   6.756   2.343   8.034 -1.9327 -0.8684  0.3097
   83CHL1   C23 8607   6.665   2.150   8.081  0.6022 -0.1490  0.1475
   83CHL1  H23A 8608   6.569   2.201   8.060  1.5182  0.6283 -2.5948
   83CHL1  H23B 8609   6.668   2.053   8.028  0.2876 -0.5964  0.9407
   83CHL1   C24 8610   6.675   2.139   8.240 -0.2346  0.8003 -0.3587
   83CHL1  H24A 8611   6.678   2.247   8.266  0.6566  0.8378 -0.5853
   83CHL1  H24B 8612   6.580   2.092   8.274  0.0177  0.5703  0.0307
   83CHL1   C25 8613   6.799   2.060   8.289  0.4979 -0.5658 -0.2760
   83CHL1   H25 8614   6.891   2.076   8.229  1.1419 -1.0373  0.5687
   83CHL1   C26 8615   6.830   2.100   8.434 -0.1909 -0.6006 -0.4127
   83CHL1  H26A 8616   6.765   2.044   8.504  0.3374 -1.3697 -0.5257
   83CHL1  H26B 8617   6.936   2.073   8.456  0.0136 -0.6475 -1.4177
   83CHL1  H26C 8618   6.817   2.209   8.450  0.5491 -0.3758 -1.2430
   83CHL1   C27 8619   6.786   1.906   8.285  0.0037  0.5791  1.4501
   83CHL1  H27A 8620   6.767   1.878   8.179 -0.0365 -2.3617  2.1319
   83CHL1  H27B 8621   6.885   1.860   8.307 -0.2680 -1.1673 -0.5898
   83CHL1  H27C 8622   6.714   1.871   8.363 -1.3642 -1.0079 -0.4136
   84CHL1    C3 8623   1.639   4.748   6.757 -1.1570 -0.6210 -0.1990
   84CHL1    H3 8624   1.631   4.849   6.802  0.1767 -0.6427  0.1467
   84CHL1    O3 8625   1.679   4.748   6.619  0.3085 -0.1244  0.3809
   84CHL1   H3' 8626   1.720   4.664   6.597 -0.6407 -0.9278  1.5291
   84CHL1    C4 8627   1.747   4.671   6.845  0.2385  0.0963 -0.0165
   84CHL1   H4A 8628   1.753   4.573   6.795  1.1991 -0.8990  1.9302
   84CHL1   H4B 8629   1.850   4.712   6.835  0.4882 -0.9588 -2.0704
   84CHL1    C5 8630   1.704   4.661   6.990  0.2390  0.0945  0.0137
   84CHL1    C6 8631   1.778   4.703   7.101  1.1423  0.6669 -0.2919
   84CHL1    H6 8632   1.878   4.746   7.083  1.3689 -0.7247 -3.0788
   84CHL1    C7 8633   1.734   4.688   7.241  0.3081  0.8819  0.5624
   84CHL1   H7A 8634   1.809   4.630   7.299 -1.9442 -3.3269 -0.3004
   84CHL1   H7B 8635   1.724   4.789   7.285 -0.3022  0.8188  0.5759
   84CHL1    C8 8636   1.610   4.595   7.264 -0.0026  0.1558  0.1704
   84CHL1    H8 8637   1.651   4.492   7.254  1.5785  0.5495  2.0286
   84CHL1   C14 8638   1.546   4.614   7.406 -1.1114  0.2043 -0.4064
   84CHL1   H14 8639   1.516   4.720   7.415 -0.3808  0.4130 -0.3104
   84CHL1   C15 8640   1.634   4.586   7.531 -0.5298 -0.0595 -0.0132
   84CHL1  H15A 8641   1.686   4.488   7.525  0.8892  0.7060 -0.6672
   84CHL1  H15B 8642   1.707   4.669   7.541 -1.0073  0.2168  1.3176
   84CHL1   C16 8643   1.533   4.574   7.648 -0.0636 -0.1080 -0.3756
   84CHL1  H16A 8644   1.531   4.471   7.690  1.6204  0.1490  0.3867
   84CHL1  H16B 8645   1.557   4.639   7.734 -0.5881 -0.2830 -0.0892
   84CHL1   C17 8646   1.389   4.581   7.581 -0.1789 -0.1867  0.5885
   84CHL1   H17 8647   1.371   4.691   7.581  0.7018 -0.0044  2.3578
   84CHL1   C13 8648   1.423   4.528   7.439  0.0095  0.0406  0.1395
   84CHL1   C18 8649   1.466   4.379   7.429  0.2593 -0.3353  0.3687
   84CHL1  H18A 8650   1.387   4.301   7.429  0.4083 -0.5036  1.4648
   84CHL1  H18B 8651   1.518   4.350   7.335 -0.4875  0.0665 -0.1775
   84CHL1  H18C 8652   1.535   4.351   7.512  0.8414  1.2240  0.4270
   84CHL1   C12 8653   1.318   4.561   7.332  0.3929 -0.7416  0.3230
   84CHL1  H12A 8654   1.236   4.486   7.336  1.3215 -1.8546 -0.8387
   84CHL1  H12B 8655   1.295   4.666   7.362 -1.8009 -1.1235  0.1533
   84CHL1   C11 8656   1.365   4.559   7.185 -0.8055 -0.3934 -0.0569
   84CHL1  H11A 8657   1.376   4.449   7.178 -1.6716 -0.5574  0.9321
   84CHL1  H11B 8658   1.288   4.608   7.120 -1.1031 -0.7466  0.0245
   84CHL1    C9 8659   1.503   4.630   7.157  0.5616  0.7140  0.1605
   84CHL1    H9 8660   1.495   4.738   7.182  3.3965  0.3053  3.9170
   84CHL1   C10 8661   1.558   4.606   7.013 -0.0393  0.7550  0.2495
   84CHL1   C19 8662   1.578   4.457   6.988  0.5808  0.4560  0.3534
   84CHL1  H19A 8663   1.481   4.404   6.998  0.9094 -0.2153  0.0690
   84CHL1  H19B 8664   1.613   4.429   6.886  0.3151 -0.5825  0.5379
   84CHL1  H19C 8665   1.660   4.419   7.052  0.4842 -0.5600 -0.1010
   84CHL1    C1 8666   1.461   4.674   6.907  0.3542 -0.3092  0.5903
   84CHL1   H1A 8667   1.371   4.610   6.901 -0.1099  0.4233 -1.0822
   84CHL1   H1B 8668   1.427   4.777   6.929  1.1472  0.1729 -0.3067
   84CHL1    C2 8669   1.508   4.672   6.755 -0.2384  0.1068  0.3242
   84CHL1   H2A 8670   1.432   4.705   6.682 -1.7102  0.3858  1.9190
   84CHL1   H2B 8671   1.525   4.568   6.719 -2.5724 -0.0970 -0.3640
   84CHL1   C20 8672   1.272   4.517   7.658 -0.3160  0.1563  0.4964
   84CHL1   H20 8673   1.265   4.410   7.631 -0.8299  0.3894 -0.3303
   84CHL1   C21 8674   1.138   4.574   7.600 -0.3223  0.3112  0.8657
   84CHL1  H21A 8675   1.051   4.544   7.663  0.4943 -0.1570  1.7984
   84CHL1  H21B 8676   1.115   4.546   7.495  1.5530  1.1068  0.2060
   84CHL1  H21C 8677   1.147   4.684   7.607  2.4439  0.2358 -0.2395
   84CHL1   C22 8678   1.274   4.507   7.814  0.6877 -0.2965 -0.6208
   84CHL1  H22A 8679   1.195   4.437   7.847 -0.0657 -0.1349 -2.0187
   84CHL1  H22B 8680   1.371   4.467   7.851  0.7257 -1.0547 -1.5394
   84CHL1   C23 8681   1.248   4.645   7.880  0.3074  0.1619 -0.2499
   84CHL1  H23A 8682   1.282   4.732   7.821 -0.8954  0.1357 -1.0073
   84CHL1  H23B 8683   1.138   4.658   7.896 -0.0587 -0.7947 -1.7980
   84CHL1   C24 8684   1.322   4.651   8.018  0.4053  0.7956 -0.3513
   84CHL1  H24A 8685   1.312   4.563   8.085  3.0023  1.0171  0.4160
   84CHL1  H24B 8686   1.432   4.650   8.007  0.2698  0.8854 -1.8927
   84CHL1   C25 8687   1.293   4.775   8.095 -0.1509 -0.4973 -0.2071
   84CHL1   H25 8688   1.274   4.858   8.023 -2.8478  0.1881  1.1713
   84CHL1   C26 8689   1.171   4.764   8.181 -0.3696 -0.3919 -0.3002
   84CHL1  H26A 8690   1.166   4.680   8.253 -0.7325  0.5218  0.7617
   84CHL1  H26B 8691   1.147   4.858   8.235 -0.5279  0.0010 -1.0420
   84CHL1  H26C 8692   1.082   4.758   8.114 -1.7721  0.7493  1.3783
   84CHL1   C27 8693   1.408   4.814   8.182  0.3060  0.6445 -0.6335
   84CHL1  H27A 8694   1.501   4.829   8.123  0.0371 -1.1415 -1.6144
   84CHL1  H27B 8695   1.396   4.910   8.235  0.8938  0.4285 -0.0943
   84CHL1  H27C 8696   1.426   4.729   8.251 -0.3404  0.7957 -0.2679
   85CHL1    C3 8697   3.548   2.496   6.798 -0.4460  0.5206 -0.6240
   85CHL1    H3 8698   3.646   2.447   6.816  0.3315  2.0003 -0.7173
   85CHL1    O3 8699   3.548   2.537   6.661 -0.3729  0.2953  0.4478
   85CHL1   H3' 8700   3.467   2.586   6.645 -0.8749  0.0757  2.0756
   85CHL1    C4 8701   3.440   2.391   6.833 -0.4441  0.1877 -0.1195
   85CHL1   H4A 8702   3.342   2.435   6.803  0.2356  2.2841  0.5679
   85CHL1   H4B 8703   3.469   2.304   6.771 -1.5497  1.5926 -2.8121
   85CHL1    C5 8704   3.441   2.369   6.985 -1.2181 -0.6459 -0.3227
   85CHL1    C6 8705   3.459   2.247   7.030 -0.2573  0.2880 -0.1202
   85CHL1    H6 8706   3.483   2.167   6.957  1.3086 -0.9513  1.6626
   85CHL1    C7 8707   3.443   2.201   7.173  0.5711 -0.3484  0.4106
   85CHL1   H7A 8708   3.369   2.118   7.179 -0.0137 -0.1501 -2.5902
   85CHL1   H7B 8709   3.545   2.178   7.211  0.5914 -1.4090 -0.2389
   85CHL1    C8 8710   3.378   2.310   7.263  0.2151  0.0101  0.2986
   85CHL1    H8 8711   3.267   2.301   7.256  0.0403  1.4161  0.8534
   85CHL1   C14 8712   3.404   2.291   7.413 -0.7064 -0.4350  0.3521
   85CHL1   H14 8713   3.515   2.292   7.419 -0.5130 -0.0141 -2.2474
   85CHL1   C15 8714   3.364   2.156   7.486 -0.4903 -0.0565  0.6311
   85CHL1  H15A 8715   3.264   2.129   7.447  0.4038 -2.0006 -0.4807
   85CHL1  H15B 8716   3.446   2.094   7.443 -1.7633 -0.7850 -0.8284
   85CHL1   C16 8717   3.376   2.188   7.630  0.2061  0.2939  0.0995
   85CHL1  H16A 8718   3.281   2.155   7.676  0.0036 -0.5451 -0.8909
   85CHL1  H16B 8719   3.456   2.122   7.670 -1.2597 -1.0532  0.9295
   85CHL1   C17 8720   3.415   2.338   7.646  0.0972  0.8079 -0.8707
   85CHL1   H17 8721   3.526   2.333   7.638  0.0909 -1.9616 -0.2553
   85CHL1   C13 8722   3.362   2.395   7.509 -0.3413  0.4221 -0.2660
   85CHL1   C18 8723   3.213   2.403   7.522 -0.3253 -0.0757  0.2144
   85CHL1  H18A 8724   3.159   2.327   7.582 -1.3503 -0.5797 -1.2645
   85CHL1  H18B 8725   3.176   2.495   7.571 -1.2249 -0.0205 -0.5286
   85CHL1  H18C 8726   3.162   2.388   7.424 -0.6212 -0.8891  0.4812
   85CHL1   C12 8727   3.426   2.527   7.462  0.3019 -0.3514 -1.3316
   85CHL1  H12A 8728   3.382   2.610   7.522  1.4832  0.2081 -1.2190
   85CHL1  H12B 8729   3.536   2.530   7.475  0.0461 -0.3550  1.6400
   85CHL1   C11 8730   3.373   2.556   7.323  0.2825  0.5485  0.0160
   85CHL1  H11A 8731   3.262   2.557   7.318  0.2253 -0.6175  0.5732
   85CHL1  H11B 8732   3.426   2.649   7.293  0.5820  0.0629 -1.0114
   85CHL1    C9 8733   3.425   2.452   7.223 -0.0370  0.3419 -0.5772
   85CHL1    H9 8734   3.535   2.452   7.235 -0.1403 -2.4211  1.1014
   85CHL1   C10 8735   3.405   2.488   7.077  0.5712  0.4598 -0.0989
   85CHL1   C19 8736   3.256   2.527   7.047  0.0898  0.5287  0.6705
   85CHL1  H19A 8737   3.197   2.447   7.096 -0.2920 -1.0677 -2.1880
   85CHL1  H19B 8738   3.236   2.626   7.092 -2.8429  0.0634  0.5814
   85CHL1  H19C 8739   3.226   2.544   6.942 -1.8226 -0.1630  1.0721
   85CHL1    C1 8740   3.502   2.602   7.039  0.5173  0.4884 -0.2884
   85CHL1   H1A 8741   3.473   2.700   7.082  2.0225  0.8120  0.0614
   85CHL1   H1B 8742   3.600   2.577   7.085  0.6800  0.4141 -0.6639
   85CHL1    C2 8743   3.531   2.625   6.893 -0.0897  0.4117  0.0717
   85CHL1   H2A 8744   3.628   2.678   6.888  0.5297 -0.6883  0.1388
   85CHL1   H2B 8745   3.451   2.691   6.851 -0.1594  0.4964  0.3334
   85CHL1   C20 8746   3.359   2.392   7.779  0.5487 -0.2439  0.0622
   85CHL1   H20 8747   3.248   2.389   7.788  0.5057  2.0181  0.9615
   85CHL1   C21 8748   3.384   2.543   7.783  0.0850 -0.5157  0.4354
   85CHL1  H21A 8749   3.311   2.603   7.725 -0.0624 -0.3076  0.8290
   85CHL1  H21B 8750   3.486   2.562   7.743  0.4474  0.8554  1.9153
   85CHL1  H21C 8751   3.379   2.588   7.885  2.9356  1.8261 -0.3287
   85CHL1   C22 8752   3.420   2.311   7.904 -0.0516 -0.1726  0.3009
   85CHL1  H22A 8753   3.418   2.203   7.878  0.3713 -0.4477  1.3737
   85CHL1  H22B 8754   3.527   2.334   7.926  0.4511 -0.0956 -1.9797
   85CHL1   C23 8755   3.355   2.339   8.039 -0.4008  0.0752  0.4701
   85CHL1  H23A 8756   3.370   2.446   8.066 -0.5416  0.8591 -2.2790
   85CHL1  H23B 8757   3.251   2.302   8.029 -0.2261 -0.1426 -0.6911
   85CHL1   C24 8758   3.400   2.241   8.153 -0.0476  0.0469  0.0947
   85CHL1  H24A 8759   3.397   2.136   8.119  1.1755  0.0137  0.0573
   85CHL1  H24B 8760   3.510   2.255   8.156  0.0336 -0.6790  0.6881
   85CHL1   C25 8761   3.347   2.265   8.290  0.0014 -1.1860  0.3465
   85CHL1   H25 8762   3.236   2.257   8.291 -0.0800 -0.7566  2.8369
   85CHL1   C26 8763   3.384   2.149   8.380  0.1469  0.6952  0.9253
   85CHL1  H26A 8764   3.493   2.153   8.395  0.3969 -1.7720  0.1432
   85CHL1  H26B 8765   3.336   2.135   8.479  0.0931 -0.2083  0.7803
   85CHL1  H26C 8766   3.382   2.046   8.338  1.5868 -0.1683  2.8625
   85CHL1   C27 8767   3.394   2.404   8.350 -0.1013 -0.0703  0.0838
   85CHL1  H27A 8768   3.503   2.419   8.365  1.0846 -4.2457 -2.5491
   85CHL1  H27B 8769   3.350   2.490   8.297 -0.4540  0.9774  1.9912
   85CHL1  H27C 8770   3.350   2.404   8.452 -0.7706 -0.0713 -0.1948
   86CHL1    C3 8771   5.654   1.834   7.163  0.0601  0.4277  0.1239
   86CHL1    H3 8772   5.671   1.725   7.176  2.8072  0.5933 -1.3080
   86CHL1    O3 8773   5.658   1.868   7.024  0.0622  0.5183 -0.4059
   86CHL1   H3' 8774   5.730   1.931   7.018  0.2075  0.5909  1.4679
   86CHL1    C4 8775   5.516   1.877   7.223 -0.3994  0.8368  0.2102
   86CHL1   H4A 8776   5.489   1.982   7.196  1.3798  0.9607 -1.3792
   86CHL1   H4B 8777   5.446   1.824   7.155  1.1098 -0.1720 -0.6270
   86CHL1    C5 8778   5.507   1.852   7.374  0.4715  0.0023 -0.2346
   86CHL1    C6 8779   5.418   1.768   7.431  0.0386 -0.2276  0.0776
   86CHL1    H6 8780   5.346   1.719   7.364 -1.9427 -1.0258  2.6111
   86CHL1    C7 8781   5.413   1.731   7.575  0.1246 -0.3847  0.0880
   86CHL1   H7A 8782   5.307   1.725   7.608  0.9159 -1.0678  2.7310
   86CHL1   H7B 8783   5.465   1.633   7.586 -0.3242 -0.5694  0.5807
   86CHL1    C8 8784   5.481   1.844   7.666  0.3515  0.6988 -0.2137
   86CHL1    H8 8785   5.414   1.932   7.668 -3.0115 -1.6508  2.5731
   86CHL1   C14 8786   5.495   1.783   7.808 -0.1816 -0.3446  0.0740
   86CHL1   H14 8787   5.564   1.697   7.798  0.6809  0.4313 -0.8663
   86CHL1   C15 8788   5.373   1.731   7.876 -0.5005 -0.4025 -0.2826
   86CHL1  H15A 8789   5.292   1.808   7.877  0.8616  1.1997  3.3745
   86CHL1  H15B 8790   5.345   1.638   7.822  3.6028 -2.6296  1.0487
   86CHL1   C16 8791   5.425   1.719   8.018 -0.0369  0.5490  0.7039
   86CHL1  H16A 8792   5.353   1.776   8.081 -1.8934  0.9064 -1.6210
   86CHL1  H16B 8793   5.436   1.613   8.048 -1.2827  0.2104  0.0315
   86CHL1   C17 8794   5.563   1.784   8.027 -0.5114  0.1060 -0.4223
   86CHL1   H17 8795   5.638   1.707   7.999  0.4347  0.8576 -0.0271
   86CHL1   C13 8796   5.564   1.877   7.905  0.2849 -0.5811  0.0913
   86CHL1   C18 8797   5.481   2.005   7.941 -0.7042  0.0068 -0.4845
   86CHL1  H18A 8798   5.467   2.080   7.861  1.2529  1.8086  0.7721
   86CHL1  H18B 8799   5.383   1.966   7.978  0.5437  0.6304  3.9468
   86CHL1  H18C 8800   5.521   2.058   8.029 -0.9268  0.6891 -0.7863
   86CHL1   C12 8801   5.702   1.913   7.850  0.5465  0.2317 -0.4639
   86CHL1  H12A 8802   5.746   1.989   7.919 -0.7444 -0.2244  0.9089
   86CHL1  H12B 8803   5.770   1.825   7.853 -1.4233 -1.5018 -2.8585
   86CHL1   C11 8804   5.694   1.962   7.705  0.9225 -0.1014 -0.5709
   86CHL1  H11A 8805   5.635   2.056   7.713  1.9104  0.4732  0.1195
   86CHL1  H11B 8806   5.798   1.988   7.674  0.6036  0.7099 -1.0076
   86CHL1    C9 8807   5.617   1.870   7.605 -0.2421 -0.6942 -0.4469
   86CHL1    H9 8808   5.679   1.777   7.610  0.8299  0.0573  0.8627
   86CHL1   C10 8809   5.616   1.921   7.458 -0.1863 -0.0368 -0.5685
   86CHL1   C19 8810   5.582   2.079   7.457  0.1137 -0.0394  0.4698
   86CHL1  H19A 8811   5.556   2.118   7.356  0.1984  0.1617  0.5265
   86CHL1  H19B 8812   5.499   2.088   7.531 -0.5387 -2.9627  0.2477
   86CHL1  H19C 8813   5.665   2.144   7.490 -1.5174  1.3600  2.0704
   86CHL1    C1 8814   5.752   1.902   7.389  0.2235  0.0118  0.5687
   86CHL1   H1A 8815   5.831   1.956   7.445 -1.4593  1.2409  1.8909
   86CHL1   H1B 8816   5.778   1.794   7.401  0.5644 -0.0296 -0.4362
   86CHL1    C2 8817   5.760   1.923   7.236  0.1872  0.3177  0.3770
   86CHL1   H2A 8818   5.863   1.902   7.202 -0.1720  0.0026 -0.5478
   86CHL1   H2B 8819   5.742   2.033   7.226  1.8810  0.5743 -0.0956
   86CHL1   C20 8820   5.611   1.842   8.167  0.3968  0.8100  0.3145
   86CHL1   H20 8821   5.653   1.944   8.157 -0.4778  1.0825 -0.8242
   86CHL1   C21 8822   5.728   1.746   8.212  0.2193  0.9201 -0.6368
   86CHL1  H21A 8823   5.693   1.641   8.217  0.5653  0.8230 -0.2036
   86CHL1  H21B 8824   5.779   1.782   8.304  1.5356 -2.2280 -0.0008
   86CHL1  H21C 8825   5.813   1.752   8.140  1.0690  1.1351  0.3630
   86CHL1   C22 8826   5.501   1.847   8.286 -0.0061 -0.4249 -0.1772
   86CHL1  H22A 8827   5.407   1.885   8.241  0.9633  1.0450 -1.0443
   86CHL1  H22B 8828   5.488   1.739   8.310 -0.4638 -0.1807  0.6854
   86CHL1   C23 8829   5.555   1.921   8.410  0.3640 -0.1044 -0.8514
   86CHL1  H23A 8830   5.651   1.875   8.443  0.3910 -0.1238 -0.9581
   86CHL1  H23B 8831   5.562   2.028   8.383 -1.3577  0.2269 -0.1134
   86CHL1   C24 8832   5.445   1.906   8.528  0.2849 -0.3573 -0.1729
   86CHL1  H24A 8833   5.357   1.956   8.482  0.4208 -0.5451 -0.6426
   86CHL1  H24B 8834   5.423   1.799   8.549 -1.0953  0.1132  0.9386
   86CHL1   C25 8835   5.472   1.987   8.650 -0.3428 -0.4924 -0.2024
   86CHL1   H25 8836   5.509   2.088   8.621  1.2372 -0.9326  0.1502
   86CHL1   C26 8837   5.334   2.012   8.722 -0.3723 -0.5753  0.8546
   86CHL1  H26A 8838   5.265   2.073   8.659  1.1637  1.0729  0.7023
   86CHL1  H26B 8839   5.280   1.916   8.739 -0.5487 -1.0243 -1.7481
   86CHL1  H26C 8840   5.351   2.045   8.826  0.3000 -1.0357  0.8948
   86CHL1   C27 8841   5.584   1.923   8.734  0.2599  0.7914 -0.2090
   86CHL1  H27A 8842   5.543   1.838   8.793  0.3964 -2.0293 -3.8938
   86CHL1  H27B 8843   5.670   1.890   8.672  0.8115 -0.1664  1.0035
   86CHL1  H27C 8844   5.624   1.999   8.805 -3.1297  2.3073  0.2731
   87CHL1    C3 8845   4.042   4.555   6.843  0.8122 -0.7371 -0.8518
   87CHL1    H3 8846   3.936   4.547   6.812  1.1514  0.6768 -2.5323
   87CHL1    O3 8847   4.126   4.547   6.725 -0.5534  0.1296  0.1122
   87CHL1   H3' 8848   4.088   4.609   6.662 -1.8434 -1.0388 -0.3185
   87CHL1    C4 8849   4.069   4.696   6.905  0.0671 -0.9327  0.0311
   87CHL1   H4A 8850   4.178   4.693   6.927  0.3800  0.8159 -1.0506
   87CHL1   H4B 8851   4.052   4.779   6.833  0.2516  1.2945  2.3665
   87CHL1    C5 8852   3.997   4.725   7.031 -1.1554  0.1302  0.0293
   87CHL1    C6 8853   3.912   4.826   7.048 -0.7950 -0.2160 -0.0097
   87CHL1    H6 8854   3.896   4.893   6.962  0.7577 -1.5109 -1.3675
   87CHL1    C7 8855   3.839   4.855   7.176 -0.0955  0.2272  0.1832
   87CHL1   H7A 8856   3.844   4.964   7.198 -0.8226  0.8682 -2.5363
   87CHL1   H7B 8857   3.734   4.818   7.172 -0.4106  1.0236  0.8647
   87CHL1    C8 8858   3.896   4.767   7.291 -0.8463 -0.5502 -0.0113
   87CHL1    H8 8859   3.997   4.811   7.307 -0.8636 -0.4994 -0.0420
   87CHL1   C14 8860   3.810   4.772   7.411 -0.7027 -0.9101 -1.1099
   87CHL1   H14 8861   3.720   4.711   7.386 -0.8128 -0.5373 -1.6300
   87CHL1   C15 8862   3.751   4.914   7.459  0.5380  0.3502  0.5349
   87CHL1  H15A 8863   3.832   4.990   7.450  0.3406  0.6467  1.2006
   87CHL1  H15B 8864   3.670   4.962   7.400  0.6317  2.1487  1.7609
   87CHL1   C16 8865   3.728   4.903   7.605  0.5260  0.2456  0.4038
   87CHL1  H16A 8866   3.791   4.965   7.672 -2.2258  1.4229  2.0849
   87CHL1  H16B 8867   3.620   4.923   7.623  0.3799 -0.4850  0.3965
   87CHL1   C17 8868   3.753   4.760   7.638 -0.5664  0.5141 -0.5815
   87CHL1   H17 8869   3.659   4.705   7.616 -1.4668  1.5880  0.4309
   87CHL1   C13 8870   3.866   4.718   7.546 -0.4630 -0.4009 -0.2782
   87CHL1   C18 8871   3.996   4.794   7.576 -1.0324 -0.0486 -0.4165
   87CHL1  H18A 8872   3.986   4.901   7.604 -0.0097  0.2519 -1.1488
   87CHL1  H18B 8873   4.047   4.734   7.655  0.3834 -1.5130 -2.3281
   87CHL1  H18C 8874   4.064   4.785   7.489 -1.1720 -1.6719 -0.4032
   87CHL1   C12 8875   3.889   4.568   7.522 -1.2269 -0.2055  0.4945
   87CHL1  H12A 8876   3.936   4.516   7.608  0.1855 -1.7024 -1.1077
   87CHL1  H12B 8877   3.785   4.532   7.509 -0.5420 -2.5446  0.9611
   87CHL1   C11 8878   3.968   4.546   7.388  0.3874  0.2368  0.0519
   87CHL1  H11A 8879   4.073   4.566   7.416  0.8045 -0.9328 -0.5941
   87CHL1  H11B 8880   3.962   4.435   7.375 -0.8211  0.4304 -1.2979
   87CHL1    C9 8881   3.923   4.623   7.256  0.3427  0.3170 -0.3876
   87CHL1    H9 8882   3.825   4.577   7.230  0.4376  0.3502 -0.8147
   87CHL1   C10 8883   4.018   4.611   7.136 -0.4776 -0.9152 -0.1083
   87CHL1   C19 8884   4.165   4.611   7.190  0.6936 -0.5335 -0.5980
   87CHL1  H19A 8885   4.168   4.687   7.272 -0.4607  1.3879 -2.2392
   87CHL1  H19B 8886   4.201   4.519   7.240  0.3307  0.6401  2.0155
   87CHL1  H19C 8887   4.246   4.637   7.118  0.1807  1.7321 -0.4509
   87CHL1    C1 8888   3.993   4.472   7.067 -0.0980  0.0011 -0.0863
   87CHL1   H1A 8889   4.021   4.391   7.138  1.5329  0.1050 -0.5818
   87CHL1   H1B 8890   3.885   4.473   7.039 -0.3862  2.0436  0.9434
   87CHL1    C2 8891   4.077   4.443   6.941  0.3788  0.2829  0.0916
   87CHL1   H2A 8892   4.059   4.348   6.886 -0.2579  0.3417  0.1898
   87CHL1   H2B 8893   4.184   4.445   6.972  0.1763 -1.0258  0.9890
   87CHL1   C20 8894   3.786   4.727   7.792  0.2800 -1.0392 -0.3854
   87CHL1   H20 8895   3.894   4.728   7.822  0.1040  0.8312  0.3523
   87CHL1   C21 8896   3.739   4.582   7.836  0.2003  0.0881  0.0501
   87CHL1  H21A 8897   3.771   4.552   7.938 -1.7832 -2.1979  0.0810
   87CHL1  H21B 8898   3.762   4.504   7.760  2.7938  0.1411  0.6724
   87CHL1  H21C 8899   3.628   4.580   7.834  0.1954  0.7520 -0.5974
   87CHL1   C22 8900   3.727   4.825   7.888 -0.0407 -0.6087  0.0309
   87CHL1  H22A 8901   3.796   4.912   7.878 -1.0733  0.3231  0.7166
   87CHL1  H22B 8902   3.622   4.841   7.856 -0.4096 -4.1337 -0.9162
   87CHL1   C23 8903   3.730   4.799   8.040 -0.2204 -0.2980  0.2274
   87CHL1  H23A 8904   3.669   4.876   8.091  1.4105  0.5634  0.9747
   87CHL1  H23B 8905   3.687   4.700   8.066 -0.8361 -0.2210 -0.4797
   87CHL1   C24 8906   3.880   4.793   8.090  0.0043 -0.6747  0.1159
   87CHL1  H24A 8907   3.872   4.742   8.188 -1.4828 -0.6796  0.0117
   87CHL1  H24B 8908   3.944   4.737   8.018  1.7276  1.1448  0.1638
   87CHL1   C25 8909   3.942   4.934   8.118  1.2194 -0.0893  0.2960
   87CHL1   H25 8910   3.959   4.986   8.021 -0.4675 -1.5665 -0.8463
   87CHL1   C26 8911   3.859   5.023   8.210  0.2020  0.1255 -0.7376
   87CHL1  H26A 8912   3.777   5.073   8.155 -0.4167  0.4419  0.4449
   87CHL1  H26B 8913   3.812   4.961   8.289 -0.4770  1.2842 -0.2073
   87CHL1  H26C 8914   3.916   5.109   8.252 -0.1878  0.1187 -0.1823
   87CHL1   C27 8915   4.081   4.920   8.179  0.1495 -0.0991  0.3850
   87CHL1  H27A 8916   4.144   4.850   8.120 -0.9642 -0.9600  0.1692
   87CHL1  H27B 8917   4.132   5.018   8.181 -1.7779  0.9728  0.1682
   87CHL1  H27C 8918   4.066   4.873   8.279 -2.7154 -0.3232 -0.0488
   88CHL1    C3 8919   2.111   4.306   6.831 -0.4045  0.2192 -0.5388
   88CHL1    H3 8920   2.217   4.327   6.857  0.3206  0.0137 -3.0938
   88CHL1    O3 8921   2.113   4.326   6.691  0.0544  0.3410  0.0952
   88CHL1   H3' 8922   2.040   4.274   6.655  1.0163 -1.2813  0.4152
   88CHL1    C4 8923   2.085   4.160   6.871 -0.0342  0.3064 -0.5080
   88CHL1   H4A 8924   1.982   4.134   6.840 -0.1820 -0.1140  0.3333
   88CHL1   H4B 8925   2.149   4.093   6.809  0.4289 -1.3799  1.7022
   88CHL1    C5 8926   2.079   4.128   7.018  0.4206 -0.3587  0.1984
   88CHL1    C6 8927   2.158   4.032   7.068  0.1251  0.1817  0.3314
   88CHL1    H6 8928   2.212   3.969   6.996 -2.3213 -1.1597 -0.4643
   88CHL1    C7 8929   2.155   3.993   7.213 -0.8451  0.5020 -0.1292
   88CHL1   H7A 8930   2.138   3.884   7.228  0.2612  0.3825  0.3889
   88CHL1   H7B 8931   2.252   4.015   7.264 -2.4136  0.9376  2.9030
   88CHL1    C8 8932   2.050   4.066   7.294  0.0873 -0.1974  0.0901
   88CHL1    H8 8933   1.965   3.996   7.282  0.4884 -0.5319 -0.8660
   88CHL1   C14 8934   2.077   4.060   7.446 -0.0464 -0.4105  0.4881
   88CHL1   H14 8935   2.163   4.130   7.446 -1.1904  1.0758 -0.3989
   88CHL1   C15 8936   2.118   3.931   7.514  0.1150  0.2804  0.5531
   88CHL1  H15A 8937   2.052   3.852   7.472  0.1582 -0.1597  1.2935
   88CHL1  H15B 8938   2.220   3.900   7.482 -0.2218  1.0505 -1.4037
   88CHL1   C16 8939   2.092   3.950   7.663  0.5528  0.4892 -0.0061
   88CHL1  H16A 8940   2.016   3.876   7.694  0.1781  1.4749  1.4956
   88CHL1  H16B 8941   2.179   3.933   7.730  0.5090  3.2361  0.8928
   88CHL1   C17 8942   2.044   4.101   7.669  0.1512 -0.2714 -0.1696
   88CHL1   H17 8943   2.142   4.152   7.665 -1.0677  2.1789 -0.9283
   88CHL1   C13 8944   1.980   4.133   7.533  0.2297 -0.4600 -0.3480
   88CHL1   C18 8945   1.838   4.069   7.518 -0.0722 -0.1236 -0.2026
   88CHL1  H18A 8946   1.810   4.055   7.411 -1.3543 -2.7108  0.3876
   88CHL1  H18B 8947   1.838   3.967   7.562  1.8882  0.0940  0.4175
   88CHL1  H18C 8948   1.762   4.138   7.559 -1.5121  0.8440 -4.0892
   88CHL1   C12 8949   1.982   4.281   7.493 -0.2328  0.2152 -0.7929
   88CHL1  H12A 8950   1.924   4.340   7.567 -0.6766 -2.7593  1.4126
   88CHL1  H12B 8951   2.081   4.332   7.498 -0.1534  0.0077 -0.0764
   88CHL1   C11 8952   1.937   4.296   7.343  0.0796 -0.0291 -0.2492
   88CHL1  H11A 8953   1.831   4.271   7.324  0.0634  1.6497 -3.0688
   88CHL1  H11B 8954   1.950   4.404   7.321 -3.2047  0.5898  0.3238
   88CHL1    C9 8955   2.029   4.207   7.247  0.5695 -0.2442 -0.8141
   88CHL1    H9 8956   2.128   4.256   7.256 -0.1070  2.1210 -4.3147
   88CHL1   C10 8957   1.997   4.226   7.098 -0.2826 -0.8656  0.5214
   88CHL1   C19 8958   1.847   4.182   7.076  0.2968 -0.7775 -0.1623
   88CHL1  H19A 8959   1.781   4.247   7.136  0.5258  0.6100 -1.3486
   88CHL1  H19B 8960   1.815   4.193   6.970  0.9130  0.8855 -0.2083
   88CHL1  H19C 8961   1.830   4.079   7.114  0.4682  0.3382  3.2599
   88CHL1    C1 8962   2.017   4.376   7.051 -0.4794  0.2086 -0.1910
   88CHL1   H1A 8963   1.945   4.437   7.110  0.1721  1.7984 -0.9859
   88CHL1   H1B 8964   2.117   4.407   7.090 -1.0465  1.3010  0.4742
   88CHL1    C2 8965   2.008   4.396   6.903  0.3986 -0.4021  0.3148
   88CHL1   H2A 8966   2.023   4.495   6.855  1.6968 -1.4937 -1.6618
   88CHL1   H2B 8967   1.907   4.374   6.862  0.7105 -1.6890  0.1906
   88CHL1   C20 8968   1.984   4.146   7.803 -1.4120  0.1035 -0.5283
   88CHL1   H20 8969   1.963   4.255   7.802 -2.2041  0.0314  1.8616
   88CHL1   C21 8970   2.098   4.148   7.916 -0.0254 -0.1822  0.1195
   88CHL1  H21A 8971   2.184   4.217   7.903 -0.5006  0.3769 -0.0527
   88CHL1  H21B 8972   2.141   4.050   7.947 -1.6069 -1.2711 -0.9720
   88CHL1  H21C 8973   2.048   4.196   8.003  1.4871 -0.4915  1.1979
   88CHL1   C22 8974   1.859   4.074   7.854  0.8442 -0.3581  0.2082
   88CHL1  H22A 8975   1.766   4.117   7.812  1.4794  2.2699  1.2781
   88CHL1  H22B 8976   1.870   3.968   7.823  1.4777  0.1209 -1.2833
   88CHL1   C23 8977   1.828   4.070   8.004 -0.1412 -0.3929 -0.8840
   88CHL1  H23A 8978   1.913   4.014   8.048 -0.1527 -1.6652 -2.4199
   88CHL1  H23B 8979   1.817   4.172   8.048 -0.5570 -0.9458  0.3550
   88CHL1   C24 8980   1.705   3.984   8.029 -0.6366 -0.2895  0.3987
   88CHL1  H24A 8981   1.625   4.009   7.955 -0.1301  0.4846  0.1047
   88CHL1  H24B 8982   1.730   3.878   8.010 -0.3296 -0.4649  1.6983
   88CHL1   C25 8983   1.643   3.994   8.173  0.3368  0.0534  0.9406
   88CHL1   H25 8984   1.547   3.938   8.169 -0.0421  0.7454 -0.3399
   88CHL1   C26 8985   1.732   3.937   8.286 -0.1274 -0.4953 -0.1714
   88CHL1  H26A 8986   1.676   3.953   8.380 -2.7802  0.8585 -1.8475
   88CHL1  H26B 8987   1.757   3.830   8.266  0.6465 -0.5545  1.0408
   88CHL1  H26C 8988   1.832   3.984   8.270 -0.2061  0.4099  1.8032
   88CHL1   C27 8989   1.601   4.137   8.205  0.1084  0.4039  0.3279
   88CHL1  H27A 8990   1.568   4.187   8.111 -0.8785  0.0699  0.4857
   88CHL1  H27B 8991   1.535   4.163   8.291 -0.4837  1.0633 -0.3130
   88CHL1  H27C 8992   1.693   4.195   8.226  0.5462 -0.3008  0.3985
   89CHL1    C3 8993   5.195   6.115   6.796  0.4133 -0.2034  0.4338
   89CHL1    H3 8994   5.289   6.146   6.846 -0.5749  1.3527  1.4116
   89CHL1    O3 8995   5.208   6.109   6.657  0.5876 -0.6338  0.5811
   89CHL1   H3' 8996   5.129   6.066   6.624  0.5026  0.2733 -0.4852
   89CHL1    C4 8997   5.163   5.974   6.857 -0.2603 -0.3079  0.1194
   89CHL1   H4A 8998   5.062   5.946   6.820 -1.0583  1.0396  1.2152
   89CHL1   H4B 8999   5.242   5.899   6.834  1.9437  1.1826  2.3204
   89CHL1    C5 9000   5.146   5.977   7.009  0.2797  0.9096 -0.0599
   89CHL1    C6 9001   5.219   5.896   7.095 -0.4095 -0.6990  0.7259
   89CHL1    H6 9002   5.286   5.823   7.048  1.3612  0.7311  0.9077
   89CHL1    C7 9003   5.193   5.893   7.241  0.1970 -0.0094  0.0789
   89CHL1   H7A 9004   5.166   5.788   7.263  1.5519 -0.8509 -2.0223
   89CHL1   H7B 9005   5.284   5.923   7.297  1.0055 -0.1595 -1.1213
   89CHL1    C8 9006   5.076   5.983   7.289  0.0399 -0.5850 -0.0538
   89CHL1    H8 9007   4.974   5.938   7.284 -1.5482  2.3722  2.1227
   89CHL1   C14 9008   5.101   6.008   7.446  0.3902 -0.5048  0.5424
   89CHL1   H14 9009   5.199   6.061   7.446 -0.6180  1.5024 -0.5430
   89CHL1   C15 9010   5.101   5.894   7.547 -0.4311  0.0663  0.3868
   89CHL1  H15A 9011   5.004   5.845   7.523 -0.6053  1.9137 -3.5144
   89CHL1  H15B 9012   5.179   5.815   7.544 -1.1180 -0.6374  0.8402
   89CHL1   C16 9013   5.085   5.967   7.683  0.2034  0.4542  0.1104
   89CHL1  H16A 9014   5.008   5.910   7.740  1.9953 -2.7551 -0.4319
   89CHL1  H16B 9015   5.182   5.964   7.738  0.2580  0.2093 -0.0006
   89CHL1   C17 9016   5.053   6.119   7.649 -0.3521 -0.4896 -0.8182
   89CHL1   H17 9017   5.149   6.174   7.658 -1.1343  0.6450  1.3049
   89CHL1   C13 9018   5.011   6.117   7.503 -0.1641 -0.9023 -0.1913
   89CHL1   C18 9019   4.862   6.071   7.505  0.7344  0.2181  0.6394
   89CHL1  H18A 9020   4.791   6.155   7.527 -0.9368 -0.2739 -2.2542
   89CHL1  H18B 9021   4.843   6.036   7.401 -0.8520  0.1638  0.9203
   89CHL1  H18C 9022   4.851   5.979   7.565 -1.8170  0.2240  0.3048
   89CHL1   C12 9023   5.035   6.246   7.421  0.4005  0.8195 -0.3671
   89CHL1  H12A 9024   4.974   6.328   7.464  0.8388  0.1563  1.6352
   89CHL1  H12B 9025   5.142   6.272   7.438  0.6357 -1.0124  1.3356
   89CHL1   C11 9026   4.995   6.228   7.278  0.7499  0.2943  0.0288
   89CHL1  H11A 9027   4.889   6.201   7.259  0.1225  2.1477  0.6904
   89CHL1  H11B 9028   5.018   6.319   7.220  0.7523 -0.0218 -0.4703
   89CHL1    C9 9029   5.084   6.115   7.210 -0.0684  0.8464  0.9681
   89CHL1    H9 9030   5.187   6.155   7.215  0.3538  0.1810 -1.2608
   89CHL1   C10 9031   5.056   6.094   7.059  0.2339  0.7049  0.3882
   89CHL1   C19 9032   4.900   6.055   7.036 -0.4864  0.9123 -0.9167
   89CHL1  H19A 9033   4.879   6.017   6.933  0.8854 -0.9712 -0.5554
   89CHL1  H19B 9034   4.877   5.976   7.110  0.4856  1.5138  0.0509
   89CHL1  H19C 9035   4.833   6.141   7.058 -0.7561  0.3476  0.5447
   89CHL1    C1 9036   5.088   6.228   6.987  0.3370  0.2536 -0.8235
   89CHL1   H1A 9037   5.015   6.309   7.012  2.0439  1.4249  0.6158
   89CHL1   H1B 9038   5.185   6.259   7.031 -0.7666  3.0194 -0.0856
   89CHL1    C2 9039   5.097   6.221   6.834 -0.5001 -0.6687 -0.1625
   89CHL1   H2A 9040   5.142   6.319   6.809 -1.6445 -0.3939 -1.2406
   89CHL1   H2B 9041   4.998   6.207   6.785  0.1093 -0.4475 -1.5049
   89CHL1   C20 9042   4.966   6.186   7.762  0.5662 -0.1867 -0.3944
   89CHL1   H20 9043   4.876   6.121   7.771  0.7048 -0.2871  0.3298
   89CHL1   C21 9044   4.924   6.328   7.720 -0.1316 -0.0578  0.2888
   89CHL1  H21A 9045   5.011   6.387   7.683 -0.6032  1.0564  0.9048
   89CHL1  H21B 9046   4.873   6.378   7.805  1.1941 -2.2230  2.4708
   89CHL1  H21C 9047   4.849   6.323   7.639 -0.7410 -2.2194  0.9228
   89CHL1   C22 9048   5.045   6.191   7.895 -0.4652  0.6293  0.3685
   89CHL1  H22A 9049   5.109   6.100   7.898 -1.1309  0.1880  1.8719
   89CHL1  H22B 9050   5.124   6.269   7.897 -0.2488  0.4197  0.1384
   89CHL1   C23 9051   4.950   6.193   8.019  0.0305  0.1960  0.0049
   89CHL1  H23A 9052   4.908   6.296   8.029 -0.3490  0.0770 -0.3298
   89CHL1  H23B 9053   4.880   6.109   8.005  2.4233 -2.3847  2.3643
   89CHL1   C24 9054   5.024   6.150   8.143  1.0291 -0.0918  1.0028
   89CHL1  H24A 9055   4.946   6.136   8.221 -0.9787 -2.5358 -1.2393
   89CHL1  H24B 9056   5.052   6.045   8.118  1.4050  0.9376 -3.8717
   89CHL1   C25 9057   5.130   6.237   8.201  0.0017 -0.0517  0.4336
   89CHL1   H25 9058   5.207   6.246   8.122  0.9067 -1.1009  1.1712
   89CHL1   C26 9059   5.066   6.374   8.248 -0.2160  0.2782  0.3521
   89CHL1  H26A 9060   4.973   6.356   8.307  1.0285 -1.9811  1.7823
   89CHL1  H26B 9061   5.146   6.428   8.303  0.5031 -1.9963  1.6969
   89CHL1  H26C 9062   5.040   6.439   8.162 -1.8693 -0.0204  0.5762
   89CHL1   C27 9063   5.201   6.177   8.322  0.7795 -0.0844 -0.2159
   89CHL1  H27A 9064   5.293   6.234   8.347  0.3086  0.4165  0.4088
   89CHL1  H27B 9065   5.135   6.179   8.412  0.6584 -0.0053 -0.3050
   89CHL1  H27C 9066   5.228   6.070   8.310  1.5182  0.3821 -3.6317
   90CHL1    C3 9067   0.797   2.046   6.937  0.3863  0.1298  0.1062
   90CHL1    H3 9068   0.894   2.100   6.937  1.4803 -1.7016  1.5043
   90CHL1    O3 9069   0.765   2.012   6.805  0.1301 -0.1331 -0.2204
   90CHL1   H3' 9070   0.682   2.052   6.778  0.3645 -0.3530 -1.2777
   90CHL1    C4 9071   0.819   1.918   7.014 -0.3453 -0.3186  0.2162
   90CHL1   H4A 9072   0.732   1.849   7.014  0.1301 -0.9502 -1.1337
   90CHL1   H4B 9073   0.889   1.848   6.964  2.7729  1.3878  1.7893
   90CHL1    C5 9074   0.871   1.950   7.150 -0.0755  0.5549  0.2310
   90CHL1    C6 9075   0.992   1.910   7.193 -0.1403  0.0221 -0.5082
   90CHL1    H6 9076   1.049   1.848   7.122 -4.0484 -2.2068 -2.0435
   90CHL1    C7 9077   1.043   1.927   7.329 -0.7163 -0.0163 -0.0644
   90CHL1   H7A 9078   1.083   1.839   7.384 -0.7383 -0.2003 -0.3437
   90CHL1   H7B 9079   1.125   2.002   7.323 -1.9281  1.5655  1.8829
   90CHL1    C8 9080   0.935   1.979   7.427 -0.3787 -0.2533  0.5834
   90CHL1    H8 9081   0.869   1.891   7.440 -2.1616  0.5679 -2.1243
   90CHL1   C14 9082   1.000   2.025   7.552  0.1166  0.0019  0.4893
   90CHL1   H14 9083   1.044   2.121   7.519  0.6848 -0.8916 -1.4808
   90CHL1   C15 9084   1.095   1.927   7.629  0.8500 -1.0721 -0.0670
   90CHL1  H15A 9085   1.062   1.820   7.629  0.1899 -0.9097  1.8590
   90CHL1  H15B 9086   1.198   1.927   7.587  0.3191  1.7313 -1.6270
   90CHL1   C16 9087   1.094   1.976   7.777  0.0210  0.4459  0.0132
   90CHL1  H16A 9088   1.078   1.887   7.841  0.9484 -0.9906 -1.6571
   90CHL1  H16B 9089   1.198   2.012   7.792  0.5244 -1.3846  1.1642
   90CHL1   C17 9090   0.982   2.087   7.780 -0.9665  0.4516 -0.4617
   90CHL1   H17 9091   1.045   2.177   7.769  0.1156 -0.1674  0.3854
   90CHL1   C13 9092   0.894   2.066   7.654 -0.3183  0.5941  0.3330
   90CHL1   C18 9093   0.782   1.953   7.684  0.0377  0.0882 -0.3046
   90CHL1  H18A 9094   0.729   1.938   7.588 -0.0968 -0.0884 -0.2018
   90CHL1  H18B 9095   0.830   1.857   7.714 -0.6735 -0.0635  0.3622
   90CHL1  H18C 9096   0.707   1.985   7.760  2.2942  0.7970  1.7581
   90CHL1   C12 9097   0.825   2.195   7.605 -0.4719 -0.1483  0.6377
   90CHL1  H12A 9098   0.747   2.235   7.673 -0.8265  0.9021 -0.3654
   90CHL1  H12B 9099   0.904   2.272   7.595 -0.5832  0.0065  0.9386
   90CHL1   C11 9100   0.767   2.174   7.461  0.0675 -0.3039 -0.5384
   90CHL1  H11A 9101   0.674   2.116   7.474 -1.1261  1.8282  1.0430
   90CHL1  H11B 9102   0.745   2.276   7.422  0.9426  0.7362  1.4828
   90CHL1    C9 9103   0.855   2.092   7.361  0.1035  0.3005  0.0416
   90CHL1    H9 9104   0.929   2.165   7.322 -2.1075  1.8316 -1.5304
   90CHL1   C10 9105   0.778   2.043   7.229  0.0870  0.0549  1.0787
   90CHL1   C19 9106   0.643   1.973   7.254  0.1270  0.2337  0.2132
   90CHL1  H19A 9107   0.587   1.930   7.169  0.1619 -1.8466  1.1881
   90CHL1  H19B 9108   0.665   1.900   7.335  2.6272 -0.8045 -1.2874
   90CHL1  H19C 9109   0.569   2.045   7.296  0.1780 -0.9771  2.5263
   90CHL1    C1 9110   0.742   2.170   7.142  0.1324 -0.2534  0.0991
   90CHL1   H1A 9111   0.668   2.236   7.192 -2.5595 -2.2425 -1.0237
   90CHL1   H1B 9112   0.841   2.220   7.139 -0.4948  1.0448  0.2440
   90CHL1    C2 9113   0.694   2.137   7.003  0.3278  0.1494  0.7755
   90CHL1   H2A 9114   0.678   2.228   6.940 -0.1899 -1.3560 -1.3923
   90CHL1   H2B 9115   0.599   2.080   7.003 -0.3194  1.1745  0.0725
   90CHL1   C20 9116   0.910   2.086   7.915 -0.3393  0.3062  0.1824
   90CHL1   H20 9117   0.865   1.986   7.932  0.1910 -0.1286 -0.8711
   90CHL1   C21 9118   0.798   2.187   7.928 -0.0156 -0.1086  0.1979
   90CHL1  H21A 9119   0.709   2.163   7.866 -1.1960  3.1831  0.4449
   90CHL1  H21B 9120   0.841   2.287   7.909 -3.3569  1.2742 -0.7813
   90CHL1  H21C 9121   0.766   2.171   8.033 -2.5391 -1.8743 -0.7380
   90CHL1   C22 9122   1.010   2.104   8.027 -0.3818 -0.8796 -0.5282
   90CHL1  H22A 9123   1.110   2.065   7.998 -0.9777 -3.3631  0.4907
   90CHL1  H22B 9124   1.027   2.212   8.047 -0.5365 -1.4896  3.9211
   90CHL1   C23 9125   0.974   2.045   8.165 -0.1740  0.8416 -0.1194
   90CHL1  H23A 9126   0.879   2.083   8.206  0.3430  0.3057  1.6761
   90CHL1  H23B 9127   0.954   1.936   8.157  0.7769  0.5011  1.6516
   90CHL1   C24 9128   1.082   2.068   8.274  0.2796 -0.2320 -0.0792
   90CHL1  H24A 9129   1.178   2.022   8.243  0.0537  0.0068 -1.1526
   90CHL1  H24B 9130   1.091   2.178   8.281  0.7059 -0.3085  0.7047
   90CHL1   C25 9131   1.045   2.007   8.410 -0.4164  0.7068  0.3799
   90CHL1   H25 9132   0.938   2.025   8.435 -0.0512 -0.9643  3.7616
   90CHL1   C26 9133   1.052   1.852   8.414 -0.1851 -0.7269 -0.8193
   90CHL1  H26A 9134   1.145   1.816   8.366 -0.5139 -1.2273 -1.0858
   90CHL1  H26B 9135   1.030   1.822   8.519 -1.9265  1.2365 -0.5659
   90CHL1  H26C 9136   0.969   1.827   8.344  1.3473  0.1100 -3.0618
   90CHL1   C27 9137   1.112   2.076   8.529  0.6037 -0.7675  0.5344
   90CHL1  H27A 9138   1.062   2.046   8.624  2.1597 -0.0169  1.6270
   90CHL1  H27B 9139   1.216   2.037   8.523  0.9619  0.3301 -0.9705
   90CHL1  H27C 9140   1.112   2.186   8.517 -0.8273 -0.9308 -1.5024
   91CHL1    C3 9141   4.391   1.025   6.956  0.2010 -0.5648 -0.2864
   91CHL1    H3 9142   4.296   1.053   7.007 -0.2106  2.3696 -2.3822
   91CHL1    O3 9143   4.382   1.002   6.816  0.0145 -0.5641  0.1628
   91CHL1   H3' 9144   4.409   0.911   6.803 -0.1539 -0.6275  0.2515
   91CHL1    C4 9145   4.483   1.148   6.976 -0.2447  0.4218  0.1113
   91CHL1   H4A 9146   4.573   1.133   6.913 -1.6780 -1.0959 -1.7089
   91CHL1   H4B 9147   4.428   1.224   6.917 -0.2517 -0.9324 -1.7256
   91CHL1    C5 9148   4.511   1.175   7.123 -0.0252 -0.6002  0.9307
   91CHL1    C6 9149   4.477   1.294   7.181 -0.4775  0.7072 -0.4551
   91CHL1    H6 9150   4.446   1.378   7.117  0.6256  1.1047 -0.4807
   91CHL1    C7 9151   4.503   1.323   7.326  0.9559  0.1816 -0.6065
   91CHL1   H7A 9152   4.543   1.424   7.346  0.0225  0.7744 -1.5788
   91CHL1   H7B 9153   4.400   1.320   7.369  1.0687 -3.5747 -0.2551
   91CHL1    C8 9154   4.578   1.217   7.400 -0.0840 -0.0528 -1.1307
   91CHL1    H8 9155   4.687   1.230   7.387  0.0340  2.3373  1.3939
   91CHL1   C14 9156   4.564   1.225   7.558 -0.2685 -0.0894  0.3974
   91CHL1   H14 9157   4.456   1.223   7.582 -0.0794 -1.2598  1.2191
   91CHL1   C15 9158   4.588   1.364   7.620 -0.0939 -0.0522 -0.3280
   91CHL1  H15A 9159   4.690   1.398   7.593 -0.2809  0.5484 -0.2803
   91CHL1  H15B 9160   4.511   1.437   7.589 -0.7189 -1.1359 -1.4270
   91CHL1   C16 9161   4.592   1.330   7.775 -0.1230  0.1299  0.8544
   91CHL1  H16A 9162   4.686   1.378   7.812 -1.2551  2.8822  0.3760
   91CHL1  H16B 9163   4.502   1.372   7.824 -0.9517 -0.7728  0.1247
   91CHL1   C17 9164   4.600   1.172   7.789 -0.2930  0.6409  0.8314
   91CHL1   H17 9165   4.494   1.141   7.801 -0.0831 -1.2256 -1.5629
   91CHL1   C13 9166   4.639   1.127   7.646 -1.0468 -0.1222 -0.2018
   91CHL1   C18 9167   4.799   1.147   7.630  0.0304 -0.6601 -0.1558
   91CHL1  H18A 9168   4.825   1.240   7.685  0.3322 -1.1526  0.5492
   91CHL1  H18B 9169   4.846   1.056   7.675 -0.6289 -0.5242  0.8412
   91CHL1  H18C 9170   4.830   1.150   7.524  0.9863  3.2058  0.1069
   91CHL1   C12 9171   4.609   0.980   7.600 -0.0384  0.0065 -0.3433
   91CHL1  H12A 9172   4.677   0.912   7.654 -0.9263 -0.2656  0.4601
   91CHL1  H12B 9173   4.508   0.947   7.631 -1.0167  1.6465 -1.5915
   91CHL1   C11 9174   4.621   0.970   7.447  0.3721 -0.2416 -0.1805
   91CHL1  H11A 9175   4.728   0.977   7.416  0.0798  0.2298 -1.1208
   91CHL1  H11B 9176   4.594   0.865   7.425  1.0437 -0.7572  1.3370
   91CHL1    C9 9177   4.539   1.076   7.362 -0.3618  0.2962 -0.3383
   91CHL1    H9 9178   4.433   1.065   7.396 -0.0707  2.3045  1.4409
   91CHL1   C10 9179   4.554   1.052   7.208 -0.8051  0.2148  0.1204
   91CHL1   C19 9180   4.700   1.022   7.166 -1.7788  0.1799 -0.1971
   91CHL1  H19A 9181   4.718   1.017   7.056 -1.6371 -1.0854 -0.1297
   91CHL1  H19B 9182   4.770   1.088   7.220 -2.6422 -0.3609  1.6811
   91CHL1  H19C 9183   4.734   0.920   7.193  0.3214  0.7939 -0.3857
   91CHL1    C1 9184   4.466   0.927   7.165 -0.2624  0.2792 -0.0294
   91CHL1   H1A 9185   4.516   0.842   7.217 -0.1329  0.1950 -0.2877
   91CHL1   H1B 9186   4.364   0.937   7.208 -2.0544 -4.0085 -2.6820
   91CHL1    C2 9187   4.449   0.901   7.015 -0.2241  0.2304 -0.9340
   91CHL1   H2A 9188   4.365   0.829   7.002 -0.3778  0.1760  0.2166
   91CHL1   H2B 9189   4.544   0.875   6.965  0.5190  0.0905  0.5086
   91CHL1   C20 9190   4.674   1.122   7.915  0.6042  0.0599  0.2985
   91CHL1   H20 9191   4.783   1.137   7.897  0.7968 -0.5869  0.8563
   91CHL1   C21 9192   4.672   0.966   7.929  0.2282  0.1468  0.5303
   91CHL1  H21A 9193   4.564   0.938   7.937  0.4932 -1.1863 -0.2435
   91CHL1  H21B 9194   4.720   0.925   8.021  0.4543 -0.1497  0.2808
   91CHL1  H21C 9195   4.714   0.917   7.839 -1.9132  0.9100 -0.9727
   91CHL1   C22 9196   4.632   1.186   8.047  0.0776 -0.0371 -0.3730
   91CHL1  H22A 9197   4.715   1.164   8.118 -1.1044 -1.6574  0.5806
   91CHL1  H22B 9198   4.628   1.297   8.041  1.0997 -0.0654 -3.2268
   91CHL1   C23 9199   4.500   1.136   8.108 -0.2511  0.2592  0.5461
   91CHL1  H23A 9200   4.425   1.146   8.027  1.6644  1.4628 -1.1642
   91CHL1  H23B 9201   4.503   1.031   8.145  1.0381 -0.9525 -2.5978
   91CHL1   C24 9202   4.453   1.222   8.230  0.2464  0.3487 -0.2957
   91CHL1  H24A 9203   4.530   1.231   8.309 -1.8623 -0.4232  2.0068
   91CHL1  H24B 9204   4.432   1.322   8.187 -1.2436  0.1770 -0.0475
   91CHL1   C25 9205   4.315   1.194   8.294  0.1727  0.3300  0.1584
   91CHL1   H25 9206   4.246   1.149   8.219  1.2237 -1.0948 -0.0115
   91CHL1   C26 9207   4.334   1.092   8.402  0.1637  0.1627  0.5163
   91CHL1  H26A 9208   4.379   0.995   8.372 -0.8981 -0.4057  0.6920
   91CHL1  H26B 9209   4.403   1.134   8.478  0.6802  1.9996 -0.8986
   91CHL1  H26C 9210   4.235   1.081   8.452 -1.0958  1.4017 -1.5450
   91CHL1   C27 9211   4.251   1.325   8.355 -0.3219  0.0932  0.7431
   91CHL1  H27A 9212   4.312   1.369   8.436  1.8094  0.2377 -0.8451
   91CHL1  H27B 9213   4.237   1.397   8.271 -1.9595 -0.1211  0.8002
   91CHL1  H27C 9214   4.156   1.289   8.401 -0.0225 -0.5110  0.9043
   92CHL1    C3 9215   2.825   4.363   6.573 -0.4854 -0.3269  0.2408
   92CHL1    H3 9216   2.930   4.358   6.609 -0.0209 -3.6613 -1.2110
   92CHL1    O3 9217   2.843   4.359   6.432 -0.0713 -0.0775 -0.2514
   92CHL1   H3' 9218   2.754   4.362   6.396  0.1987 -2.6405 -1.3973
   92CHL1    C4 9219   2.734   4.242   6.613  0.0325 -0.5592  0.1866
   92CHL1   H4A 9220   2.633   4.260   6.570 -1.5775 -2.3933  2.8707
   92CHL1   H4B 9221   2.768   4.144   6.574  2.2816  1.1840 -2.6361
   92CHL1    C5 9222   2.706   4.238   6.763 -0.1013 -0.3108  0.6399
   92CHL1    C6 9223   2.737   4.128   6.838 -0.3462 -0.3614 -0.5125
   92CHL1    H6 9224   2.785   4.039   6.796  2.0290  0.4693  0.2820
   92CHL1    C7 9225   2.698   4.123   6.985 -0.0632 -0.3792 -0.2365
   92CHL1   H7A 9226   2.660   4.022   7.009  1.0118 -0.9749 -1.0018
   92CHL1   H7B 9227   2.787   4.129   7.051 -0.1514 -0.5062 -0.1051
   92CHL1    C8 9228   2.601   4.236   7.036  0.6395  0.4129 -0.9694
   92CHL1    H8 9229   2.503   4.207   6.992  0.3723  0.2273 -0.2635
   92CHL1   C14 9230   2.607   4.233   7.188  0.2919 -0.7942  0.1912
   92CHL1   H14 9231   2.713   4.251   7.216  0.0796 -0.6204  0.9056
   92CHL1   C15 9232   2.555   4.115   7.269 -0.1127  0.3934 -0.0072
   92CHL1  H15A 9233   2.453   4.097   7.229 -0.8221  1.0300  1.4791
   92CHL1  H15B 9234   2.613   4.022   7.249 -2.4126 -0.9740 -0.7560
   92CHL1   C16 9235   2.551   4.161   7.411  0.0127  0.7958 -0.2968
   92CHL1  H16A 9236   2.455   4.138   7.461  0.2920 -1.1951 -0.5795
   92CHL1  H16B 9237   2.640   4.127   7.468 -1.6279 -0.8914  1.4133
   92CHL1   C17 9238   2.564   4.312   7.405  0.2927 -0.6621 -0.3434
   92CHL1   H17 9239   2.671   4.338   7.420  0.6096 -1.9247 -0.2765
   92CHL1   C13 9240   2.543   4.349   7.260  0.7470  0.1842  1.0689
   92CHL1   C18 9241   2.385   4.345   7.240 -0.3107 -0.3130 -0.7959
   92CHL1  H18A 9242   2.340   4.440   7.277  0.2736 -0.2163 -0.3275
   92CHL1  H18B 9243   2.354   4.332   7.135 -2.2270 -1.2088 -0.1644
   92CHL1  H18C 9244   2.345   4.262   7.302  3.3394 -0.3983  1.7382
   92CHL1   C12 9245   2.611   4.480   7.206 -0.3270  0.2112  0.2903
   92CHL1  H12A 9246   2.566   4.572   7.250  0.8512  0.2572  1.4615
   92CHL1  H12B 9247   2.719   4.480   7.233 -0.4568  2.6151  1.0139
   92CHL1   C11 9248   2.595   4.488   7.053 -0.0657 -0.3996  0.5089
   92CHL1  H11A 9249   2.488   4.508   7.030 -0.6423 -2.9553  0.7707
   92CHL1  H11B 9250   2.639   4.581   7.010 -1.0352 -0.8354 -1.5631
   92CHL1    C9 9251   2.658   4.364   6.976  0.5621  0.0811 -0.9761
   92CHL1    H9 9252   2.766   4.369   7.002  0.8674 -1.9431 -1.6867
   92CHL1   C10 9253   2.655   4.372   6.822  0.2717 -0.1906 -0.8241
   92CHL1   C19 9254   2.502   4.389   6.775  0.5978 -0.0246 -0.3531
   92CHL1  H19A 9255   2.501   4.408   6.665  1.6694  3.9912  0.1751
   92CHL1  H19B 9256   2.447   4.297   6.804 -0.4291  0.8630  0.6010
   92CHL1  H19C 9257   2.436   4.466   6.818  0.3218  0.4739 -1.6236
   92CHL1    C1 9258   2.736   4.495   6.769  0.0923  0.1237  0.6613
   92CHL1   H1A 9259   2.678   4.589   6.785  0.4243  0.2022  1.4456
   92CHL1   H1B 9260   2.831   4.490   6.826  0.2276  2.1264  0.6691
   92CHL1    C2 9261   2.763   4.495   6.619 -0.4392 -0.2102  0.1145
   92CHL1   H2A 9262   2.831   4.579   6.597 -1.5496  0.4365 -0.9944
   92CHL1   H2B 9263   2.670   4.518   6.563  0.3389  1.1293 -0.6571
   92CHL1   C20 9264   2.485   4.395   7.519 -0.7799  0.5133 -0.7708
   92CHL1   H20 9265   2.380   4.360   7.508  0.2142 -2.1861 -2.9242
   92CHL1   C21 9266   2.504   4.544   7.490 -0.3646 -1.0000 -0.0728
   92CHL1  H21A 9267   2.463   4.620   7.560 -0.5248 -0.1537 -1.0615
   92CHL1  H21B 9268   2.457   4.577   7.395  2.1249 -2.0260 -1.7427
   92CHL1  H21C 9269   2.613   4.561   7.480  0.1829 -3.3111  1.2514
   92CHL1   C22 9270   2.522   4.363   7.670  0.1668  0.9607  0.5095
   92CHL1  H22A 9271   2.508   4.253   7.680 -0.5507  0.8845 -1.0031
   92CHL1  H22B 9272   2.632   4.379   7.672  0.2051  0.7062  0.5536
   92CHL1   C23 9273   2.453   4.439   7.782  0.2370  0.2346  0.6269
   92CHL1  H23A 9274   2.471   4.546   7.757 -2.3059  0.2110 -1.8735
   92CHL1  H23B 9275   2.342   4.431   7.788  0.3213 -1.6086  0.4361
   92CHL1   C24 9276   2.498   4.408   7.925 -0.8211  0.3917  0.8623
   92CHL1  H24A 9277   2.465   4.306   7.955  1.7382 -0.6411  0.4494
   92CHL1  H24B 9278   2.608   4.404   7.913 -0.9552  0.4964 -0.5521
   92CHL1   C25 9279   2.463   4.516   8.026 -0.0349 -0.2257  0.4698
   92CHL1   H25 9280   2.493   4.494   8.130  1.8619 -1.0965 -0.2139
   92CHL1   C26 9281   2.544   4.650   7.993  0.0388  0.2159  0.1425
   92CHL1  H26A 9282   2.533   4.732   8.068  0.1592  2.0724 -1.7660
   92CHL1  H26B 9283   2.651   4.626   7.977  0.8323  3.1656  0.4660
   92CHL1  H26C 9284   2.521   4.696   7.894 -1.1584  1.3456  0.9058
   92CHL1   C27 9285   2.311   4.539   8.027 -0.1187 -0.5958  1.1363
   92CHL1  H27A 9286   2.291   4.622   7.957 -0.4643 -2.0110 -0.4974
   92CHL1  H27B 9287   2.259   4.442   8.013 -0.3731 -0.3337  0.2461
   92CHL1  H27C 9288   2.288   4.578   8.129 -0.7417  1.0440  0.4035
   93CHL1    C3 9289   0.613   6.085   6.829  0.3443 -0.0800  0.6904
   93CHL1    H3 9290   0.723   6.089   6.815  0.5855 -2.7919  1.3679
   93CHL1    O3 9291   0.537   6.097   6.703 -0.4139  0.2295  0.4397
   93CHL1   H3' 9292   0.442   6.095   6.720 -0.8968 -0.8228 -1.9387
   93CHL1    C4 9293   0.585   5.955   6.906 -0.2357  0.1628  0.4424
   93CHL1   H4A 9294   0.476   5.945   6.924 -0.1818  0.3942  0.9000
   93CHL1   H4B 9295   0.608   5.871   6.837  1.4231 -1.2007  2.5287
   93CHL1    C5 9296   0.664   5.956   7.036  0.1370  0.2482 -0.1528
   93CHL1    C6 9297   0.754   5.857   7.054  0.2445 -0.3756 -0.0491
   93CHL1    H6 9298   0.778   5.787   6.972  0.8210  1.3625 -1.4195
   93CHL1    C7 9299   0.829   5.841   7.186 -0.4925 -0.0399 -0.4264
   93CHL1   H7A 9300   0.837   5.735   7.217 -2.4829 -0.0290  0.2882
   93CHL1   H7B 9301   0.928   5.888   7.173 -0.1348 -0.6447  0.0531
   93CHL1    C8 9302   0.755   5.925   7.305 -0.4690  0.0306  0.5753
   93CHL1    H8 9303   0.662   5.868   7.330 -0.5294  0.3712  1.1577
   93CHL1   C14 9304   0.844   5.928   7.431  0.4183 -0.3285  1.0992
   93CHL1   H14 9305   0.941   5.977   7.408  0.2018  0.2610  1.4274
   93CHL1   C15 9306   0.884   5.798   7.498  0.0338 -0.0046 -0.5288
   93CHL1  H15A 9307   0.801   5.726   7.486  0.1618  0.2468 -3.7584
   93CHL1  H15B 9308   0.970   5.752   7.446 -1.3311 -1.1348 -1.8630
   93CHL1   C16 9309   0.910   5.830   7.641  0.3866 -0.0865 -0.5011
   93CHL1  H16A 9310   0.834   5.781   7.705  1.7009 -0.8821  0.4952
   93CHL1  H16B 9311   1.013   5.795   7.662  0.1615  0.1953  1.2688
   93CHL1   C17 9312   0.899   5.979   7.658  0.3467 -0.4527 -1.3286
   93CHL1   H17 9313   0.992   6.029   7.622 -0.2670  1.5119 -0.3408
   93CHL1   C13 9314   0.791   6.023   7.546 -0.5435  0.0539  0.0775
   93CHL1   C18 9315   0.648   5.977   7.588 -0.2712  0.7157  0.4594
   93CHL1  H18A 9316   0.599   6.041   7.663 -0.9184  2.0706 -1.0539
   93CHL1  H18B 9317   0.575   5.975   7.505 -1.3277  0.4906  1.3794
   93CHL1  H18C 9318   0.645   5.871   7.623 -0.8805  0.6754  0.2937
   93CHL1   C12 9319   0.791   6.164   7.493  0.0264  0.5380  0.0616
   93CHL1  H12A 9320   0.751   6.243   7.560 -1.2656  1.7417 -1.9981
   93CHL1  H12B 9321   0.894   6.188   7.457  0.3852 -2.7259 -1.5003
   93CHL1   C11 9322   0.699   6.176   7.371  0.7734 -0.1414 -0.0615
   93CHL1  H11A 9323   0.597   6.165   7.412  1.2197  1.2130  1.4749
   93CHL1  H11B 9324   0.706   6.276   7.324 -0.3196 -0.1177 -0.1999
   93CHL1    C9 9325   0.723   6.067   7.258 -0.3256 -0.4540 -0.9626
   93CHL1    H9 9326   0.820   6.093   7.212  0.8565 -1.4760  0.8482
   93CHL1   C10 9327   0.624   6.062   7.138  0.2245 -1.1111  0.3017
   93CHL1   C19 9328   0.482   6.039   7.186 -0.1891  0.3954 -0.7013
   93CHL1  H19A 9329   0.401   6.017   7.113 -1.8409  0.7698  0.9245
   93CHL1  H19B 9330   0.491   5.952   7.255 -0.1163 -0.7093 -2.0779
   93CHL1  H19C 9331   0.448   6.124   7.248  1.1022 -1.0372  2.1764
   93CHL1    C1 9332   0.632   6.199   7.062 -0.1589  0.2309  0.2064
   93CHL1   H1A 9333   0.600   6.286   7.124 -0.8037 -0.8536  1.4572
   93CHL1   H1B 9334   0.737   6.221   7.035 -0.8189  0.6625 -2.2870
   93CHL1    C2 9335   0.571   6.197   6.920  0.4751 -0.1769 -0.5323
   93CHL1   H2A 9336   0.601   6.289   6.865  3.7629  0.6829  2.3398
   93CHL1   H2B 9337   0.461   6.198   6.936  0.1308  1.9135 -2.4649
   93CHL1   C20 9338   0.857   6.012   7.806  0.7574 -1.0124  0.2169
   93CHL1   H20 9339   0.767   5.952   7.829 -0.0887 -0.5176 -1.6395
   93CHL1   C21 9340   0.828   6.160   7.824 -0.2328  0.4255  0.1574
   93CHL1  H21A 9341   0.728   6.186   7.784 -0.2637 -0.5498 -0.4301
   93CHL1  H21B 9342   0.898   6.226   7.770  0.3505  0.1991  0.6257
   93CHL1  H21C 9343   0.835   6.192   7.931  2.0560  2.1982 -0.4352
   93CHL1   C22 9344   0.959   5.978   7.914 -0.6485  0.0498  0.0119
   93CHL1  H22A 9345   1.009   5.886   7.876 -3.0231 -1.2552 -0.1792
   93CHL1  H22B 9346   1.030   6.062   7.929 -0.3174 -0.1618 -0.3477
   93CHL1   C23 9347   0.898   5.945   8.056  0.5442  0.7345 -0.4552
   93CHL1  H23A 9348   0.842   6.030   8.099 -0.2259 -0.1018  0.2187
   93CHL1  H23B 9349   0.826   5.865   8.030  2.1411 -1.3969  1.3014
   93CHL1   C24 9350   0.991   5.876   8.156 -0.2907 -0.0054  0.6659
   93CHL1  H24A 9351   1.026   5.781   8.110  1.3584  1.5425 -1.4974
   93CHL1  H24B 9352   1.083   5.939   8.156  2.6404 -3.7964 -1.9764
   93CHL1   C25 9353   0.920   5.863   8.292 -0.1004  0.4632  0.3319
   93CHL1   H25 9354   0.873   5.956   8.331  0.0289 -0.4897  2.9348
   93CHL1   C26 9355   0.791   5.775   8.280  0.6091  0.5890  0.6543
   93CHL1  H26A 9356   0.810   5.699   8.202  0.1778  1.4159 -0.2723
   93CHL1  H26B 9357   0.778   5.726   8.380  0.8613 -0.4221  0.2047
   93CHL1  H26C 9358   0.703   5.839   8.258  0.9108 -0.0920 -3.0318
   93CHL1   C27 9359   1.016   5.807   8.405 -0.5271  0.2272  0.3524
   93CHL1  H27A 9360   1.037   5.700   8.384  0.4568  0.3702  0.5575
   93CHL1  H27B 9361   1.110   5.862   8.389 -2.0887  2.9989  0.1066
   93CHL1  H27C 9362   0.972   5.805   8.508 -2.8021 -0.7102 -0.5578
   94CHL1    C3 9363   5.822   5.209   6.920  0.4385 -0.2310 -0.0868
   94CHL1    H3 9364   5.807   5.099   6.928 -0.8276  0.0467  3.1474
   94CHL1    O3 9365   5.837   5.248   6.785 -0.0007 -0.2930 -0.4451
   94CHL1   H3' 9366   5.911   5.197   6.751 -0.8579 -0.8237 -1.6000
   94CHL1    C4 9367   5.698   5.286   6.981  0.5080 -0.6423 -0.4485
   94CHL1   H4A 9368   5.714   5.395   6.963 -0.0553 -0.4392  0.2127
   94CHL1   H4B 9369   5.606   5.267   6.921 -1.6677  3.1103  1.3284
   94CHL1    C5 9370   5.680   5.264   7.131 -0.2125  0.4349 -0.0740
   94CHL1    C6 9371   5.561   5.219   7.175  0.1442  0.9082  0.3541
   94CHL1    H6 9372   5.473   5.215   7.110  0.3192  4.5977 -0.3436
   94CHL1    C7 9373   5.537   5.188   7.316 -0.3647  0.1433 -0.8071
   94CHL1   H7A 9374   5.443   5.224   7.361  1.0519  0.9673  1.7303
   94CHL1   H7B 9375   5.535   5.078   7.328 -0.3296  0.2765  0.5518
   94CHL1    C8 9376   5.648   5.238   7.418 -0.3261 -0.4144  0.0972
   94CHL1    H8 9377   5.651   5.349   7.421 -0.1933 -0.4002 -0.4711
   94CHL1   C14 9378   5.646   5.166   7.553 -0.6091 -0.3972 -0.2359
   94CHL1   H14 9379   5.660   5.058   7.529 -0.5174 -0.3397 -0.4412
   94CHL1   C15 9380   5.521   5.182   7.635  0.2342 -0.7762 -0.2132
   94CHL1  H15A 9381   5.478   5.284   7.631 -2.4729 -1.6431  2.5333
   94CHL1  H15B 9382   5.438   5.113   7.605 -1.1541  0.2544  1.1184
   94CHL1   C16 9383   5.562   5.156   7.779 -0.0937 -0.0426  0.4112
   94CHL1  H16A 9384   5.538   5.241   7.847 -2.1285 -1.0417  1.0391
   94CHL1  H16B 9385   5.501   5.071   7.818 -1.0005 -1.0221 -2.8558
   94CHL1   C17 9386   5.717   5.143   7.776 -0.2471 -0.0066  0.8594
   94CHL1   H17 9387   5.739   5.036   7.754 -0.4261  0.2669 -0.7687
   94CHL1   C13 9388   5.762   5.208   7.647  0.0756 -0.2139  0.2399
   94CHL1   C18 9389   5.755   5.367   7.679 -0.4939 -0.0988 -0.0367
   94CHL1  H18A 9390   5.658   5.398   7.724  0.1326 -1.6570  2.5792
   94CHL1  H18B 9391   5.842   5.405   7.737  2.0580  1.2558 -4.2965
   94CHL1  H18C 9392   5.761   5.434   7.591 -2.7712  0.3024  0.0412
   94CHL1   C12 9393   5.887   5.162   7.583 -0.1438  0.2444  0.0269
   94CHL1  H12A 9394   5.976   5.191   7.641 -0.9616  1.2486  0.8273
   94CHL1  H12B 9395   5.891   5.052   7.574  3.2951  0.4183 -2.4642
   94CHL1   C11 9396   5.903   5.224   7.445 -0.8295 -0.8444  0.0351
   94CHL1  H11A 9397   5.927   5.330   7.467  1.6181 -1.5635  1.2274
   94CHL1  H11B 9398   5.993   5.177   7.400  0.0618  0.5466  0.3110
   94CHL1    C9 9399   5.782   5.208   7.353 -0.3199  0.2724 -0.6906
   94CHL1    H9 9400   5.781   5.097   7.340 -0.6658  0.3321 -1.2110
   94CHL1   C10 9401   5.804   5.271   7.217  0.4028 -0.0827  0.8059
   94CHL1   C19 9402   5.850   5.423   7.223  0.4782 -0.0372  0.0586
   94CHL1  H19A 9403   5.878   5.463   7.123  0.9048  0.6768  0.4521
   94CHL1  H19B 9404   5.765   5.483   7.262  0.5509  0.8757 -1.1507
   94CHL1  H19C 9405   5.942   5.440   7.283  0.4538  0.1004  0.0581
   94CHL1    C1 9406   5.925   5.195   7.147 -1.1151 -0.1362  0.4589
   94CHL1   H1A 9407   6.015   5.205   7.211 -2.0136 -3.0712  2.3571
   94CHL1   H1B 9408   5.911   5.086   7.162  0.0238 -0.0390  2.6365
   94CHL1    C2 9409   5.946   5.232   6.995 -1.2317  0.6304 -0.3375
   94CHL1   H2A 9410   6.033   5.182   6.948 -1.0716  1.4946 -0.9835
   94CHL1   H2B 9411   5.974   5.339   6.992 -0.2412  0.4332  1.0919
   94CHL1   C20 9412   5.793   5.179   7.904 -0.1828 -0.1046 -0.3895
   94CHL1   H20 9413   5.774   5.288   7.919  0.2726 -0.0728 -0.0457
   94CHL1   C21 9414   5.940   5.150   7.894  0.5837 -0.3372  0.3764
   94CHL1  H21A 9415   5.945   5.051   7.845 -2.2032  0.5331 -2.0006
   94CHL1  H21B 9416   5.977   5.156   7.999  1.5377 -1.9719  0.1507
   94CHL1  H21C 9417   5.979   5.230   7.827 -0.8037 -0.7978 -1.0381
   94CHL1   C22 9418   5.730   5.108   8.025  1.0805 -0.3549  0.2483
   94CHL1  H22A 9419   5.762   5.168   8.113 -0.4729  4.7013 -2.2854
   94CHL1  H22B 9420   5.620   5.120   8.031  0.8587 -0.9104 -1.8649
   94CHL1   C23 9421   5.777   4.966   8.043  0.1454  0.5409 -0.5889
   94CHL1  H23A 9422   5.761   4.912   7.947 -1.9655 -0.2084  0.1245
   94CHL1  H23B 9423   5.881   4.951   8.079 -0.8254 -1.0395  1.8361
   94CHL1   C24 9424   5.703   4.893   8.158  0.3534  0.1512  0.0241
   94CHL1  H24A 9425   5.712   4.947   8.255  1.2794 -0.3937  0.2565
   94CHL1  H24B 9426   5.596   4.883   8.132  0.7612  0.8003 -2.1091
   94CHL1   C25 9427   5.752   4.745   8.186 -0.6184 -0.3918  0.1880
   94CHL1   H25 9428   5.863   4.753   8.195 -0.5866 -1.6862  1.4467
   94CHL1   C26 9429   5.688   4.691   8.313 -0.5005  0.1629 -0.5531
   94CHL1  H26A 9430   5.705   4.756   8.402 -0.9893  0.5235 -0.7194
   94CHL1  H26B 9431   5.577   4.691   8.301 -0.3492 -1.4798 -2.4393
   94CHL1  H26C 9432   5.728   4.589   8.331  0.6323  0.9554  1.8991
   94CHL1   C27 9433   5.713   4.654   8.064 -0.2065 -0.0633  0.2676
   94CHL1  H27A 9434   5.744   4.549   8.084 -0.6896 -0.0880  0.9149
   94CHL1  H27B 9435   5.604   4.648   8.044 -0.2728  0.0723  0.5814
   94CHL1  H27C 9436   5.771   4.686   7.974 -2.5138  1.1496 -0.8709
   95CHL1    C3 9437   3.890   4.008   6.662  0.1369  0.0865  0.6030
   95CHL1    H3 9438   3.976   3.946   6.696  2.1812  1.8583 -1.0783
   95CHL1    O3 9439   3.897   4.022   6.521 -0.2562  0.0848 -0.2465
   95CHL1   H3' 9440   3.822   3.968   6.494 -0.4916  0.1113  0.3415
   95CHL1    C4 9441   3.762   3.936   6.710  0.3943 -0.3140 -0.2701
   95CHL1   H4A 9442   3.675   3.993   6.672 -0.9286 -1.2447  1.1900
   95CHL1   H4B 9443   3.756   3.833   6.669 -2.0392 -1.1155  1.8112
   95CHL1    C5 9444   3.748   3.937   6.863 -0.7788 -0.1052 -0.2803
   95CHL1    C6 9445   3.723   3.820   6.929  0.6699  0.0450  0.1988
   95CHL1    H6 9446   3.690   3.732   6.872 -0.9000  0.7035  0.0125
   95CHL1    C7 9447   3.711   3.808   7.079  0.2075 -0.4477 -0.0970
   95CHL1   H7A 9448   3.625   3.738   7.089  0.4568 -0.6214  0.9498
   95CHL1   H7B 9449   3.799   3.767   7.132 -0.0793 -1.9383 -0.7032
   95CHL1    C8 9450   3.687   3.950   7.141  0.5884  0.1765  0.0897
   95CHL1    H8 9451   3.585   3.977   7.105  0.6614  0.8526  0.3777
   95CHL1   C14 9452   3.678   3.940   7.293  0.6185 -0.4711  0.0070
   95CHL1   H14 9453   3.775   3.898   7.327 -1.6644 -4.1150  2.8261
   95CHL1   C15 9454   3.574   3.840   7.357  0.9470  0.4028  0.0467
   95CHL1  H15A 9455   3.473   3.854   7.313  1.1173 -1.2665 -0.9757
   95CHL1  H15B 9456   3.598   3.732   7.350  1.7689  0.5626  0.1795
   95CHL1   C16 9457   3.571   3.892   7.506 -0.1672 -0.2570  0.2546
   95CHL1  H16A 9458   3.466   3.919   7.533  0.4761  1.0587  1.6213
   95CHL1  H16B 9459   3.620   3.822   7.577 -0.3155 -0.6995 -0.0776
   95CHL1   C17 9460   3.649   4.018   7.512 -0.7123 -0.0043 -0.8687
   95CHL1   H17 9461   3.753   3.990   7.539 -0.6180  2.2004  1.5119
   95CHL1   C13 9462   3.662   4.076   7.365  0.0962  0.3581 -0.4240
   95CHL1   C18 9463   3.529   4.143   7.328 -0.6093 -0.0260  0.7713
   95CHL1  H18A 9464   3.528   4.249   7.363  0.0257  0.0847  0.4679
   95CHL1  H18B 9465   3.528   4.152   7.218  1.6984  0.7491  0.7470
   95CHL1  H18C 9466   3.444   4.086   7.372 -2.6649  2.1030 -0.2512
   95CHL1   C12 9467   3.794   4.156   7.338  0.1735 -1.2075  0.4670
   95CHL1  H12A 9468   3.796   4.258   7.383 -0.0828 -0.4228 -1.2268
   95CHL1  H12B 9469   3.884   4.106   7.379  0.1359 -0.7411  1.1341
   95CHL1   C11 9470   3.814   4.174   7.190  0.0911  0.0221 -0.0771
   95CHL1  H11A 9471   3.744   4.252   7.153 -0.1919 -0.4700 -0.5894
   95CHL1  H11B 9472   3.921   4.202   7.177  0.8804 -1.0862  3.1031
   95CHL1    C9 9473   3.796   4.044   7.097 -0.0246  0.2098 -0.5187
   95CHL1    H9 9474   3.888   3.986   7.119 -0.5320  0.4382  2.8685
   95CHL1   C10 9475   3.780   4.066   6.944 -0.5672  0.4453  0.3351
   95CHL1   C19 9476   3.656   4.160   6.914  0.4547  0.0470  0.3299
   95CHL1  H19A 9477   3.667   4.257   6.966  0.3234  1.1354 -1.5594
   95CHL1  H19B 9478   3.637   4.168   6.805 -0.9435 -0.7302  0.4811
   95CHL1  H19C 9479   3.561   4.121   6.957  1.2961  0.5141  2.7588
   95CHL1    C1 9480   3.906   4.119   6.884  0.4153 -0.3448  0.0900
   95CHL1   H1A 9481   3.931   4.210   6.942 -0.4066 -0.8852  1.3312
   95CHL1   H1B 9482   3.986   4.048   6.913  0.5575 -0.0410  0.4418
   95CHL1    C2 9483   3.916   4.141   6.732  0.5834  0.5246 -0.3612
   95CHL1   H2A 9484   4.018   4.168   6.700  1.2180  0.4863  1.5159
   95CHL1   H2B 9485   3.834   4.207   6.697 -0.0747 -1.4342 -2.8038
   95CHL1   C20 9486   3.599   4.113   7.623  0.4058 -0.1681  0.1502
   95CHL1   H20 9487   3.493   4.135   7.600  0.6547  0.5341 -0.3926
   95CHL1   C21 9488   3.676   4.244   7.623  0.6985 -0.5246  0.5129
   95CHL1  H21A 9489   3.658   4.304   7.531  1.9545 -0.0495  0.5524
   95CHL1  H21B 9490   3.786   4.230   7.638  0.4280 -2.1131  1.1739
   95CHL1  H21C 9491   3.640   4.311   7.704  0.6108 -1.1093  0.9607
   95CHL1   C22 9492   3.605   4.051   7.762  0.1531  0.0361 -0.1972
   95CHL1  H22A 9493   3.595   3.940   7.765  1.3632 -0.0596  0.5963
   95CHL1  H22B 9494   3.707   4.073   7.800  0.7978 -1.9234 -0.6717
   95CHL1   C23 9495   3.515   4.118   7.861 -0.1312 -0.2043 -0.7583
   95CHL1  H23A 9496   3.510   4.229   7.863 -2.8213 -0.2748 -0.3815
   95CHL1  H23B 9497   3.415   4.084   7.826 -1.0966  1.4414  0.2586
   95CHL1   C24 9498   3.534   4.069   8.011  0.4416  1.0052  0.5026
   95CHL1  H24A 9499   3.460   4.112   8.082 -0.3325  1.7111 -0.6906
   95CHL1  H24B 9500   3.527   3.959   8.004  1.2793  0.9108  0.9735
   95CHL1   C25 9501   3.682   4.090   8.074 -0.0193 -0.6234  0.5791
   95CHL1   H25 9502   3.748   4.038   8.002 -0.5798 -0.9964  0.3235
   95CHL1   C26 9503   3.712   4.243   8.071 -0.1333  0.5441 -0.3749
   95CHL1  H26A 9504   3.745   4.263   7.967  1.0310 -1.4878 -0.4605
   95CHL1  H26B 9505   3.623   4.308   8.082 -0.8943 -0.5525  0.1484
   95CHL1  H26C 9506   3.795   4.271   8.140 -0.1876  0.2170 -0.1721
   95CHL1   C27 9507   3.688   4.024   8.211  0.2230  0.0117 -0.4806
   95CHL1  H27A 9508   3.622   4.071   8.287 -0.5460  1.1863 -1.8063
   95CHL1  H27B 9509   3.662   3.917   8.194 -1.0877  0.3856 -0.9901
   95CHL1  H27C 9510   3.793   4.023   8.248  1.1369 -2.0419 -2.7785
   96CHL1    C3 9511   2.355   3.140   6.796  1.0459 -1.0304 -0.8118
   96CHL1    H3 9512   2.448   3.200   6.788  0.5581 -0.2332 -0.5062
   96CHL1    O3 9513   2.306   3.121   6.665  0.3087  0.4110 -0.4031
   96CHL1   H3' 9514   2.235   3.184   6.652 -2.5640 -1.8816  2.4650
   96CHL1    C4 9515   2.395   3.004   6.861  0.8177  0.1414  0.1506
   96CHL1   H4A 9516   2.309   2.937   6.839  0.5675  0.3180  0.5813
   96CHL1   H4B 9517   2.473   2.949   6.804 -0.1982 -3.1053  1.6660
   96CHL1    C5 9518   2.429   3.005   7.001  0.1978  0.2904 -0.1765
   96CHL1    C6 9519   2.549   2.955   7.049  0.1675 -0.3947 -0.1115
   96CHL1    H6 9520   2.613   2.900   6.978 -1.0255 -3.4744  1.0279
   96CHL1    C7 9521   2.598   2.937   7.193  0.4990 -0.3295  0.1982
   96CHL1   H7A 9522   2.632   2.833   7.209  1.1714 -0.2976 -0.9109
   96CHL1   H7B 9523   2.687   3.000   7.217  0.9502 -0.9680  0.2324
   96CHL1    C8 9524   2.483   2.971   7.283 -0.2353  0.1135 -0.3330
   96CHL1    H8 9525   2.418   2.883   7.300 -0.1539 -0.0412 -0.8116
   96CHL1   C14 9526   2.534   3.019   7.420 -0.5945  0.2646 -0.0933
   96CHL1   H14 9527   2.608   3.101   7.406  3.7126 -3.0231  1.2848
   96CHL1   C15 9528   2.631   2.922   7.494  0.0380  0.2475 -0.6739
   96CHL1  H15A 9529   2.589   2.821   7.474  3.3790 -0.9785 -2.0997
   96CHL1  H15B 9530   2.729   2.923   7.443 -0.5300  0.3600 -1.7933
   96CHL1   C16 9531   2.634   2.979   7.637 -0.4866 -0.3064 -0.2931
   96CHL1  H16A 9532   2.624   2.902   7.717 -0.3501  1.8164  1.8781
   96CHL1  H16B 9533   2.730   3.022   7.673  0.4466 -2.8251  0.4803
   96CHL1   C17 9534   2.527   3.088   7.643  0.2363  0.1804 -0.5314
   96CHL1   H17 9535   2.572   3.186   7.615 -1.6907  1.0456 -0.7797
   96CHL1   C13 9536   2.432   3.067   7.522  0.4240  0.2011 -0.1668
   96CHL1   C18 9537   2.338   2.951   7.562  0.3542 -0.2320  0.3726
   96CHL1  H18A 9538   2.282   2.977   7.654  0.4086  0.9704  0.0822
   96CHL1  H18B 9539   2.265   2.931   7.480 -0.4223  0.8863  0.7704
   96CHL1  H18C 9540   2.395   2.860   7.591 -0.1408 -0.5203  0.4400
   96CHL1   C12 9541   2.352   3.189   7.471  0.2521 -0.3959  0.5713
   96CHL1  H12A 9542   2.281   3.238   7.541 -0.4987  0.2050 -0.5903
   96CHL1  H12B 9543   2.435   3.262   7.455 -0.4869  0.0259 -1.5126
   96CHL1   C11 9544   2.290   3.154   7.338 -0.8188  0.3134  0.0817
   96CHL1  H11A 9545   2.215   3.072   7.350 -1.1545  0.3240 -1.7270
   96CHL1  H11B 9546   2.243   3.250   7.308 -1.7402 -0.5071 -1.1733
   96CHL1    C9 9547   2.397   3.093   7.238 -0.2975 -0.0433 -0.3982
   96CHL1    H9 9548   2.470   3.176   7.229 -0.2393 -0.2628 -2.4420
   96CHL1   C10 9549   2.335   3.077   7.095 -0.5802 -0.2831 -0.5996
   96CHL1   C19 9550   2.204   2.985   7.108  0.1141  0.0122  0.2445
   96CHL1  H19A 9551   2.169   2.949   7.009  0.5143 -2.5989  0.9678
   96CHL1  H19B 9552   2.218   2.887   7.158  0.8239  0.8214  1.6795
   96CHL1  H19C 9553   2.115   3.042   7.139 -1.6834 -2.6872  0.4096
   96CHL1    C1 9554   2.297   3.215   7.035  0.2693 -0.1158 -0.2788
   96CHL1   H1A 9555   2.213   3.257   7.094 -0.3822 -1.0441 -0.5317
   96CHL1   H1B 9556   2.377   3.293   7.037 -0.2124  0.4044  2.2660
   96CHL1    C2 9557   2.253   3.208   6.884 -0.0622 -0.2752  0.5568
   96CHL1   H2A 9558   2.228   3.311   6.850 -0.2515 -0.3803  0.3787
   96CHL1   H2B 9559   2.156   3.155   6.880 -1.2992  1.8653 -3.6650
   96CHL1   C20 9560   2.473   3.109   7.789  0.0880  0.3748  0.3526
   96CHL1   H20 9561   2.390   3.039   7.814 -0.4612  1.2674  1.0816
   96CHL1   C21 9562   2.392   3.245   7.795 -0.9576 -0.2727  0.5224
   96CHL1  H21A 9563   2.293   3.244   7.745 -2.2726  1.6931  2.8176
   96CHL1  H21B 9564   2.446   3.337   7.766 -3.0309  0.3048 -1.8344
   96CHL1  H21C 9565   2.358   3.262   7.900 -2.1850  0.5784  0.0035
   96CHL1   C22 9566   2.576   3.100   7.917  0.8258 -0.0470  0.3715
   96CHL1  H22A 9567   2.658   3.027   7.899  0.4666 -0.9419  2.1007
   96CHL1  H22B 9568   2.619   3.199   7.943  2.2128 -0.8237  1.1732
   96CHL1   C23 9569   2.510   3.042   8.045 -0.5773 -0.6835 -0.3076
   96CHL1  H23A 9570   2.426   3.112   8.065  1.7262  1.5802  2.1417
   96CHL1  H23B 9571   2.475   2.937   8.035  1.4300 -1.4980  0.6505
   96CHL1   C24 9572   2.608   3.055   8.164 -0.0792  0.1497 -0.3168
   96CHL1  H24A 9573   2.703   2.999   8.150  0.5122  0.3295  2.5110
   96CHL1  H24B 9574   2.644   3.160   8.161  3.1435 -0.7990  0.5427
   96CHL1   C25 9575   2.559   3.024   8.302  0.4290  0.9169 -0.1663
   96CHL1   H25 9576   2.454   3.059   8.308  0.1066 -0.0078 -0.2316
   96CHL1   C26 9577   2.562   2.867   8.327  0.2411 -0.7828  0.2164
   96CHL1  H26A 9578   2.475   2.821   8.275 -0.9272  0.4069  1.0629
   96CHL1  H26B 9579   2.661   2.821   8.308  1.2399  1.5901 -0.7230
   96CHL1  H26C 9580   2.536   2.863   8.435  0.4526 -0.7701  0.2681
   96CHL1   C27 9581   2.643   3.087   8.409  0.4548 -0.4133 -0.1464
   96CHL1  H27A 9582   2.753   3.074   8.399  0.7865  1.3606  0.7229
   96CHL1  H27B 9583   2.619   3.195   8.417  1.4966 -0.2251  0.7350
   96CHL1  H27C 9584   2.625   3.049   8.512 -0.2831 -0.6231 -0.3444
   97OSM      N 9585   0.987   3.309  11.002 -0.1061  0.0196  0.1846
   97OSM    C15 9586   0.920   3.227  10.892  0.2164 -0.3710  0.7229
   97OSM   H15A 9587   0.835   3.284  10.856  2.2168  2.8704  0.7117
   97OSM   H15B 9588   0.887   3.134  10.937  2.4855 -1.3997  0.4086
   97OSM   H15C 9589   0.992   3.194  10.819 -0.9946 -0.7658 -0.3385
   97OSM    C14 9590   0.890   3.312  11.113  0.0814 -0.4948  0.2136
   97OSM   H14A 9591   0.873   3.209  11.141  1.9865  0.0039  3.8850
   97OSM   H14B 9592   0.796   3.359  11.090 -0.1468 -0.8872  0.3377
   97OSM   H14C 9593   0.931   3.362  11.200  1.4223 -1.4955  0.1888
   97OSM    C13 9594   1.118   3.252  11.049 -0.3445 -0.1146  0.0758
   97OSM   H13A 9595   1.100   3.160  11.102  1.8355  0.3985  1.8396
   97OSM   H13B 9596   1.173   3.319  11.114  2.1104 -1.7817 -0.1644
   97OSM   H13C 9597   1.183   3.222  10.968  1.1827  0.7855  0.9251
   97OSM    C12 9598   1.011   3.454  10.951  0.6668 -0.2583  0.4116
   97OSM   H12A 9599   0.913   3.495  10.930  1.0525 -0.0982 -1.1950
   97OSM   H12B 9600   1.058   3.463  10.855  0.7411 -1.1491  0.3524
   97OSM    C11 9601   1.075   3.557  11.054 -0.2581  0.4962 -0.2981
   97OSM   H11A 9602   0.999   3.574  11.132  0.9670  0.2690  0.9880
   97OSM   H11B 9603   1.089   3.656  11.005 -2.0417  0.9991  0.1496
   97OSM      P 9604   1.337   3.559  11.063 -0.2997 -0.4615  0.4895
   97OSM    O13 9605   1.353   3.698  11.101  0.2956 -0.2102  0.8461
   97OSM    O14 9606   1.441   3.465  11.098 -0.6205 -0.2620  0.1309
   97OSM    O11 9607   1.309   3.550  10.907 -0.1100  0.1136  0.1581
   97OSM    O12 9608   1.199   3.515  11.119 -0.3758  0.2743  0.4459
   97OSM    C1S 9609   1.323   3.677  10.835 -0.0272 -0.2417  0.1162
   97OSM    H1S 9610   1.421   3.727  10.853  0.0503 -0.4668  0.3215
   97OSM    H1T 9611   1.239   3.746  10.858  0.6591  0.8849 -0.6402
   97OSM     NF 9612   1.340   3.801  10.626 -0.2786  1.1830  0.1262
   97OSM    HNF 9613   1.260   3.836  10.578  0.7959  0.1132 -2.6602
   97OSM    C2S 9614   1.328   3.663  10.677 -0.3334  0.1106 -0.3081
   97OSM    H2S 9615   1.418   3.603  10.655 -0.5402 -1.2133  2.0865
   97OSM    C3S 9616   1.198   3.586  10.624  0.1385 -0.1993  0.7811
   97OSM    H3S 9617   1.103   3.623  10.669  0.3503  0.3393  0.7953
   97OSM     O3 9618   1.190   3.460  10.686 -0.8040 -0.0283  0.0793
   97OSM    HO3 9619   1.243   3.471  10.766 -1.6271  1.0969  0.4867
   97OSM    C4S 9620   1.183   3.585  10.473  0.1134 -0.1630 -0.0297
   97OSM    H4S 9621   1.149   3.681  10.431 -1.8897 -0.9837 -0.3587
   97OSM    C5S 9622   1.206   3.482  10.392  0.0817 -0.2733 -0.1828
   97OSM    H5S 9623   1.234   3.384  10.435  0.3264  0.7161  2.0306
   97OSM    C6S 9624   1.194   3.480  10.239  0.8582 -0.2106  0.2890
   97OSM    H6S 9625   1.292   3.490  10.187 -0.0339  2.3073 -1.0797
   97OSM    H6T 9626   1.143   3.574  10.206  0.7479 -0.4740 -0.3017
   97OSM    C7S 9627   1.093   3.368  10.204 -0.1270 -0.0272  0.1136
   97OSM    H7S 9628   0.998   3.384  10.259 -1.1937  0.0289 -1.6823
   97OSM    H7T 9629   1.140   3.269  10.222 -0.8988 -0.8809 -2.2190
   97OSM    C8S 9630   1.062   3.372  10.059  0.0271 -0.2246  0.2038
   97OSM    H8S 9631   1.149   3.345   9.995 -0.1318  0.8143 -0.4707
   97OSM    H8T 9632   1.039   3.477  10.033  0.3821 -0.3388 -0.6005
   97OSM    C9S 9633   0.942   3.288  10.016  0.1334  0.6452 -0.1423
   97OSM    H9S 9634   0.886   3.353   9.946  0.5136  0.5674 -0.5235
   97OSM    H9T 9635   0.878   3.279  10.107 -0.7468 -1.0746 -0.8868
   97OSM   C10S 9636   0.978   3.154   9.955  0.2548 -0.1795 -0.3279
   97OSM   H10S 9637   0.889   3.088   9.970  1.6127 -1.6924  1.7436
   97OSM   H10T 9638   1.057   3.101  10.013  0.0830  0.8933  0.9280
   97OSM   C11S 9639   1.019   3.173   9.803  1.1505 -0.3217  0.7936
   97OSM   H11S 9640   1.097   3.251   9.813 -0.7883  1.8085  0.0101
   97OSM   H11T 9641   0.932   3.221   9.754  0.3622 -1.0314  1.4708
   97OSM   C12S 9642   1.053   3.042   9.731 -0.2357 -0.3973  0.3753
   97OSM   H12S 9643   0.962   2.979   9.737 -0.1209 -0.5144  0.8680
   97OSM   H12T 9644   1.128   2.994   9.797  0.4470  2.3935  1.7702
   97OSM   C13S 9645   1.098   3.054   9.583  0.5410 -0.2093  0.1156
   97OSM   H13S 9646   1.116   2.952   9.543 -2.6199  0.1628 -2.7149
   97OSM   H13T 9647   1.193   3.111   9.572  0.9794 -1.1699 -1.3273
   97OSM   C14S 9648   0.995   3.122   9.482  0.4210  0.4199 -0.0700
   97OSM   H14S 9649   0.985   3.231   9.501  3.3088  0.7815 -0.1517
   97OSM   H14T 9650   0.899   3.069   9.499  0.3414  0.4144 -0.5188
   97OSM   C15S 9651   1.027   3.100   9.333 -0.1706 -0.3142  0.1909
   97OSM   H15S 9652   0.928   3.133   9.295  0.0135  1.4020  1.0745
   97OSM   H15T 9653   1.052   2.994   9.315  2.4632  0.3821 -0.6804
   97OSM   C16S 9654   1.137   3.200   9.274  0.5767 -0.6633 -0.1845
   97OSM   H16S 9655   1.236   3.150   9.286 -0.1919 -2.2850 -0.4036
   97OSM   H16T 9656   1.120   3.291   9.336 -1.4119 -0.3709 -1.0940
   97OSM   C17S 9657   1.122   3.230   9.122 -0.4887  0.1362 -0.0264
   97OSM   H17S 9658   1.016   3.243   9.091 -0.4733 -0.9179 -0.5610
   97OSM   H17T 9659   1.155   3.144   9.060 -0.0533  1.7352 -2.1232
   97OSM   C18S 9660   1.202   3.350   9.074 -0.4231  0.1137  0.0621
   97OSM   H18S 9661   1.177   3.446   9.123  0.0684 -0.2356  1.0243
   97OSM   H18T 9662   1.183   3.363   8.965  0.8309  0.1674 -0.1706
   97OSM   H18U 9663   1.309   3.323   9.088 -0.3520 -0.1102 -0.8005
   97OSM    C1F 9664   1.460   3.858  10.615  0.3638  0.0987 -0.5260
   97OSM     OF 9665   1.560   3.805  10.666  0.0827  0.0856  0.5368
   97OSM    C2F 9666   1.472   3.971  10.523  0.1369 -0.5415  0.2281
   97OSM    H2F 9667   1.501   4.069  10.567 -0.5069 -0.8785  1.4376
   97OSM    H2G 9668   1.376   3.987  10.470 -0.4331 -1.4965  0.9385
   97OSM    C3F 9669   1.584   3.945  10.422  0.1017 -0.8564  0.3015
   97OSM    H3F 9670   1.687   3.960  10.462  0.8384  0.6374 -1.9417
   97OSM    H3G 9671   1.575   4.028  10.348  0.6897 -1.4338 -0.4322
   97OSM    C4F 9672   1.575   3.806  10.348  0.0805  0.6028 -0.3719
   97OSM    H4F 9673   1.477   3.798  10.296 -0.1004 -0.9814  0.1627
   97OSM    H4G 9674   1.583   3.717  10.414  0.3902  1.2007  0.4171
   97OSM    C5F 9675   1.674   3.788  10.243  0.6454  0.2321  0.1158
   97OSM    H5F 9676   1.778   3.796  10.283  0.8057 -1.7018  0.1595
   97OSM    H5G 9677   1.668   3.888  10.195  0.1337  0.1544  0.0160
   97OSM    C6F 9678   1.650   3.673  10.149  0.3789 -0.1005 -0.1937
   97OSM    H6F 9679   1.545   3.675  10.112  0.2478 -0.8272  0.1321
   97OSM    H6G 9680   1.666   3.570  10.187 -0.1985 -0.2250 -0.2807
   97OSM    C7F 9681   1.745   3.698  10.037 -0.0668  0.1624  0.0932
   97OSM    H7F 9682   1.853   3.692  10.064 -0.2640 -0.6327  0.7499
   97OSM    H7G 9683   1.731   3.804  10.009 -0.2766  0.0738 -0.1461
   97OSM    C8F 9684   1.710   3.620   9.912  0.0970 -0.5547 -0.2561
   97OSM    H8F 9685   1.616   3.667   9.875 -0.6402 -1.2296  0.7159
   97OSM    H8G 9686   1.694   3.515   9.944 -2.1450 -0.5520 -1.1552
   97OSM    C9F 9687   1.816   3.630   9.811 -0.0448 -0.2233  0.8003
   97OSM    H9F 9688   1.918   3.616   9.850 -1.0668  0.4567  4.0501
   97OSM   C10F 9689   1.796   3.683   9.684 -0.8040 -0.7662 -0.9785
   97OSM   H10F 9690   1.886   3.684   9.620  0.7714 -1.0868  1.1002
   97OSM   C11F 9691   1.675   3.726   9.612  0.1330 -0.2534 -0.6087
   97OSM   H11F 9692   1.586   3.671   9.652 -0.0121 -0.1669 -0.8098
   97OSM   H11G 9693   1.677   3.684   9.509  0.6515  2.2108 -1.6573
   97OSM   C12F 9694   1.648   3.881   9.605  0.7316 -0.1183 -0.5223
   97OSM   H12F 9695   1.553   3.891   9.549 -0.3804 -1.7433  0.9370
   97OSM   H12G 9696   1.736   3.930   9.558  0.9547  2.8372  2.5411
   97OSM   C13F 9697   1.640   3.942   9.744  0.2298 -0.7144 -0.6378
   97OSM   H13F 9698   1.734   3.913   9.795 -0.1870  0.6078  0.9409
   97OSM   H13G 9699   1.562   3.892   9.804 -0.8013  2.0277  0.4507
   97OSM   C14F 9700   1.623   4.095   9.743 -0.1722  0.3762  0.3343
   97OSM   H14F 9701   1.530   4.107   9.685 -1.0881 -0.0895  1.6463
   97OSM   H14G 9702   1.710   4.131   9.684 -0.9576  2.9175  0.6258
   97OSM   C15F 9703   1.603   4.164   9.882 -0.0952  0.2338 -0.2616
   97OSM   H15F 9704   1.521   4.106   9.930  0.2394 -0.6806 -0.7708
   97OSM   H15G 9705   1.558   4.264   9.867 -2.8371 -0.1049  4.0353
   97OSM   C16F 9706   1.728   4.170   9.963 -0.6681 -0.6278 -0.8511
   97OSM   H16F 9707   1.792   4.251   9.921 -0.3010  0.6035  1.8972
   97OSM   H16G 9708   1.779   4.071   9.965  0.2529 -0.1956  2.0664
   97OSM   C17F 9709   1.709   4.201  10.114  0.1877 -0.9090 -0.0997
   97OSM   H17F 9710   1.655   4.117  10.162 -0.2001 -0.3422  0.4704
   97OSM   H17G 9711   1.649   4.294  10.115 -0.6382 -1.4254 -0.6086
   97OSM   C18F 9712   1.842   4.211  10.173 -0.0664 -0.7437 -0.2337
   97OSM   H18F 9713   1.891   4.115  10.201 -0.0774 -0.4966  0.6774
   97OSM   H18G 9714   1.846   4.274  10.265  2.3755 -0.2407 -0.6026
   97OSM   H18H 9715   1.910   4.259  10.100 -0.0102 -0.8470 -0.2489
   98OSM      N 9716   1.009   1.206  11.147 -0.4044 -0.1813  0.7123
   98OSM    C15 9717   0.966   1.348  11.157 -0.1392 -0.5913  0.2888
   98OSM   H15A 9718   0.858   1.352  11.154 -0.0883  0.7553 -1.7564
   98OSM   H15B 9719   1.001   1.404  11.072 -0.3760 -2.1069 -0.8387
   98OSM   H15C 9720   1.000   1.393  11.249  2.4569 -1.7757 -0.0273
   98OSM    C14 9721   1.153   1.198  11.176  0.1672 -0.2716  0.4805
   98OSM   H14A 9722   1.167   1.243  11.273 -0.4249  0.9938 -0.0043
   98OSM   H14B 9723   1.209   1.236  11.091 -1.2696 -1.3081 -1.0014
   98OSM   H14C 9724   1.186   1.096  11.189 -2.3603 -1.5506 -2.0049
   98OSM    C13 9725   0.950   1.106  11.243  0.2166  0.0971 -0.3388
   98OSM   H13A 9726   0.986   1.007  11.218  0.5934  1.0438 -4.1823
   98OSM   H13B 9727   0.843   1.112  11.229  0.4458  0.8721 -2.0329
   98OSM   H13C 9728   0.970   1.139  11.344 -1.7226  1.9899 -0.5036
   98OSM    C12 9729   0.997   1.157  11.003  0.0227 -0.4493  0.0869
   98OSM   H12A 9730   0.906   1.098  10.997 -0.2880  0.1300 -1.2555
   98OSM   H12B 9731   1.076   1.092  10.970  2.4309  2.8167 -1.0697
   98OSM    C11 9732   0.980   1.270  10.894  0.3484 -0.2883  0.0935
   98OSM   H11A 9733   0.884   1.326  10.896  0.1315 -0.6532  1.9897
   98OSM   H11B 9734   0.966   1.222  10.795 -2.6266 -0.3049  0.4191
   98OSM      P 9735   1.210   1.344  10.800 -0.1608  0.2218 -0.5827
   98OSM    O13 9736   1.323   1.428  10.836 -0.0045  0.2144  0.0667
   98OSM    O14 9737   1.245   1.202  10.802  0.1791 -0.1228 -0.0277
   98OSM    O11 9738   1.149   1.390  10.668  0.7029  0.3498  0.0928
   98OSM    O12 9739   1.089   1.366  10.903  0.5560 -0.7780  0.0612
   98OSM    C1S 9740   1.204   1.352  10.540  0.3414  0.1097  0.2163
   98OSM    H1S 9741   1.302   1.302  10.553  1.0635  1.2433 -0.6857
   98OSM    H1T 9742   1.226   1.450  10.492 -2.3181  0.9094  0.4294
   98OSM     NF 9743   1.172   1.231  10.322  0.2986 -0.2112 -0.4508
   98OSM    HNF 9744   1.175   1.298  10.248 -1.9924  0.4376 -0.0272
   98OSM    C2S 9745   1.104   1.278  10.450 -0.0648  0.5943  0.3686
   98OSM    H2S 9746   1.061   1.186  10.496 -1.1660 -0.6999 -2.9859
   98OSM    C3S 9747   0.974   1.373  10.424 -0.2169  0.2865 -0.0946
   98OSM    H3S 9748   1.016   1.467  10.384  0.1887 -0.8718 -2.6079
   98OSM     O3 9749   0.896   1.390  10.541  0.4897  0.2817  0.0171
   98OSM    HO3 9750   0.959   1.381  10.613 -0.3805 -0.0271  0.7528
   98OSM    C4S 9751   0.890   1.328  10.302  0.8322 -0.2594  0.0840
   98OSM    H4S 9752   0.919   1.379  10.208  0.5380  1.6261  0.9703
   98OSM    C5S 9753   0.770   1.262  10.309 -0.4237  0.1392 -0.0695
   98OSM    H5S 9754   0.734   1.233  10.408 -2.7588  1.0427 -0.5722
   98OSM    C6S 9755   0.675   1.215  10.198 -0.5637  0.4213  0.4578
   98OSM    H6S 9756   0.586   1.281  10.212  1.3495  3.4264 -0.5983
   98OSM    H6T 9757   0.648   1.109  10.216 -0.5815  0.1605 -0.9988
   98OSM    C7S 9758   0.717   1.224  10.058  0.1098 -0.4187  0.0776
   98OSM    H7S 9759   0.772   1.320  10.055 -0.5889 -0.0175 -1.4888
   98OSM    H7T 9760   0.629   1.232   9.990  1.9290 -1.9098 -2.6626
   98OSM    C8S 9761   0.812   1.117  10.016 -0.0498 -0.4227 -0.1254
   98OSM    H8S 9762   0.778   1.015  10.044 -1.4548 -0.1115 -0.6050
   98OSM    H8T 9763   0.914   1.128  10.058 -1.0229  0.6115  2.0970
   98OSM    C9S 9764   0.824   1.119   9.862  0.3711 -0.0982  0.3989
   98OSM    H9S 9765   0.732   1.067   9.828 -0.0383  0.5915  0.4209
   98OSM    H9T 9766   0.913   1.058   9.836 -0.7854 -1.3274 -0.8568
   98OSM   C10S 9767   0.835   1.259   9.803 -0.3388  0.0064 -0.0085
   98OSM   H10S 9768   0.929   1.290   9.852 -0.1314  0.0858 -0.4545
   98OSM   H10T 9769   0.741   1.308   9.836 -1.0684 -1.8252  0.7999
   98OSM   C11S 9770   0.847   1.265   9.654 -1.0660  0.6055  0.9829
   98OSM   H11S 9771   0.820   1.368   9.621  2.8679  1.8844  1.2570
   98OSM   H11T 9772   0.769   1.194   9.618  0.5887 -0.9834  0.3484
   98OSM   C12S 9773   0.990   1.233   9.613  0.3849 -0.2546  0.7292
   98OSM   H12S 9774   1.007   1.125   9.634  1.6296 -0.3184 -0.4351
   98OSM   H12T 9775   1.070   1.283   9.673  3.6115 -0.6074 -2.8823
   98OSM   C13S 9776   1.012   1.256   9.462  0.8318  0.8659 -0.3499
   98OSM   H13S 9777   1.018   1.364   9.436  0.7976  1.0010  0.1914
   98OSM   H13T 9778   0.927   1.206   9.411  0.4285 -0.5501  1.6340
   98OSM   C14S 9779   1.140   1.188   9.415  0.4440  0.3837  0.1275
   98OSM   H14S 9780   1.110   1.081   9.424 -0.6243  0.5373 -1.1736
   98OSM   H14T 9781   1.216   1.202   9.495 -0.2616  0.8109  0.7378
   98OSM   C15S 9782   1.184   1.214   9.265  0.0469 -0.4882  0.1248
   98OSM   H15S 9783   1.218   1.320   9.259  0.0234 -0.5330 -1.3156
   98OSM   H15T 9784   1.100   1.212   9.192 -0.1233  3.5863 -0.0499
   98OSM   C16S 9785   1.286   1.107   9.214 -0.3142 -0.2195  0.4158
   98OSM   H16S 9786   1.247   1.004   9.232 -0.8052 -1.2021 -4.8747
   98OSM   H16T 9787   1.377   1.117   9.279  1.3966  0.7417 -1.9842
   98OSM   C17S 9788   1.335   1.115   9.062 -0.5278  0.0594  0.4468
   98OSM   H17S 9789   1.390   1.020   9.045 -1.2477  0.0553 -2.1630
   98OSM   H17T 9790   1.394   1.209   9.056 -0.3064  0.0441  2.0222
   98OSM   C18S 9791   1.227   1.142   8.956  0.5220 -0.2972 -0.5143
   98OSM   H18S 9792   1.182   1.048   8.916 -1.7065  1.0626 -1.3688
   98OSM   H18T 9793   1.275   1.199   8.873 -0.5370 -0.3355 -1.1673
   98OSM   H18U 9794   1.140   1.200   8.992  0.8631  0.4295 -0.8450
   98OSM    C1F 9795   1.265   1.136  10.325  0.2200  0.0632 -0.2723
   98OSM     OF 9796   1.278   1.060  10.423 -0.3354 -0.5755  0.0714
   98OSM    C2F 9797   1.358   1.124  10.212 -0.1532 -0.5310  0.2633
   98OSM    H2F 9798   1.444   1.192  10.229  1.1241 -2.3344  1.3286
   98OSM    H2G 9799   1.299   1.145  10.120 -1.0850 -0.0012  0.9637
   98OSM    C3F 9800   1.422   0.984  10.206  1.1418 -0.1237  0.1066
   98OSM    H3F 9801   1.347   0.922  10.152  1.1188 -1.0779  1.1830
   98OSM    H3G 9802   1.448   0.944  10.306 -1.5318 -0.3445  0.7758
   98OSM    C4F 9803   1.550   0.988  10.119 -0.2903  0.0951 -0.2526
   98OSM    H4F 9804   1.602   0.890  10.113 -0.0008  0.2158  0.2274
   98OSM    H4G 9805   1.620   1.064  10.161 -1.7999  2.5898 -1.9320
   98OSM    C5F 9806   1.526   1.043   9.978  0.5074 -0.0749 -0.4535
   98OSM    H5F 9807   1.524   1.154   9.974 -1.0644 -0.0073  1.2264
   98OSM    H5G 9808   1.428   1.014   9.937  1.0011 -1.8005 -0.4723
   98OSM    C6F 9809   1.629   0.994   9.876 -0.4297 -0.0193 -0.4722
   98OSM    H6F 9810   1.624   0.883   9.884  1.0167 -0.2646 -2.3263
   98OSM    H6G 9811   1.724   1.036   9.915 -0.3500 -1.0217  0.4643
   98OSM    C7F 9812   1.604   1.043   9.734  0.5856  0.3101  0.5421
   98OSM    H7F 9813   1.696   1.023   9.675 -1.4443 -1.3419 -2.3305
   98OSM    H7G 9814   1.562   1.145   9.728  0.9769  0.4754  0.5754
   98OSM    C8F 9815   1.492   0.960   9.667 -0.2058 -0.0791  0.4174
   98OSM    H8F 9816   1.468   0.997   9.565  1.3971 -0.3174 -0.0720
   98OSM    H8G 9817   1.395   0.972   9.719 -1.9779  0.4744 -2.7496
   98OSM    C9F 9818   1.522   0.807   9.657 -0.0511  0.4987  0.9519
   98OSM    H9F 9819   1.608   0.775   9.718  1.9052  3.0499 -0.2674
   98OSM   C10F 9820   1.476   0.718   9.567  0.4196  0.2299  0.3994
   98OSM   H10F 9821   1.516   0.615   9.575  1.7637  0.6032 -1.0283
   98OSM   C11F 9822   1.375   0.726   9.456  0.6063  0.1289  0.1020
   98OSM   H11F 9823   1.315   0.819   9.465  1.2071  0.4485  1.0037
   98OSM   H11G 9824   1.301   0.648   9.483 -0.3144  0.8858 -0.2119
   98OSM   C12F 9825   1.434   0.704   9.317  0.5820  0.4002  0.5070
   98OSM   H12F 9826   1.515   0.628   9.321 -0.4312 -0.8155 -0.8078
   98OSM   H12G 9827   1.483   0.797   9.281  1.5611 -0.1237  0.4474
   98OSM   C13F 9828   1.329   0.665   9.220  0.0106  0.2147  0.6549
   98OSM   H13F 9829   1.242   0.734   9.225 -1.4799 -1.5249  0.1916
   98OSM   H13G 9830   1.297   0.563   9.249 -1.3866 -0.2903 -2.2429
   98OSM   C14F 9831   1.388   0.670   9.079 -0.1573  0.3900  0.3197
   98OSM   H14F 9832   1.475   0.601   9.072 -2.2318 -2.4192  0.1511
   98OSM   H14G 9833   1.419   0.774   9.059 -0.1620  0.1054 -1.2731
   98OSM   C15F 9834   1.293   0.634   8.960  0.0028 -0.4485 -0.7324
   98OSM   H15F 9835   1.214   0.713   8.958 -1.2813 -1.6950 -1.1162
   98OSM   H15G 9836   1.238   0.540   8.982 -3.0800  1.5391  0.9047
   98OSM   C16F 9837   1.356   0.643   8.820 -0.2411 -0.3466 -0.8297
   98OSM   H16F 9838   1.275   0.647   8.743 -1.2292 -1.8584  0.0765
   98OSM   H16G 9839   1.412   0.550   8.798  2.5661  0.5800  1.7936
   98OSM   C17F 9840   1.449   0.765   8.785  0.0815 -0.0763 -0.3620
   98OSM   H17F 9841   1.542   0.749   8.843 -0.5846 -2.3577  0.1770
   98OSM   H17G 9842   1.404   0.863   8.811  3.3768  0.9862  1.8752
   98OSM   C18F 9843   1.491   0.762   8.634  0.0613 -0.8225  0.1091
   98OSM   H18F 9844   1.543   0.858   8.612  2.7133 -1.9539  1.0633
   98OSM   H18G 9845   1.400   0.762   8.569  0.8922 -1.6752 -1.0900
   98OSM   H18H 9846   1.561   0.679   8.615  2.1730  0.1475  3.0010
   99OSM      N 9847   2.002   3.337  11.020 -0.4553 -0.3267  0.2503
   99OSM    C15 9848   1.875   3.263  11.044  0.0042  0.0835  0.3354
   99OSM   H15A 9849   1.874   3.176  10.980 -0.0926  0.0668  0.3586
   99OSM   H15B 9850   1.789   3.325  11.022  0.6673  1.5970  1.8278
   99OSM   H15C 9851   1.861   3.229  11.146 -2.2147  0.8957  0.3520
   99OSM    C14 9852   2.116   3.236  11.025  0.2448  0.1659  0.3846
   99OSM   H14A 9853   2.098   3.169  10.942 -0.1726  1.2654 -0.4422
   99OSM   H14B 9854   2.120   3.182  11.118 -0.2393 -0.1471  0.2280
   99OSM   H14C 9855   2.210   3.290  11.023 -0.1346  1.0701  3.1044
   99OSM    C13 9856   1.997   3.384  10.883  0.3312 -0.2869  0.4643
   99OSM   H13A 9857   2.004   3.305  10.809  1.6273  0.7163 -0.5503
   99OSM   H13B 9858   2.068   3.458  10.849 -1.0806  1.2566  0.7124
   99OSM   H13C 9859   1.905   3.438  10.862  1.1893  0.6957 -0.9713
   99OSM    C12 9860   2.024   3.446  11.123 -0.7395 -0.8807 -0.5802
   99OSM   H12A 9861   2.041   3.407  11.222  1.1742  2.0090  0.3665
   99OSM   H12B 9862   1.939   3.513  11.125 -0.9342 -1.1457  0.0192
   99OSM    C11 9863   2.150   3.537  11.099 -0.4145 -0.6391 -0.5727
   99OSM   H11A 9864   2.232   3.465  11.075 -0.7188 -1.5793  1.0762
   99OSM   H11B 9865   2.180   3.589  11.192 -2.1881  0.1732 -0.4242
   99OSM      P 9866   2.049   3.756  10.998 -0.2416 -0.2529  0.4785
   99OSM    O13 9867   1.907   3.732  10.956  0.1760  0.0912 -0.3431
   99OSM    O14 9868   2.062   3.811  11.137 -0.0637 -0.0757  0.3927
   99OSM    O11 9869   2.113   3.863  10.901  0.2056 -0.1801 -0.1242
   99OSM    O12 9870   2.129   3.620  10.983 -0.4362  0.3530  0.0573
   99OSM    C1S 9871   2.104   3.854  10.754  0.3676 -0.1654 -0.5419
   99OSM    H1S 9872   2.092   3.747  10.726 -2.4321  0.4413 -2.1654
   99OSM    H1T 9873   2.193   3.901  10.706  0.8849  1.0097  1.4655
   99OSM     NF 9874   2.034   3.938  10.546  0.0813  0.0010  0.0381
   99OSM    HNF 9875   2.101   4.009  10.526 -0.7631  0.4885 -1.1652
   99OSM    C2S 9876   1.995   3.944  10.683 -0.2288  0.4212  0.3311
   99OSM    H2S 9877   1.898   3.894  10.699 -0.5398  0.9952  0.2470
   99OSM    C3S 9878   1.990   4.088  10.735  0.0041  0.8779 -1.0791
   99OSM    H3S 9879   2.092   4.130  10.719  1.4507 -2.1147 -0.3558
   99OSM     O3 9880   1.962   4.101  10.874 -0.6952  0.0044 -0.2680
   99OSM    HO3 9881   1.939   4.012  10.901  0.9394 -0.1507  0.7590
   99OSM    C4S 9882   1.894   4.172  10.664  0.0393 -0.4004  0.2247
   99OSM    H4S 9883   1.788   4.142  10.674  0.4111 -1.1872  2.6533
   99OSM    C5S 9884   1.926   4.298  10.617 -0.5144 -0.2470 -0.3750
   99OSM    H5S 9885   2.026   4.336  10.642 -0.6992 -0.1651  0.2505
   99OSM    C6S 9886   1.841   4.410  10.543 -0.1472  0.2928  0.2987
   99OSM    H6S 9887   1.873   4.438  10.441 -2.2858  0.1507 -0.4643
   99OSM    H6T 9888   1.846   4.507  10.597 -1.2460  1.5579 -1.7770
   99OSM    C7S 9889   1.689   4.392  10.535  0.8246  0.4525 -0.6985
   99OSM    H7S 9890   1.640   4.414  10.632  0.5705 -3.9083  0.3511
   99OSM    H7T 9891   1.653   4.292  10.501 -0.7598  1.0635 -0.9170
   99OSM    C8S 9892   1.635   4.488  10.430  0.5332  0.0797 -0.4063
   99OSM    H8S 9893   1.694   4.482  10.336 -0.2843 -0.9019 -0.8818
   99OSM    H8T 9894   1.667   4.587  10.466  0.2063  0.1438 -0.2865
   99OSM    C9S 9895   1.496   4.457  10.380  0.3626 -0.5732  0.3685
   99OSM    H9S 9896   1.429   4.449  10.468  0.1779 -0.8478  0.2033
   99OSM    H9T 9897   1.500   4.364  10.320 -0.0563  0.4077 -1.2275
   99OSM   C10S 9898   1.444   4.570  10.282  0.2984 -0.5752 -0.2892
   99OSM   H10S 9899   1.523   4.599  10.209 -0.5104  0.5305 -0.7523
   99OSM   H10T 9900   1.403   4.654  10.342  2.2899  0.8073 -0.7831
   99OSM   C11S 9901   1.325   4.523  10.196 -0.1199 -0.1069 -0.5450
   99OSM   H11S 9902   1.291   4.607  10.131  0.8384  1.8748  1.3806
   99OSM   H11T 9903   1.242   4.508  10.267  1.5281  1.3380  1.8293
   99OSM   C12S 9904   1.352   4.391  10.121  0.1065  0.1344  0.0673
   99OSM   H12S 9905   1.444   4.383  10.058 -0.3798 -0.9433 -0.5405
   99OSM   H12T 9906   1.360   4.303  10.188 -1.6425 -0.5563 -0.5858
   99OSM   C13S 9907   1.236   4.374  10.011  0.1243  0.7692 -0.0345
   99OSM   H13S 9908   1.210   4.470   9.962 -1.3011 -0.9286 -2.9526
   99OSM   H13T 9909   1.150   4.336  10.071  1.2468  0.8258  1.6720
   99OSM   C14S 9910   1.291   4.288   9.891  0.1190 -0.0476  0.0664
   99OSM   H14S 9911   1.332   4.192   9.928 -0.4886 -0.5313 -0.5077
   99OSM   H14T 9912   1.368   4.346   9.836  1.0729 -2.5923 -1.4700
   99OSM   C15S 9913   1.189   4.249   9.784 -0.2613  0.0485 -0.1173
   99OSM   H15S 9914   1.146   4.345   9.747  0.9186  1.6220  2.2957
   99OSM   H15T 9915   1.118   4.190   9.846  0.8337 -0.7947  0.3655
   99OSM   C16S 9916   1.254   4.162   9.677  0.8873 -0.8605  0.3369
   99OSM   H16S 9917   1.299   4.077   9.731  0.4283 -0.7891  0.8358
   99OSM   H16T 9918   1.339   4.220   9.634  0.0920 -1.4303 -2.2004
   99OSM   C17S 9919   1.157   4.132   9.561  0.1672 -0.1990 -0.4477
   99OSM   H17S 9920   1.117   4.224   9.513 -1.5372 -0.7933 -0.2525
   99OSM   H17T 9921   1.063   4.089   9.604 -1.1570  1.2783 -1.7335
   99OSM   C18S 9922   1.223   4.044   9.458 -0.1843 -0.2060  0.3678
   99OSM   H18S 9923   1.259   3.950   9.505 -0.4548 -0.7361 -0.4553
   99OSM   H18T 9924   1.310   4.097   9.413  0.3128  0.2305  1.7796
   99OSM   H18U 9925   1.161   4.028   9.367  0.2529 -0.6561  0.1433
   99OSM    C1F 9926   2.024   3.827  10.477 -0.7624 -0.8863 -0.0998
   99OSM     OF 9927   1.942   3.742  10.510  0.5924 -0.1247 -0.0811
   99OSM    C2F 9928   2.104   3.824  10.353 -0.4200 -0.3565 -1.2739
   99OSM    H2F 9929   2.141   3.926  10.327  2.1198 -0.9225 -0.1772
   99OSM    H2G 9930   2.030   3.788  10.278 -2.8017 -1.3150  1.3480
   99OSM    C3F 9931   2.216   3.719  10.358  0.7539  0.2048  0.0537
   99OSM    H3F 9932   2.289   3.747  10.437 -0.0564  0.1189  0.8496
   99OSM    H3G 9933   2.159   3.624  10.369  0.2785  0.4796  0.0080
   99OSM    C4F 9934   2.300   3.721  10.234  0.4783  0.5755 -0.0460
   99OSM    H4F 9935   2.372   3.803  10.252  1.5563 -0.7250  1.9805
   99OSM    H4G 9936   2.225   3.743  10.155 -0.5632 -3.2811 -0.3235
   99OSM    C5F 9937   2.375   3.596  10.199 -0.6762  0.7686  0.7011
   99OSM    H5F 9938   2.308   3.509  10.216  0.0442 -0.1768 -1.0404
   99OSM    H5G 9939   2.460   3.573  10.267  2.5664  1.1373 -2.8517
   99OSM    C6F 9940   2.428   3.601  10.059  0.0859  0.4589  0.1012
   99OSM    H6F 9941   2.478   3.503  10.049  0.6351  0.7512 -0.0249
   99OSM    H6G 9942   2.510   3.676  10.055  0.0586  0.8507  3.6507
   99OSM    C7F 9943   2.327   3.614   9.940 -0.3738 -0.4928 -0.1019
   99OSM    H7F 9944   2.262   3.703   9.954  1.5730  0.9266  0.2686
   99OSM    H7G 9945   2.263   3.523   9.943  0.3268 -1.0660 -1.5867
   99OSM    C8F 9946   2.408   3.616   9.806  0.4638 -0.5648 -0.5599
   99OSM    H8F 9947   2.460   3.517   9.803  1.2422 -0.2587  1.3734
   99OSM    H8G 9948   2.487   3.694   9.802  0.4383 -0.5134 -0.1475
   99OSM    C9F 9949   2.311   3.634   9.690  0.0756 -0.1522 -0.5300
   99OSM    H9F 9950   2.226   3.704   9.698 -2.0263 -2.3962 -1.8956
   99OSM   C10F 9951   2.318   3.564   9.577  0.3933 -0.2537  0.2218
   99OSM   H10F 9952   2.250   3.578   9.491  0.4854  0.3829  0.2475
   99OSM   C11F 9953   2.426   3.460   9.544 -0.0260 -0.2656 -0.8084
   99OSM   H11F 9954   2.386   3.360   9.571 -3.3375  1.1475  0.0611
   99OSM   H11G 9955   2.519   3.463   9.605  0.1773 -0.2651 -1.1189
   99OSM   C12F 9956   2.456   3.452   9.392 -0.6563  0.0707 -0.6505
   99OSM   H12F 9957   2.366   3.434   9.329  0.6577 -0.3704 -2.4803
   99OSM   H12G 9958   2.531   3.373   9.373 -1.0717 -0.3497 -0.5631
   99OSM   C13F 9959   2.518   3.581   9.337  0.6249 -0.2826 -0.1144
   99OSM   H13F 9960   2.604   3.610   9.401 -0.9188  0.6142  1.6273
   99OSM   H13G 9961   2.444   3.662   9.350  1.3589  0.2586  0.7704
   99OSM   C14F 9962   2.562   3.576   9.186 -0.1507  0.0668 -0.4137
   99OSM   H14F 9963   2.620   3.483   9.166 -0.4238 -0.4607  1.1010
   99OSM   H14G 9964   2.637   3.657   9.171 -0.8280  1.3198  2.3478
   99OSM   C15F 9965   2.442   3.597   9.091 -0.3492  0.0116 -0.1799
   99OSM   H15F 9966   2.385   3.683   9.132  2.4762  2.3077 -0.8070
   99OSM   H15G 9967   2.369   3.513   9.095 -0.3130 -0.1701 -2.3832
   99OSM   C16F 9968   2.484   3.633   8.953 -0.0028  0.4069 -0.0251
   99OSM   H16F 9969   2.562   3.571   8.905  0.0908  2.2568 -2.4400
   99OSM   H16G 9970   2.532   3.733   8.949 -0.4846  0.6119 -1.9720
   99OSM   C17F 9971   2.378   3.641   8.846  0.8004  0.1552 -0.0878
   99OSM   H17F 9972   2.321   3.734   8.869  1.7154  0.4097  1.2386
   99OSM   H17G 9973   2.326   3.547   8.875  0.9375 -0.3176 -1.3325
   99OSM   C18F 9974   2.429   3.629   8.703 -0.1672 -0.1672 -0.5572
   99OSM   H18F 9975   2.473   3.727   8.675  0.5566 -0.5978 -0.9473
   99OSM   H18G 9976   2.351   3.583   8.638 -0.2115 -0.9567  0.0293
   99OSM   H18H 9977   2.515   3.558   8.697 -0.2695 -0.5654  1.7923
  100OSM      N 9978   4.598   5.257  10.891  0.2929 -0.0163 -0.4850
  100OSM    C15 9979   4.680   5.257  11.022 -0.3010 -0.8815 -0.1157
  100OSM   H15A 9980   4.762   5.327  11.031 -0.5084 -0.7958  1.2232
  100OSM   H15B 9981   4.719   5.158  11.043 -0.0753 -0.2255  3.0559
  100OSM   H15C 9982   4.615   5.282  11.104 -0.3326 -1.1801 -0.0476
  100OSM    C14 9983   4.675   5.202  10.784 -0.1818 -0.2867  0.4068
  100OSM   H14A 9984   4.701   5.098  10.796  1.0006  0.0595  0.9766
  100OSM   H14B 9985   4.764   5.261  10.771 -0.1014 -0.4771  0.0857
  100OSM   H14C 9986   4.628   5.214  10.687 -0.1215  1.5692  0.5662
  100OSM    C13 9987   4.476   5.166  10.915 -0.3984 -0.0507  0.3543
  100OSM   H13A 9988   4.521   5.069  10.927  0.7267  0.5518  1.1610
  100OSM   H13B 9989   4.410   5.166  10.830 -0.5424 -2.2908  0.4071
  100OSM   H13C 9990   4.411   5.204  10.993 -0.1706  0.3097  0.3725
  100OSM    C12 9991   4.563   5.400  10.867 -0.1284 -0.0972  0.3520
  100OSM   H12A 9992   4.651   5.451  10.830  0.3429 -2.0875 -1.4369
  100OSM   H12B 9993   4.527   5.448  10.957 -0.4260  1.6222 -0.6350
  100OSM    C11 9994   4.455   5.430  10.761  0.1961  0.4701 -0.0495
  100OSM   H11A 9995   4.357   5.426  10.812  1.1071  0.8437  1.8203
  100OSM   H11B 9996   4.454   5.359  10.675 -2.5085 -1.6379  1.5663
  100OSM      P 9997   4.445   5.613  10.574 -0.2666 -0.1198  0.6356
  100OSM    O13 9998   4.380   5.503  10.500  0.0824 -0.0842 -0.0775
  100OSM    O14 9999   4.372   5.742  10.572 -0.1421  0.6755 -0.2216
  100OSM    O1110000   4.586   5.632  10.514 -0.2950  0.2933  0.0465
  100OSM    O1210001   4.469   5.567  10.720  0.0206  0.2545 -0.1683
  100OSM    C1S10002   4.676   5.531  10.499 -0.3161 -0.2230 -0.3893
  100OSM    H1S10003   4.674   5.456  10.581  1.0842 -0.5300 -0.6075
  100OSM    H1T10004   4.776   5.579  10.495 -0.4201 -0.0722 -2.2523
  100OSM     NF10005   4.749   5.349  10.353  0.2721 -0.1799 -0.9835
  100OSM    HNF10006   4.842   5.375  10.326  0.4442  1.7268  1.1251
  100OSM    C2S10007   4.665   5.471  10.361 -0.0118  0.7736  0.2703
  100OSM    H2S10008   4.559   5.444  10.340  0.5482 -0.1409 -1.5527
  100OSM    C3S10009   4.697   5.577  10.254 -0.0294  0.3866  0.1554
  100OSM    H3S10010   4.797   5.621  10.274  0.6061 -1.1572  0.4970
  100OSM     O310011   4.604   5.686  10.251 -0.1297  0.3769 -0.7370
  100OSM    HO310012   4.559   5.682  10.335  1.3876  3.9013  0.4343
  100OSM    C4S10013   4.703   5.515  10.116 -0.5288  1.0119 -0.4095
  100OSM    H4S10014   4.805   5.508  10.075 -0.7106 -0.7409 -0.6325
  100OSM    C5S10015   4.606   5.441  10.057 -0.4455  0.2764 -0.8803
  100OSM    H5S10016   4.514   5.405  10.105 -0.1111 -1.5248 -1.5021
  100OSM    C6S10017   4.623   5.380   9.915 -0.1303 -0.2668 -0.7953
  100OSM    H6S10018   4.586   5.276   9.918 -3.3395  0.6830 -2.3861
  100OSM    H6T10019   4.722   5.377   9.865 -1.6694 -2.0525 -4.0327
  100OSM    C7S10020   4.526   5.453   9.821 -0.4588 -0.4346 -0.2931
  100OSM    H7S10021   4.559   5.559   9.815 -3.8391  0.8178  0.8754
  100OSM    H7T10022   4.423   5.461   9.862 -0.8743 -0.0271 -1.3540
  100OSM    C8S10023   4.532   5.411   9.672 -0.5514 -0.4441  0.5295
  100OSM    H8S10024   4.493   5.307   9.668 -1.1032 -0.1976 -1.0959
  100OSM    H8T10025   4.638   5.417   9.640 -1.2228  0.7759 -1.6486
  100OSM    C9S10026   4.443   5.499   9.579 -0.3838  0.7076  0.3204
  100OSM    H9S10027   4.507   5.538   9.497 -0.0937  2.8223  1.4594
  100OSM    H9T10028   4.398   5.580   9.640  0.5846  1.8359 -0.4111
  100OSM   C10S10029   4.336   5.416   9.514  0.0516 -0.7043 -0.2113
  100OSM   H10S10030   4.246   5.473   9.482 -0.9198 -2.1634 -0.1788
  100OSM   H10T10031   4.292   5.345   9.587  1.1734 -1.0981  0.0940
  100OSM   C11S10032   4.376   5.343   9.383  0.1989  0.3967  0.4496
  100OSM   H11S10033   4.442   5.256   9.404 -0.4061 -1.3897 -3.8882
  100OSM   H11T10034   4.435   5.408   9.316 -0.2871 -0.9916 -1.4100
  100OSM   C12S10035   4.242   5.305   9.310  0.1247 -0.4035  0.1923
  100OSM   H12S10036   4.185   5.395   9.278 -3.4314 -1.5642  2.5767
  100OSM   H12T10037   4.175   5.254   9.382 -1.3226  2.2487  0.8506
  100OSM   C13S10038   4.264   5.206   9.190  0.4987 -0.0838 -0.0548
  100OSM   H13S10039   4.158   5.183   9.167  0.1509  0.6442  0.7625
  100OSM   H13T10040   4.307   5.117   9.240  1.3705 -0.5023 -1.4875
  100OSM   C14S10041   4.342   5.252   9.075  0.4836  0.8791 -0.3668
  100OSM   H14S10042   4.350   5.162   9.010 -1.3450  0.1987  0.3076
  100OSM   H14T10043   4.444   5.296   9.088  1.6078 -1.5418 -0.5090
  100OSM   C15S10044   4.278   5.357   8.979 -0.3329 -1.0532  0.0206
  100OSM   H15S10045   4.350   5.369   8.895 -1.3525 -0.8008 -0.8481
  100OSM   H15T10046   4.255   5.455   9.027 -0.0987 -1.2474  0.5298
  100OSM   C16S10047   4.148   5.318   8.916  0.0053 -0.5794  0.0182
  100OSM   H16S10048   4.058   5.322   8.981  0.5849 -2.0740  0.9576
  100OSM   H16T10049   4.154   5.219   8.867  2.7303 -0.9764  0.9777
  100OSM   C17S10050   4.123   5.415   8.793 -0.0495  0.1824 -0.5676
  100OSM   H17S10051   4.215   5.423   8.732 -1.0042  4.1947 -1.7701
  100OSM   H17T10052   4.104   5.523   8.815  0.9199  0.2166  0.1573
  100OSM   C18S10053   3.998   5.362   8.715 -0.2216 -0.3555 -0.8000
  100OSM   H18S10054   4.014   5.264   8.664 -1.8379 -0.6525 -0.8031
  100OSM   H18T10055   3.985   5.435   8.632  0.3320  0.8644  0.1736
  100OSM   H18U10056   3.907   5.360   8.778 -1.1781 -0.7430 -2.1297
  100OSM    C1F10057   4.726   5.244  10.431  0.1654  0.4267  0.1417
  100OSM     OF10058   4.616   5.226  10.478 -0.0731 -0.1142  0.1482
  100OSM    C2F10059   4.845   5.157  10.454 -0.0060  0.6882 -0.3117
  100OSM    H2F10060   4.855   5.132  10.561  0.6067  2.8300  0.1842
  100OSM    H2G10061   4.940   5.209  10.429  2.2796 -2.2300  1.7352
  100OSM    C3F10062   4.832   5.019  10.385 -0.3689  0.5700  0.0982
  100OSM    H3F10063   4.749   4.954  10.418 -0.4680 -0.0568 -1.3215
  100OSM    H3G10064   4.926   4.978  10.428 -0.5974  1.5334  1.5847
  100OSM    C4F10065   4.843   5.022  10.232  0.0061  0.0773 -0.2388
  100OSM    H4F10066   4.916   4.947  10.195 -3.0218 -2.2874 -1.8614
  100OSM    H4G10067   4.884   5.124  10.214 -2.0060  0.4254 -3.8703
  100OSM    C5F10068   4.711   4.994  10.156  0.0447  0.3136 -0.0195
  100OSM    H5F10069   4.627   5.051  10.203 -2.5112 -2.0838 -1.3556
  100OSM    H5G10070   4.684   4.890  10.184  1.4293  0.0196  0.2656
  100OSM    C6F10071   4.725   5.024  10.008  0.0288  0.1816  0.8727
  100OSM    H6F10072   4.812   4.966   9.970 -1.7181 -0.6266 -2.3188
  100OSM    H6G10073   4.744   5.131   9.986  0.2272  0.1297  0.7925
  100OSM    C7F10074   4.593   4.977   9.938 -0.5095 -0.0605  0.3598
  100OSM    H7F10075   4.509   5.030   9.988 -0.3287  0.1703  0.4195
  100OSM    H7G10076   4.569   4.871   9.960 -0.6214 -0.4053 -1.2742
  100OSM    C8F10077   4.594   5.011   9.779  0.6976 -0.4355 -0.5245
  100OSM    H8F10078   4.684   4.951   9.752  0.8189 -1.6201  2.1562
  100OSM    H8G10079   4.610   5.120   9.767  0.0841  0.0512  2.3123
  100OSM    C9F10080   4.465   4.964   9.709 -0.7706  0.4713  0.4778
  100OSM    H9F10081   4.382   4.976   9.780  0.9638  0.0601  2.6721
  100OSM   C10F10082   4.451   4.913   9.588 -0.8536 -0.4257  0.8529
  100OSM   H10F10083   4.347   4.881   9.572 -0.8126  0.3048 -1.1729
  100OSM   C11F10084   4.550   4.893   9.477 -0.2360  0.0222  0.8125
  100OSM   H11F10085   4.566   4.783   9.474  0.9035  0.1960 -0.0373
  100OSM   H11G10086   4.646   4.947   9.490 -1.3523  2.0173  1.2222
  100OSM   C12F10087   4.490   4.930   9.335  0.7748 -0.2392 -0.7342
  100OSM   H12F10088   4.484   5.040   9.328 -1.2250 -0.3804 -2.2130
  100OSM   H12G10089   4.383   4.900   9.336  0.5176  0.6119 -1.2090
  100OSM   C13F10090   4.562   4.877   9.214 -0.5771 -0.9008 -0.6680
  100OSM   H13F10091   4.559   4.766   9.223 -0.7430 -0.8936 -0.6130
  100OSM   H13G10092   4.667   4.911   9.208 -0.1055 -1.9132  1.1634
  100OSM   C14F10093   4.492   4.905   9.076  0.9459  0.1494 -0.4335
  100OSM   H14F10094   4.508   5.012   9.053 -3.2016  0.5215 -2.4363
  100OSM   H14G10095   4.382   4.898   9.084  0.7548  0.6511 -2.2116
  100OSM   C15F10096   4.553   4.808   8.968  0.1352  0.7456  0.4172
  100OSM   H15F10097   4.488   4.814   8.878  1.1034  0.4235 -0.3199
  100OSM   H15G10098   4.555   4.701   8.999  0.9724  1.3450  2.7261
  100OSM   C16F10099   4.702   4.829   8.941 -0.1094 -0.3698  0.1220
  100OSM   H16F10100   4.756   4.812   9.037 -1.8005 -1.2159  0.9662
  100OSM   H16G10101   4.714   4.934   8.905 -2.1046  0.6311  2.1583
  100OSM   C17F10102   4.773   4.732   8.844  0.0801 -0.1889 -0.4254
  100OSM   H17F10103   4.709   4.720   8.753  0.8646  2.5262 -1.4385
  100OSM   H17G10104   4.781   4.637   8.901  2.7733  0.5949  0.6287
  100OSM   C18F10105   4.916   4.774   8.803  0.4616  0.1218 -0.1864
  100OSM   H18F10106   4.913   4.857   8.730 -3.1170  0.0938 -0.2375
  100OSM   H18G10107   4.970   4.690   8.755 -3.2095 -1.2774 -2.3192
  100OSM   H18H10108   4.970   4.806   8.895 -3.8902  2.9592  1.7068
  101OSM      N10109   1.912   5.926  10.807  0.2751 -0.2950  0.5174
  101OSM    C1510110   2.037   5.868  10.860 -0.4973  0.3510 -0.3160
  101OSM   H15A10111   2.053   5.891  10.964  0.8663 -0.9093 -0.2184
  101OSM   H15B10112   2.123   5.906  10.806  0.2899 -0.6129  0.2253
  101OSM   H15C10113   2.039   5.760  10.848  1.3568  0.0948  1.7021
  101OSM    C1410114   1.795   5.879  10.870  0.6714  0.1524  0.2116
  101OSM   H14A10115   1.711   5.939  10.839  0.4119 -0.6122 -0.6149
  101OSM   H14B10116   1.796   5.880  10.978 -1.7267  0.6091  0.2823
  101OSM   H14C10117   1.788   5.776  10.839  0.9342  0.4189 -0.7534
  101OSM    C1310118   1.923   6.076  10.833  0.5612 -0.9950  0.0320
  101OSM   H13A10119   1.990   6.129  10.767 -1.7061  0.5380 -1.1695
  101OSM   H13B10120   1.940   6.102  10.936  3.6555 -1.6009 -0.2341
  101OSM   H13C10121   1.824   6.119  10.826  0.7854 -0.6515 -1.2832
  101OSM    C1210122   1.912   5.895  10.653 -0.5613 -0.3380  0.5897
  101OSM   H12A10123   2.003   5.926  10.603 -0.7603 -0.9975 -0.1977
  101OSM   H12B10124   1.831   5.948  10.606 -0.5972 -0.1628  0.8490
  101OSM    C1110125   1.890   5.753  10.614 -0.3207  0.4563  0.2219
  101OSM   H11A10126   1.900   5.742  10.504 -1.2441 -0.9950  0.2544
  101OSM   H11B10127   1.785   5.726  10.636  0.7519 -3.3752  1.5040
  101OSM      P10128   1.950   5.508  10.685  0.3125  0.1277  0.0707
  101OSM    O1310129   2.037   5.433  10.772 -0.2667 -0.5339 -0.3425
  101OSM    O1410130   1.806   5.487  10.706 -0.2989 -0.1877  0.2095
  101OSM    O1110131   1.980   5.473  10.544  0.0452 -0.1375 -0.3037
  101OSM    O1210132   1.980   5.663  10.681 -0.2732 -0.2585  0.4415
  101OSM    C1S10133   1.976   5.335  10.497  0.4501  0.1100  0.3371
  101OSM    H1S10134   1.923   5.265  10.564 -0.3870  0.6049  0.2211
  101OSM    H1T10135   2.071   5.291  10.462 -1.0625 -2.6085 -0.6075
  101OSM     NF10136   1.866   5.199  10.320  0.5191  0.1530 -0.5698
  101OSM    HNF10137   1.890   5.177  10.226  0.2190 -0.4746 -0.5057
  101OSM    C2S10138   1.886   5.335  10.365 -0.3976 -0.1360  0.2669
  101OSM    H2S10139   1.785   5.371  10.395 -0.9311 -0.9612 -0.4838
  101OSM    C3S10140   1.933   5.426  10.251 -0.2713 -0.6979 -0.4462
  101OSM    H3S10141   2.025   5.385  10.205  0.3959  2.1170 -1.8029
  101OSM     O310142   1.974   5.556  10.292 -0.4347 -0.0840  0.4464
  101OSM    HO310143   1.969   5.552  10.387  2.0317  2.2948  0.8036
  101OSM    C4S10144   1.818   5.431  10.154 -0.3529 -0.4745 -0.1406
  101OSM    H4S10145   1.730   5.489  10.186  0.1750  0.8039 -0.8991
  101OSM    C5S10146   1.815   5.365  10.036  0.4777  0.1234  0.2620
  101OSM    H5S10147   1.902   5.302  10.009 -0.3944  0.2786 -3.5696
  101OSM    C6S10148   1.707   5.368   9.931  0.1846  0.3131  0.3680
  101OSM    H6S10149   1.636   5.451   9.954  2.6028  2.8311 -0.7224
  101OSM    H6T10150   1.640   5.279   9.934 -2.4203  2.1755  2.7243
  101OSM    C7S10151   1.769   5.373   9.796 -0.1775 -0.0119  0.3812
  101OSM    H7S10152   1.841   5.289   9.786 -0.7821 -0.4659 -0.2115
  101OSM    H7T10153   1.829   5.466   9.786  0.6616 -0.6646 -1.0970
  101OSM    C8S10154   1.673   5.381   9.679  0.2532 -0.8839  0.6178
  101OSM    H8S10155   1.737   5.408   9.592 -1.3196 -1.0413 -0.6381
  101OSM    H8T10156   1.607   5.469   9.694  0.6727  0.1513 -2.7415
  101OSM    C9S10157   1.589   5.254   9.649  0.1920 -0.0949  0.4013
  101OSM    H9S10158   1.496   5.241   9.709 -1.1353  0.1532 -1.5182
  101OSM    H9T10159   1.667   5.180   9.677  1.6790  2.1399  2.7255
  101OSM   C10S10160   1.543   5.255   9.502 -0.2164  0.0903  0.5481
  101OSM   H10S10161   1.626   5.288   9.436  0.1677 -0.6724  0.6368
  101OSM   H10T10162   1.465   5.334   9.495 -2.9373 -2.3406  1.2138
  101OSM   C11S10163   1.495   5.121   9.441 -0.0574  0.2573  0.2719
  101OSM   H11S10164   1.387   5.133   9.465  0.3375  1.4575  1.6112
  101OSM   H11T10165   1.538   5.032   9.492 -2.0510 -0.8923  0.0696
  101OSM   C12S10166   1.507   5.108   9.285 -0.0106 -1.1996  0.2346
  101OSM   H12S10167   1.572   5.021   9.261  2.1251  0.6780 -1.1019
  101OSM   H12T10168   1.557   5.203   9.257 -2.1973  0.7356  2.5227
  101OSM   C13S10169   1.371   5.096   9.212 -0.2903 -1.0100 -0.2510
  101OSM   H13S10170   1.311   5.189   9.222  0.6583 -0.4096  0.0313
  101OSM   H13T10171   1.324   5.010   9.263  0.8901 -0.7903  1.2842
  101OSM   C14S10172   1.387   5.072   9.060 -0.2280 -0.2775 -0.2014
  101OSM   H14S10173   1.464   4.997   9.030 -0.6346 -0.1450 -1.6506
  101OSM   H14T10174   1.430   5.164   9.013 -1.6081  0.0869 -0.8008
  101OSM   C15S10175   1.260   5.026   8.991  0.3469 -0.4697  0.6470
  101OSM   H15S10176   1.186   5.106   9.015 -0.4057 -1.2382  0.9841
  101OSM   H15T10177   1.225   4.945   9.058 -1.3868 -0.4469 -0.1773
  101OSM   C16S10178   1.263   4.975   8.851  0.6412  0.2303 -0.6009
  101OSM   H16S10179   1.161   4.933   8.838 -0.5971  2.1346  2.0801
  101OSM   H16T10180   1.340   4.898   8.826 -0.0626 -0.5535 -0.4170
  101OSM   C17S10181   1.282   5.086   8.747  0.5125  0.0015 -0.1073
  101OSM   H17S10182   1.379   5.137   8.765  0.5013  0.7195 -1.8879
  101OSM   H17T10183   1.206   5.164   8.767 -1.4505 -1.3175 -1.9506
  101OSM   C18S10184   1.255   5.023   8.611  0.5907  0.2644 -0.1857
  101OSM   H18S10185   1.157   4.971   8.608  0.2632  0.9216 -2.1216
  101OSM   H18T10186   1.332   4.954   8.571 -1.3325 -1.6296 -0.8477
  101OSM   H18U10187   1.258   5.107   8.539 -0.4316  0.4130 -0.0734
  101OSM    C1F10188   1.790   5.111  10.391 -0.3412  0.4764  0.2415
  101OSM     OF10189   1.745   5.143  10.501  0.1845  0.7579  0.4040
  101OSM    C2F10190   1.780   4.973  10.330  0.1520  0.7215 -0.0598
  101OSM    H2F10191   1.822   4.902  10.404  0.1055  2.9310  2.2254
  101OSM    H2G10192   1.844   4.965  10.240  1.9939  0.0225  1.2505
  101OSM    C3F10193   1.634   4.940  10.289  0.7725 -0.7220 -1.4648
  101OSM    H3F10194   1.574   4.939  10.383  1.7057 -1.6497 -0.8464
  101OSM    H3G10195   1.616   4.834  10.259 -2.1350 -0.1084 -2.2255
  101OSM    C4F10196   1.567   5.035  10.181  0.5525  0.5729 -0.5839
  101OSM    H4F10197   1.607   5.138  10.189  0.5492  0.5484 -0.2483
  101OSM    H4G10198   1.456   5.029  10.187  0.6098 -3.2903 -0.5263
  101OSM    C5F10199   1.604   4.982  10.037 -0.1143  0.5572  0.6209
  101OSM    H5F10200   1.711   4.998  10.012  1.1474 -2.0277  3.6303
  101OSM    H5G10201   1.545   5.050   9.972  0.0089  2.8096  2.7464
  101OSM    C6F10202   1.576   4.833  10.004  0.0075 -0.2298 -0.5132
  101OSM    H6F10203   1.644   4.776  10.071  0.0691  0.6384  0.1963
  101OSM    H6G10204   1.475   4.798  10.033  0.5412 -0.2942  1.3973
  101OSM    C7F10205   1.586   4.805   9.849 -0.4101 -0.2807 -0.3721
  101OSM    H7F10206   1.691   4.787   9.816 -0.5767 -0.5479 -0.7659
  101OSM    H7G10207   1.558   4.891   9.786 -2.6219 -1.7032 -1.4460
  101OSM    C8F10208   1.502   4.680   9.798  0.9977  0.1134  0.1310
  101OSM    H8F10209   1.520   4.592   9.864 -0.0547 -0.7111 -0.6696
  101OSM    H8G10210   1.530   4.644   9.697  0.1950 -1.4407  0.4304
  101OSM    C9F10211   1.353   4.712   9.813 -0.3577  0.3633  0.3648
  101OSM    H9F10212   1.323   4.760   9.907 -0.8554 -0.0658  0.4347
  101OSM   C10F10213   1.257   4.668   9.722  0.6679 -0.8691  0.0586
  101OSM   H10F10214   1.155   4.709   9.727  1.9246  2.4415  1.5110
  101OSM   C11F10215   1.286   4.603   9.583  0.2932  0.2386  0.2374
  101OSM   H11F10216   1.283   4.492   9.588  0.0259  0.2832  1.3269
  101OSM   H11G10217   1.388   4.632   9.550  0.8655  0.5203  2.1807
  101OSM   C12F10218   1.182   4.662   9.484 -0.2712  0.8537  0.0955
  101OSM   H12F10219   1.171   4.771   9.502  0.3647  0.5405  2.7367
  101OSM   H12G10220   1.083   4.613   9.500  0.7726 -1.3706  0.0716
  101OSM   C13F10221   1.211   4.644   9.332  0.2196  0.5344  0.9956
  101OSM   H13F10222   1.130   4.692   9.273  0.4848  1.4775  1.3789
  101OSM   H13G10223   1.206   4.538   9.300 -1.0108  0.3006  1.9015
  101OSM   C14F10224   1.349   4.695   9.285  0.2900 -0.4600 -0.1466
  101OSM   H14F10225   1.430   4.665   9.355  1.6355  0.6504 -1.1602
  101OSM   H14G10226   1.350   4.806   9.285 -2.6945 -0.3357 -1.3884
  101OSM   C15F10227   1.392   4.651   9.149 -0.1061  0.8667  0.4016
  101OSM   H15F10228   1.346   4.708   9.066  0.6022  1.0406  0.1201
  101OSM   H15G10229   1.379   4.542   9.138  1.7113  0.7917 -1.5935
  101OSM   C16F10230   1.542   4.689   9.130 -0.4497  0.7422 -0.8138
  101OSM   H16F10231   1.600   4.633   9.206 -2.8153 -0.6172  0.1123
  101OSM   H16G10232   1.557   4.799   9.129  1.6215  0.5029 -2.2582
  101OSM   C17F10233   1.598   4.646   8.992 -0.6343 -0.0890  0.6569
  101OSM   H17F10234   1.707   4.664   9.001 -0.9992  1.7901  2.1436
  101OSM   H17G10235   1.557   4.722   8.921 -3.1415 -0.9289  1.0806
  101OSM   C18F10236   1.574   4.508   8.937 -0.0809 -0.9017 -0.2351
  101OSM   H18F10237   1.521   4.439   9.007 -1.9163  0.1280 -0.5367
  101OSM   H18G10238   1.666   4.453   8.908 -0.6139 -2.2608  0.5440
  101OSM   H18H10239   1.498   4.515   8.856  0.7437 -0.3305 -0.9812
  102OSM      N10240   4.143   6.131  10.961 -0.2972 -0.4401  0.3899
  102OSM    C1510241   4.100   6.035  11.067  0.4353 -0.8080  0.4777
  102OSM   H15A10242   4.155   6.046  11.159  0.2379 -0.9465  0.6115
  102OSM   H15B10243   4.107   5.932  11.035  0.2308 -0.8103  0.4376
  102OSM   H15C10244   3.993   6.034  11.079  0.3905 -3.2513  0.3949
  102OSM    C1410245   4.085   6.263  10.997  0.4701  0.7731 -0.5253
  102OSM   H14A10246   4.153   6.313  11.064  1.5612  0.3259 -1.2737
  102OSM   H14B10247   3.986   6.248  11.039  1.2362 -1.2863  0.7172
  102OSM   H14C10248   4.061   6.317  10.906 -0.6047 -0.6043 -1.0996
  102OSM    C1310249   4.296   6.146  10.963 -0.2484  0.6206 -0.0276
  102OSM   H13A10250   4.337   6.173  11.059  0.6882 -0.0003 -0.2355
  102OSM   H13B10251   4.314   6.233  10.902 -0.8107  0.0325 -1.0535
  102OSM   H13C10252   4.336   6.055  10.921 -2.2033 -0.2417 -0.0846
  102OSM    C1210253   4.095   6.089  10.823  0.3083  0.2389  0.2725
  102OSM   H12A10254   3.987   6.094  10.824  0.3606  1.9076  1.8605
  102OSM   H12B10255   4.111   5.985  10.799 -0.4643  0.8400 -3.4481
  102OSM    C1110256   4.142   6.160  10.696  0.5889  0.1740  0.0222
  102OSM   H11A10257   4.132   6.271  10.697  1.9897  0.3132  0.4730
  102OSM   H11B10258   4.089   6.124  10.605 -1.0683 -0.7118  1.2750
  102OSM      P10259   4.360   6.226  10.576  0.1339  0.0779  0.1967
  102OSM    O1310260   4.325   6.366  10.606  0.0141  0.0932  0.3190
  102OSM    O1410261   4.506   6.188  10.580  0.7110  0.1017  0.1112
  102OSM    O1110262   4.306   6.185  10.430 -0.2574 -0.1677  0.2264
  102OSM    O1210263   4.283   6.130  10.674 -0.8336 -0.0992  0.1465
  102OSM    C1S10264   4.309   6.045  10.396 -0.3580 -0.1298  0.9079
  102OSM    H1S10265   4.212   5.996  10.422  0.5355 -3.2052 -1.0092
  102OSM    H1T10266   4.385   5.985  10.450 -0.8166 -0.6516  0.9873
  102OSM     NF10267   4.348   5.857  10.245  0.7321  0.2295 -0.3138
  102OSM    HNF10268   4.434   5.806  10.241 -0.4779 -1.9181 -0.6678
  102OSM    C2S10269   4.351   6.005  10.249  0.2859  0.2009 -0.5636
  102OSM    H2S10270   4.271   6.038  10.179  0.1292 -0.2539 -0.5992
  102OSM    C3S10271   4.484   6.064  10.217 -0.2468  0.1798  0.5787
  102OSM    H3S10272   4.550   6.000  10.280 -0.3264  0.5916  1.0892
  102OSM     O310273   4.506   6.202  10.250 -0.5853 -0.1824  0.3109
  102OSM    HO310274   4.421   6.234  10.281 -0.1427  1.2816  0.0813
  102OSM    C4S10275   4.503   6.033  10.071 -0.5606 -1.0887  0.1308
  102OSM    H4S10276   4.415   6.047  10.007 -0.3948 -1.6843 -0.2336
  102OSM    C5S10277   4.604   5.958  10.025 -0.4775  0.2605  0.3963
  102OSM    H5S10278   4.661   5.886  10.086 -1.4965  0.6920  1.9203
  102OSM    C6S10279   4.625   5.914   9.879  0.6839  0.6919  0.1019
  102OSM    H6S10280   4.626   5.803   9.879  2.7028  0.6286  1.9603
  102OSM    H6T10281   4.725   5.954   9.853  0.2748  1.5842 -0.1280
  102OSM    C7S10282   4.516   5.956   9.769 -0.2547  0.6827 -0.2794
  102OSM    H7S10283   4.520   6.067   9.761  0.9945  0.5639 -1.8037
  102OSM    H7T10284   4.413   5.926   9.797 -0.7120  0.2044 -2.2987
  102OSM    C8S10285   4.552   5.896   9.628  0.2528  0.5218  0.2857
  102OSM    H8S10286   4.547   5.785   9.639  2.2134  0.3452 -0.1025
  102OSM    H8T10287   4.656   5.921   9.596 -0.9664  3.1081 -2.0414
  102OSM    C9S10288   4.459   5.935   9.511 -0.2157  0.0523  0.4065
  102OSM    H9S10289   4.455   6.040   9.473  0.9941  0.5909  1.7003
  102OSM    H9T10290   4.355   5.917   9.546 -1.1232  2.8673 -0.5335
  102OSM   C10S10291   4.496   5.844   9.398  0.0389 -0.0267  0.2269
  102OSM   H10S10292   4.528   5.747   9.442  1.0654  0.2437  0.1172
  102OSM   H10T10293   4.583   5.881   9.340  0.5364  0.3057  1.1668
  102OSM   C11S10294   4.380   5.817   9.309 -0.0321  0.5562  0.4435
  102OSM   H11S10295   4.379   5.916   9.258  0.0856  0.2761 -0.1126
  102OSM   H11T10296   4.280   5.802   9.354 -0.5449 -3.2924 -1.5457
  102OSM   C12S10297   4.421   5.704   9.211  0.6588  0.0970  0.3123
  102OSM   H12S10298   4.356   5.620   9.243  1.4067 -0.2755  0.8575
  102OSM   H12T10299   4.526   5.668   9.214  1.0042  0.9516 -0.7853
  102OSM   C13S10300   4.381   5.741   9.068 -0.5690 -0.0179  0.3315
  102OSM   H13S10301   4.272   5.760   9.058 -0.5992  1.0958  2.2987
  102OSM   H13T10302   4.400   5.652   9.004  0.0884  0.8353 -0.7040
  102OSM   C14S10303   4.456   5.867   9.011  0.0728 -0.1966  0.4780
  102OSM   H14S10304   4.425   5.965   9.054  1.6179  0.5852 -0.1210
  102OSM   H14T10305   4.430   5.885   8.905  2.5468  1.6950  0.1000
  102OSM   C15S10306   4.614   5.869   9.013  0.3427  0.2487  0.7259
  102OSM   H15S10307   4.660   5.805   9.091 -3.0437  0.1484  2.8564
  102OSM   H15T10308   4.639   5.975   9.033 -0.5539  1.0122 -1.8118
  102OSM   C16S10309   4.683   5.838   8.879 -0.5622 -0.0645  0.2151
  102OSM   H16S10310   4.793   5.838   8.897 -0.7770 -1.7006  1.9162
  102OSM   H16T10311   4.651   5.914   8.805  0.1324 -1.8314 -2.0457
  102OSM   C17S10312   4.642   5.707   8.817  0.1670 -0.2084  0.5264
  102OSM   H17S10313   4.531   5.702   8.811  0.1605 -0.7725  0.9807
  102OSM   H17T10314   4.667   5.612   8.869  1.0382 -1.8766 -2.6826
  102OSM   C18S10315   4.712   5.685   8.682  0.5054 -0.1924  0.6520
  102OSM   H18S10316   4.686   5.584   8.643  0.2001  0.3926 -0.7086
  102OSM   H18T10317   4.820   5.694   8.708 -0.1536  0.8105  3.3318
  102OSM   H18U10318   4.700   5.757   8.599  2.8037 -0.5173 -0.0556
  102OSM    C1F10319   4.245   5.782  10.227  0.0876  0.2925 -0.1260
  102OSM     OF10320   4.136   5.824  10.266  0.3887 -0.0474  0.6050
  102OSM    C2F10321   4.270   5.650  10.163  0.4876  0.5941  0.1081
  102OSM    H2F10322   4.281   5.581  10.249  1.2137 -0.6705 -0.9674
  102OSM    H2G10323   4.360   5.647  10.098 -1.5113 -5.8839 -3.3389
  102OSM    C3F10324   4.151   5.596  10.081  0.2169 -0.3320  0.0869
  102OSM    H3F10325   4.054   5.588  10.134 -0.9950  2.3013 -1.4825
  102OSM    H3G10326   4.179   5.490  10.066 -1.7961 -0.8846 -0.0368
  102OSM    C4F10327   4.143   5.669   9.943 -0.4315 -0.2714  0.2120
  102OSM    H4F10328   4.246   5.685   9.903  0.1110  0.8567  1.9052
  102OSM    H4G10329   4.104   5.772   9.958 -2.4142 -0.7179 -1.4882
  102OSM    C5F10330   4.058   5.587   9.845 -0.7244 -0.1375 -0.2519
  102OSM    H5F10331   3.955   5.579   9.885 -0.9317 -3.3226 -1.1611
  102OSM    H5G10332   4.110   5.490   9.829  1.5084  0.8489  0.5918
  102OSM    C6F10333   4.043   5.652   9.711  0.5236  0.0943  0.3773
  102OSM    H6F10334   4.144   5.655   9.665  1.0045  0.8142  1.4345
  102OSM    H6G10335   3.998   5.754   9.710  0.5849  0.1316  0.9317
  102OSM    C7F10336   3.944   5.573   9.613  0.3605 -0.2426  0.1348
  102OSM    H7F10337   3.850   5.552   9.667  1.2979 -3.0668  0.8685
  102OSM    H7G10338   3.969   5.472   9.572 -1.2768 -0.0279 -1.5215
  102OSM    C8F10339   3.906   5.655   9.487  0.2198 -0.1871  0.4728
  102OSM    H8F10340   3.872   5.747   9.540 -0.4976 -0.6958  0.9213
  102OSM    H8G10341   3.819   5.602   9.444  1.2133  0.1604 -2.1225
  102OSM    C9F10342   4.018   5.679   9.398 -0.0864  0.0951  0.2733
  102OSM    H9F10343   4.112   5.706   9.449  1.1916 -4.0266  0.4127
  102OSM   C10F10344   4.020   5.654   9.265 -0.5706 -0.6296  0.7572
  102OSM   H10F10345   4.116   5.657   9.211 -1.2485 -2.4006 -0.6563
  102OSM   C11F10346   3.910   5.590   9.185  0.1790  0.4034  0.2404
  102OSM   H11F10347   3.820   5.579   9.249  1.6909 -0.3129  2.3296
  102OSM   H11G10348   3.941   5.493   9.141  0.4054  0.9847 -0.9246
  102OSM   C12F10349   3.869   5.667   9.049 -0.2478 -0.2799  0.2653
  102OSM   H12F10350   3.952   5.646   8.978 -1.0233 -2.0549 -0.1772
  102OSM   H12G10351   3.878   5.772   9.084  1.5271 -0.9101  1.9155
  102OSM   C13F10352   3.737   5.622   8.991  0.0996 -0.3735 -0.3479
  102OSM   H13F10353   3.666   5.651   9.071 -0.3997  0.0867 -0.9464
  102OSM   H13G10354   3.723   5.514   8.966  1.8379 -0.3269 -1.7230
  102OSM   C14F10355   3.703   5.676   8.852 -0.1194  0.1154 -0.6941
  102OSM   H14F10356   3.773   5.635   8.777  1.3864 -0.5118  0.9836
  102OSM   H14G10357   3.693   5.787   8.847 -0.9002  0.0180 -1.9415
  102OSM   C15F10358   3.566   5.621   8.796  0.0620 -0.3954 -0.1489
  102OSM   H15F10359   3.475   5.673   8.833  0.7073  1.8734 -1.5122
  102OSM   H15G10360   3.556   5.517   8.833  0.3028 -0.3302  0.1054
  102OSM   C16F10361   3.566   5.630   8.638  0.7366 -0.0772 -0.1980
  102OSM   H16F10362   3.615   5.727   8.615 -4.2143  2.9171  0.3730
  102OSM   H16G10363   3.456   5.638   8.620  0.2360 -2.2848  1.4968
  102OSM   C17F10364   3.615   5.502   8.578 -0.2441  0.4914  0.2371
  102OSM   H17F10365   3.567   5.415   8.627  1.3417 -0.5886 -0.0379
  102OSM   H17G10366   3.723   5.480   8.595 -0.4719 -0.4725  0.4898
  102OSM   C18F10367   3.596   5.504   8.419  0.1730 -0.0278  0.3264
  102OSM   H18F10368   3.598   5.602   8.366 -3.1919  0.4022  0.7509
  102OSM   H18G10369   3.496   5.461   8.398 -0.2479  0.3078  1.5235
  102OSM   H18H10370   3.675   5.442   8.372  0.2923  1.3055 -1.2947
  103OSM      N10371   6.672   2.507  11.191 -0.0059  0.4172  0.6885
  103OSM    C1510372   6.762   2.397  11.141 -0.0453 -0.7377 -0.4747
  103OSM   H15A10373   6.840   2.447  11.085 -0.5804 -0.9726 -1.4574
  103OSM   H15B10374   6.716   2.325  11.075 -0.4974  0.2532 -1.2682
  103OSM   H15C10375   6.814   2.347  11.221 -0.4853 -0.0727  0.2435
  103OSM    C1410376   6.566   2.433  11.265 -0.2047  0.1364 -0.2352
  103OSM   H14A10377   6.496   2.377  11.204 -0.8455 -0.1832  0.7751
  103OSM   H14B10378   6.504   2.500  11.322  0.9335  0.5899  0.4990
  103OSM   H14C10379   6.616   2.368  11.335 -1.1432 -0.6485 -0.2874
  103OSM    C1310380   6.750   2.598  11.277  0.5451 -0.2551  0.3789
  103OSM   H13A10381   6.678   2.669  11.317 -1.1999 -1.4313 -0.5487
  103OSM   H13B10382   6.820   2.654  11.216 -0.3362  0.1336 -0.3086
  103OSM   H13C10383   6.803   2.544  11.354  0.4694  0.4096  0.9069
  103OSM    C1210384   6.606   2.580  11.070 -0.0037  0.3286 -0.3588
  103OSM   H12A10385   6.548   2.663  11.108 -0.7161 -0.3679  0.0842
  103OSM   H12B10386   6.534   2.515  11.022 -0.8041  1.6668 -1.0402
  103OSM    C1110387   6.701   2.631  10.952  0.8393 -0.7355  0.6257
  103OSM   H11A10388   6.634   2.664  10.870 -0.1669 -0.0175  1.7035
  103OSM   H11B10389   6.751   2.539  10.914  0.6007 -1.0362  1.0320
  103OSM      P10390   6.943   2.730  10.974 -0.2590  0.1109  0.3337
  103OSM    O1310391   7.007   2.851  11.015  0.5320 -0.2271  0.1131
  103OSM    O1410392   7.003   2.609  11.030  0.2686  0.0144  0.0954
  103OSM    O1110393   6.943   2.719  10.812  0.5648 -0.2485 -0.3873
  103OSM    O1210394   6.786   2.731  11.004 -0.0985 -0.3625 -0.3531
  103OSM    C1S10395   6.897   2.836  10.736  0.3908 -0.1067  1.2125
  103OSM    H1S10396   6.964   2.923  10.753  1.4832 -0.7743  0.5092
  103OSM    H1T10397   6.790   2.855  10.757 -0.3196 -0.3616 -1.7338
  103OSM     NF10398   6.867   2.925  10.499  0.0153 -0.7606 -0.5532
  103OSM    HNF10399   6.782   2.933  10.447 -0.3470  1.7861  0.3460
  103OSM    C2S10400   6.897   2.809  10.580  0.3535 -0.2532  0.4313
  103OSM    H2S10401   7.001   2.774  10.560  0.0585 -0.9525  0.1042
  103OSM    C3S10402   6.804   2.685  10.555  0.6832 -0.2072  0.2041
  103OSM    H3S10403   6.707   2.703  10.606  1.2139 -0.2627  1.2625
  103OSM     O310404   6.849   2.562  10.614 -0.1806 -0.4888  0.1647
  103OSM    HO310405   6.890   2.603  10.690 -0.7208  0.9607 -0.2952
  103OSM    C4S10406   6.794   2.653  10.405 -0.3972  0.4200  0.2163
  103OSM    H4S10407   6.689   2.662  10.372  0.0734 -2.3545 -2.5082
  103OSM    C5S10408   6.887   2.615  10.316  0.6610  0.2053 -0.5929
  103OSM    H5S10409   6.987   2.592  10.356 -0.7989 -5.0455  0.8292
  103OSM    C6S10410   6.868   2.592  10.168  0.1951  0.7911 -0.7223
  103OSM    H6S10411   6.827   2.489  10.164 -1.3854  1.3734 -0.4538
  103OSM    H6T10412   6.962   2.578  10.111 -0.5392  1.4969 -2.1688
  103OSM    C7S10413   6.770   2.690  10.091  0.1751  0.4706  0.3743
  103OSM    H7S10414   6.809   2.794  10.096 -0.4848  0.9952 -2.9773
  103OSM    H7T10415   6.671   2.692  10.140 -0.1897  1.9422 -0.3725
  103OSM    C8S10416   6.759   2.640   9.948  0.2902 -0.8266 -0.1686
  103OSM    H8S10417   6.712   2.539   9.942  0.3862 -0.7824 -2.0742
  103OSM    H8T10418   6.861   2.626   9.905  0.2951  1.1514 -0.8869
  103OSM    C9S10419   6.680   2.744   9.869  0.0630  0.0070  0.1731
  103OSM    H9S10420   6.723   2.847   9.871 -1.0670  0.4932  0.1776
  103OSM    H9T10421   6.595   2.759   9.938  1.2116 -1.5216  2.0240
  103OSM   C10S10422   6.618   2.702   9.732 -0.5127  0.2368  0.0566
  103OSM   H10S10423   6.545   2.782   9.709  0.3914  0.9305 -0.4815
  103OSM   H10T10424   6.552   2.619   9.767 -1.4267  0.6914 -0.5446
  103OSM   C11S10425   6.721   2.679   9.624  0.0393  0.4422  0.3031
  103OSM   H11S10426   6.775   2.583   9.638  2.6548  1.7694 -0.1108
  103OSM   H11T10427   6.794   2.763   9.629  0.3492  0.2683 -1.0202
  103OSM   C12S10428   6.650   2.685   9.487 -0.0982 -0.7565  0.0668
  103OSM   H12S10429   6.614   2.789   9.471  0.8804 -0.7613 -2.8557
  103OSM   H12T10430   6.557   2.624   9.490 -1.3172  1.0679  2.7368
  103OSM   C13S10431   6.749   2.659   9.371 -0.2868  0.1710 -0.6684
  103OSM   H13S10432   6.797   2.559   9.378  0.8958  0.7415 -0.4025
  103OSM   H13T10433   6.821   2.743   9.380 -0.6904  0.5341 -0.8187
  103OSM   C14S10434   6.691   2.657   9.231 -0.7581  0.6218 -0.0285
  103OSM   H14S10435   6.670   2.763   9.207  0.7008  0.3836 -2.8228
  103OSM   H14T10436   6.595   2.603   9.220 -0.6387  0.0899  1.3239
  103OSM   C15S10437   6.778   2.591   9.122 -0.2800 -0.1327  0.0504
  103OSM   H15S10438   6.769   2.482   9.140  0.8797 -0.4199 -0.9539
  103OSM   H15T10439   6.884   2.623   9.121 -0.6018  1.3279  2.8306
  103OSM   C16S10440   6.720   2.628   8.984 -0.2100 -0.4769  0.5916
  103OSM   H16S10441   6.751   2.733   8.964 -1.1681 -0.3412 -0.2498
  103OSM   H16T10442   6.610   2.644   8.989 -0.4132 -0.3662 -2.2945
  103OSM   C17S10443   6.749   2.542   8.858 -0.0052  0.2125 -0.0444
  103OSM   H17S10444   6.845   2.577   8.815 -0.4892  1.8163  0.1055
  103OSM   H17T10445   6.677   2.575   8.780 -0.8656  0.4620  0.8400
  103OSM   C18S10446   6.728   2.398   8.886  0.6909 -0.5567  0.3456
  103OSM   H18S10447   6.622   2.366   8.878  0.6195 -0.1377 -0.5451
  103OSM   H18T10448   6.773   2.375   8.985 -0.2379  2.4175  1.5460
  103OSM   H18U10449   6.768   2.336   8.802  1.1445  1.9293 -1.3798
  103OSM    C1F10450   6.953   3.029  10.495  0.1597  0.0357  0.2383
  103OSM     OF10451   7.073   3.017  10.518 -0.5605  0.3399 -0.0733
  103OSM    C2F10452   6.901   3.151  10.446 -0.1538 -0.4107  0.0292
  103OSM    H2F10453   6.918   3.231  10.521  0.7356 -1.8444  1.4203
  103OSM    H2G10454   6.793   3.138  10.423  0.1121 -3.2138  0.0404
  103OSM    C3F10455   6.962   3.198  10.304 -0.1590 -0.1092 -0.1772
  103OSM    H3F10456   7.067   3.218  10.333 -0.9104  0.9822  1.9862
  103OSM    H3G10457   6.919   3.297  10.278  1.7366  0.6190 -0.6976
  103OSM    C4F10458   6.930   3.102  10.189  0.2173 -0.2941  0.3097
  103OSM    H4F10459   6.820   3.087  10.178  0.0534  0.0123  1.3845
  103OSM    H4G10460   6.963   2.998  10.206  2.3777  0.2912 -0.0222
  103OSM    C5F10461   6.979   3.145  10.054  0.5545  0.3045  0.7765
  103OSM    H5F10462   7.090   3.147  10.057  0.6025 -1.4007  0.9475
  103OSM    H5G10463   6.937   3.246  10.034 -0.7437 -0.2637  0.5120
  103OSM    C6F10464   6.927   3.044   9.946  0.2158 -0.0277  0.1282
  103OSM    H6F10465   6.816   3.049   9.943  0.1344  0.6326  2.2192
  103OSM    H6G10466   6.959   2.945   9.985 -1.6319 -0.9389 -0.5224
  103OSM    C7F10467   6.980   3.085   9.808  0.0346 -0.4937 -0.0794
  103OSM    H7F10468   7.090   3.096   9.819  0.0269 -1.4832  1.2382
  103OSM    H7G10469   6.940   3.182   9.771  3.2275  0.1401 -2.2958
  103OSM    C8F10470   6.954   2.982   9.701  0.2198  0.0351  0.2874
  103OSM    H8F10471   6.844   2.989   9.692 -0.0146 -2.5979  0.4633
  103OSM    H8G10472   6.979   2.876   9.719  1.6375  0.0906 -1.1713
  103OSM    C9F10473   7.030   3.032   9.571  0.0949  0.0727  0.2167
  103OSM    H9F10474   7.140   3.038   9.581 -0.0513  2.6729  1.0046
  103OSM   C10F10475   6.972   3.080   9.461 -0.0451  0.4919 -0.4759
  103OSM   H10F10476   7.029   3.113   9.373 -1.1510 -0.8674 -1.7686
  103OSM   C11F10477   6.828   3.089   9.444 -0.2880  0.3852  0.2549
  103OSM   H11F10478   6.798   3.194   9.462  0.4232  1.1506 -2.5183
  103OSM   H11G10479   6.765   3.025   9.509  0.2628 -0.3173  0.1040
  103OSM   C12F10480   6.787   3.056   9.301  0.0946 -0.2257 -0.2918
  103OSM   H12F10481   6.679   3.031   9.290 -0.1327  1.1199 -1.3544
  103OSM   H12G10482   6.843   2.965   9.270  1.7816  0.0521  1.7287
  103OSM   C13F10483   6.800   3.168   9.202 -0.1053  0.5587  0.0968
  103OSM   H13F10484   6.898   3.221   9.203  0.3375 -0.2235 -0.2488
  103OSM   H13G10485   6.728   3.249   9.225 -0.3871  0.0556  1.0134
  103OSM   C14F10486   6.788   3.119   9.056  0.4289 -0.1854 -0.2451
  103OSM   H14F10487   6.796   3.208   8.989 -1.9918  1.0284  0.9797
  103OSM   H14G10488   6.689   3.074   9.035 -0.7092  1.0015  2.2769
  103OSM   C15F10489   6.910   3.025   9.019  0.1128  0.3205  0.3384
  103OSM   H15F10490   6.882   2.977   8.923 -1.7959 -1.6221  1.7741
  103OSM   H15G10491   6.915   2.936   9.085  0.0336  1.9156  2.6432
  103OSM   C16F10492   7.053   3.085   8.993  0.2875 -0.4378 -0.0357
  103OSM   H16F10493   7.081   3.137   9.087  0.2452  1.0561 -0.8260
  103OSM   H16G10494   7.039   3.165   8.918 -0.4959  0.0014  0.5604
  103OSM   C17F10495   7.165   2.984   8.963 -0.3998 -0.4084 -0.4016
  103OSM   H17F10496   7.159   2.887   9.018  1.8060 -0.2323  0.2231
  103OSM   H17G10497   7.253   3.032   9.011 -1.0695 -0.5199  1.0011
  103OSM   C18F10498   7.197   2.970   8.818 -0.6834 -0.0094  0.5308
  103OSM   H18F10499   7.110   2.937   8.757  0.3127 -1.9006  0.0675
  103OSM   H18G10500   7.285   2.905   8.803  0.4781  2.0167 -2.3304
  103OSM   H18H10501   7.226   3.068   8.774 -0.2418  0.7308  2.3938
  104OSM      N10502   2.406   4.042  11.045  0.5136 -0.0816 -0.2744
  104OSM    C1510503   2.497   3.942  10.988 -0.2813 -0.0062  0.2699
  104OSM   H15A10504   2.576   3.930  11.060 -0.7792  0.9660  1.0193
  104OSM   H15B10505   2.532   3.982  10.894 -1.9938  0.3886 -0.2431
  104OSM   H15C10506   2.448   3.848  10.969 -2.0863  0.6579  1.3693
  104OSM    C1410507   2.339   3.978  11.167  0.0257  0.3175  0.0272
  104OSM   H14A10508   2.273   4.048  11.216  0.7247  1.2805 -0.3728
  104OSM   H14B10509   2.415   3.946  11.236 -1.5084  2.6409  3.0071
  104OSM   H14C10510   2.283   3.892  11.133 -0.7400  1.4715 -1.8240
  104OSM    C1310511   2.486   4.157  11.093  0.3124 -0.5156 -0.5398
  104OSM   H13A10512   2.573   4.130  11.151 -0.6314 -1.5286  0.4447
  104OSM   H13B10513   2.435   4.219  11.165  1.0403 -0.7558  0.1947
  104OSM   H13C10514   2.505   4.215  11.004 -1.9103  0.2540 -0.5849
  104OSM    C1210515   2.303   4.085  10.951  0.2362  0.3660 -0.4266
  104OSM   H12A10516   2.228   4.141  11.005 -1.2446 -0.6455 -1.3487
  104OSM   H12B10517   2.241   4.001  10.925 -0.5137  1.4302 -2.3555
  104OSM    C1110518   2.361   4.154  10.821  0.8556 -0.1853  0.5390
  104OSM   H11A10519   2.274   4.172  10.754 -0.5267  0.2180  2.3451
  104OSM   H11B10520   2.432   4.090  10.765  0.8996  0.6256 -0.3628
  104OSM      P10521   2.334   4.411  10.859 -0.2844 -0.3595 -0.2878
  104OSM    O1310522   2.227   4.402  10.954  0.3256  0.0683 -0.1865
  104OSM    O1410523   2.428   4.527  10.887 -0.1289  0.6183  0.5589
  104OSM    O1110524   2.278   4.420  10.723 -0.3618 -0.1751  0.7341
  104OSM    O1210525   2.419   4.279  10.850  0.6440  0.8818  0.2709
  104OSM    C1S10526   2.346   4.397  10.595 -0.3915  0.4159 -0.3202
  104OSM    H1S10527   2.374   4.290  10.588  0.7374  0.7527 -1.2456
  104OSM    H1T10528   2.440   4.453  10.576  0.4529 -0.4261  1.1822
  104OSM     NF10529   2.296   4.333  10.368  0.1053  0.2732 -0.5807
  104OSM    HNF10530   2.342   4.376  10.290  2.3100 -1.7454 -0.4910
  104OSM    C2S10531   2.252   4.418  10.479  0.3596  0.3411 -0.5038
  104OSM    H2S10532   2.153   4.374  10.501 -0.5991  2.4927 -0.2428
  104OSM    C3S10533   2.247   4.568  10.446 -0.3515  0.4714  0.7892
  104OSM    H3S10534   2.354   4.588  10.423 -0.7054  0.6603 -0.8293
  104OSM     O310535   2.223   4.645  10.564  0.1272 -0.1480  0.3715
  104OSM    HO310536   2.221   4.581  10.635 -3.3619  0.1295  0.6956
  104OSM    C4S10537   2.159   4.591  10.332  0.4788 -0.1602 -0.3700
  104OSM    H4S10538   2.198   4.565  10.233  0.6843 -0.2739 -0.2621
  104OSM    C5S10539   2.029   4.637  10.343  0.5148 -0.4865  0.4539
  104OSM    H5S10540   1.982   4.652  10.441 -2.5622 -0.3359 -0.9329
  104OSM    C6S10541   1.937   4.665  10.229 -0.0358  0.1073 -0.0131
  104OSM    H6S10542   1.960   4.772  10.208  1.0212 -0.6144 -2.9892
  104OSM    H6T10543   1.829   4.647  10.245 -0.2083 -0.3272 -1.5425
  104OSM    C7S10544   1.974   4.583  10.105  0.0969 -0.3547 -0.3047
  104OSM    H7S10545   1.988   4.474  10.124  2.0247 -0.3535 -1.3909
  104OSM    H7T10546   2.074   4.616  10.069 -0.0490  2.0946  1.3429
  104OSM    C8S10547   1.883   4.611   9.982 -0.0231  0.3550  0.1179
  104OSM    H8S10548   1.919   4.714   9.960  1.1674  0.2397  1.4033
  104OSM    H8T10549   1.774   4.596   9.994  0.2616 -2.1136  0.0280
  104OSM    C9S10550   1.925   4.526   9.863 -0.5534  0.3850 -0.1062
  104OSM    H9S10551   1.896   4.420   9.878 -0.2592  0.0930 -1.4919
  104OSM    H9T10552   2.036   4.531   9.865 -0.5047 -0.5690  1.1485
  104OSM   C10S10553   1.868   4.569   9.726  0.3216 -0.0596 -0.6237
  104OSM   H10S10554   1.908   4.670   9.704  0.8099 -0.2973 -0.8404
  104OSM   H10T10555   1.759   4.561   9.707  0.0776  0.3706  0.5112
  104OSM   C11S10556   1.922   4.473   9.609 -0.7721 -0.6896 -0.0176
  104OSM   H11S10557   1.865   4.378   9.614 -0.5544 -0.7808  0.8407
  104OSM   H11T10558   2.027   4.456   9.641 -0.8690 -1.5789 -0.1540
  104OSM   C12S10559   1.921   4.542   9.472  0.4601 -0.6027 -0.5906
  104OSM   H12S10560   1.976   4.637   9.487  0.2709 -0.6425  0.4335
  104OSM   H12T10561   1.820   4.563   9.431 -0.1828 -1.7345  0.3375
  104OSM   C13S10562   1.991   4.457   9.366  0.4760 -0.0455 -0.0899
  104OSM   H13S10563   2.096   4.450   9.401  0.0256  2.1597  1.9448
  104OSM   H13T10564   1.980   4.502   9.265 -1.8092 -0.6896 -0.1782
  104OSM   C14S10565   1.933   4.317   9.354 -0.0661 -0.6150  0.2360
  104OSM   H14S10566   1.936   4.273   9.456 -0.2943  5.4368  3.2445
  104OSM   H14T10567   1.983   4.244   9.287  0.6971 -1.0313  1.2313
  104OSM   C15S10568   1.786   4.323   9.298  0.6455 -0.8190 -0.3356
  104OSM   H15S10569   1.794   4.331   9.187 -1.5951  0.1276 -0.4680
  104OSM   H15T10570   1.729   4.405   9.346 -0.9173 -3.6210  3.0159
  104OSM   C16S10571   1.693   4.205   9.339 -0.0629 -0.0070  0.0868
  104OSM   H16S10572   1.694   4.198   9.449 -0.5087  3.3539  0.4211
  104OSM   H16T10573   1.743   4.118   9.290  0.1380  0.9828 -1.5537
  104OSM   C17S10574   1.553   4.213   9.287  0.3687 -0.2656 -0.0523
  104OSM   H17S10575   1.516   4.112   9.312  2.1680 -0.0663  4.3291
  104OSM   H17T10576   1.561   4.213   9.176  0.9584  0.9267 -0.0258
  104OSM   C18S10577   1.459   4.325   9.332  0.5390  0.4503  0.4393
  104OSM   H18S10578   1.494   4.427   9.304 -0.1472  0.5434 -0.1018
  104OSM   H18T10579   1.456   4.329   9.443 -0.9514  2.7638  0.3933
  104OSM   H18U10580   1.361   4.306   9.283  1.2468  0.4110 -1.0173
  104OSM    C1F10581   2.281   4.196  10.352 -0.5810 -0.7436 -0.5124
  104OSM     OF10582   2.231   4.125  10.437 -0.6444 -0.7360 -0.3377
  104OSM    C2F10583   2.345   4.141  10.226  0.2966  0.2089 -0.3219
  104OSM    H2F10584   2.372   4.035  10.244 -0.8333  0.3442  2.9842
  104OSM    H2G10585   2.436   4.199  10.203 -0.0763  0.7363 -0.4981
  104OSM    C3F10586   2.236   4.153  10.114  0.0704  0.5989  0.2369
  104OSM    H3F10587   2.218   4.260  10.088  0.2780  0.6118  0.1498
  104OSM    H3G10588   2.136   4.117  10.146 -0.9348  1.9730 -1.1869
  104OSM    C4F10589   2.274   4.089   9.976  0.1039 -0.2267 -0.8310
  104OSM    H4F10590   2.294   3.983  10.005 -0.1183  0.5772  2.7214
  104OSM    H4G10591   2.372   4.126   9.940  0.0317  1.2226  0.3565
  104OSM    C5F10592   2.164   4.101   9.866  0.2420 -0.7063 -0.0646
  104OSM    H5F10593   2.132   4.207   9.853 -0.0190 -0.8095 -0.2739
  104OSM    H5G10594   2.077   4.048   9.911 -0.7874  0.7280 -0.2790
  104OSM    C6F10595   2.197   4.038   9.736  0.2254 -0.3929 -0.4843
  104OSM    H6F10596   2.231   3.933   9.750  1.2460 -0.0366 -0.2463
  104OSM    H6G10597   2.287   4.087   9.693 -0.0175  1.3026  0.8317
  104OSM    C7F10598   2.082   4.018   9.636  0.1035  0.3792 -0.3068
  104OSM    H7F10599   2.049   4.122   9.616 -0.9501  0.1572  0.2313
  104OSM    H7G10600   2.002   3.952   9.677 -0.3058 -1.3594 -3.5348
  104OSM    C8F10601   2.118   3.956   9.496  0.0829  0.1162  0.9268
  104OSM    H8F10602   2.166   3.858   9.521 -0.7208 -0.2308  1.1454
  104OSM    H8G10603   2.200   4.009   9.443  0.1963 -0.0831  0.8993
  104OSM    C9F10604   1.996   3.944   9.409 -0.0749  0.1322 -1.0712
  104OSM    H9F10605   1.902   3.977   9.458 -0.3235 -2.0020  0.0011
  104OSM   C10F10606   2.000   3.902   9.284  0.5920  0.3944  0.1808
  104OSM   H10F10607   1.906   3.889   9.229  1.2241 -0.4327 -0.7475
  104OSM   C11F10608   2.119   3.858   9.206  0.0455  0.0886 -0.6846
  104OSM   H11F10609   2.124   3.747   9.205  1.0291  0.0851  0.6550
  104OSM   H11G10610   2.209   3.889   9.264  0.5938 -0.7811 -1.0500
  104OSM   C12F10611   2.136   3.923   9.066  0.1269  0.4501 -0.0242
  104OSM   H12F10612   2.069   3.849   9.017 -4.6954  0.9797  4.7655
  104OSM   H12G10613   2.241   3.916   9.031 -0.0088  0.1668 -0.3818
  104OSM   C13F10614   2.067   4.064   9.051 -0.1218  0.1436  0.7887
  104OSM   H13F10615   2.119   4.133   9.121 -0.8555  0.8836  0.6171
  104OSM   H13G10616   1.960   4.057   9.082 -0.3306 -0.6983 -0.0792
  104OSM   C14F10617   2.090   4.136   8.916  0.3528  0.2075  0.0393
  104OSM   H14F10618   2.070   4.074   8.826  0.7011 -0.6601  0.5448
  104OSM   H14G10619   2.200   4.147   8.901  1.1385 -3.6064  1.6690
  104OSM   C15F10620   2.018   4.269   8.897  0.6591 -0.5916 -0.0649
  104OSM   H15F10621   2.027   4.318   8.997 -2.2797  0.8404 -0.3948
  104OSM   H15G10622   1.909   4.255   8.877  0.5388 -0.8430  0.7116
  104OSM   C16F10623   2.094   4.348   8.791 -1.0286 -0.3145 -0.7679
  104OSM   H16F10624   2.044   4.320   8.695  0.4584 -1.2989 -1.2784
  104OSM   H16G10625   2.200   4.318   8.791 -0.8819  0.1831 -1.3293
  104OSM   C17F10626   2.078   4.503   8.804 -0.7993  0.1620  0.5321
  104OSM   H17F10627   2.144   4.549   8.727 -0.8820  0.1496  0.4528
  104OSM   H17G10628   2.115   4.543   8.901  0.8035 -0.5631  0.2524
  104OSM   C18F10629   1.936   4.551   8.790  0.1416  0.3233  0.2799
  104OSM   H18F10630   1.924   4.662   8.786 -0.2321  0.2577 -0.9064
  104OSM   H18G10631   1.863   4.509   8.863 -0.7070 -1.9178 -1.7192
  104OSM   H18H10632   1.908   4.519   8.688  0.7673  1.4245 -0.2608
  105OSM      N10633   5.748   5.776  11.247 -0.6893  1.0389  0.4025
  105OSM    C1510634   5.835   5.648  11.263 -0.2577 -0.1250  0.7087
  105OSM   H15A10635   5.796   5.575  11.193 -1.9719  0.5868  0.8675
  105OSM   H15B10636   5.828   5.612  11.365  1.6091  1.3286  1.4013
  105OSM   H15C10637   5.937   5.670  11.237 -0.2983 -0.1614  0.5170
  105OSM    C1410638   5.606   5.738  11.262  1.0238  0.0590 -0.6743
  105OSM   H14A10639   5.591   5.645  11.210  5.1251 -0.8638 -0.5964
  105OSM   H14B10640   5.543   5.810  11.212 -0.8441 -0.3761  0.9177
  105OSM   H14C10641   5.575   5.736  11.366  0.8191 -1.8093 -0.7323
  105OSM    C1310642   5.776   5.868  11.361  0.4036  0.2058  0.2856
  105OSM   H13A10643   5.883   5.875  11.378  1.0343 -1.1876 -2.5572
  105OSM   H13B10644   5.736   5.823  11.451  0.3000 -0.1801  0.0470
  105OSM   H13C10645   5.732   5.965  11.345  1.8868  1.0800  1.2484
  105OSM    C1210646   5.779   5.845  11.114  0.0754 -0.3411  0.3814
  105OSM   H12A10647   5.887   5.851  11.114  0.1150 -0.8890 -0.3534
  105OSM   H12B10648   5.736   5.944  11.117 -0.0229 -0.3421 -0.5925
  105OSM    C1110649   5.735   5.777  10.988  0.4476 -0.5228  0.5553
  105OSM   H11A10650   5.737   5.850  10.904 -1.3485 -1.3767 -0.2825
  105OSM   H11B10651   5.625   5.762  10.994  0.3391  0.1773  0.3457
  105OSM      P10652   5.740   5.513  10.940  0.2033  0.5442 -0.1807
  105OSM    O1310653   5.831   5.412  10.999  0.3378  0.0760  0.5506
  105OSM    O1410654   5.602   5.510  10.998  0.1253 -0.5619  0.4096
  105OSM    O1110655   5.722   5.490  10.783 -0.6845 -0.1913 -0.2059
  105OSM    O1210656   5.806   5.658  10.957  0.3535  0.6709  0.5803
  105OSM    C1S10657   5.749   5.597  10.697  0.2500  0.0467  1.3401
  105OSM    H1S10658   5.849   5.645  10.703 -0.4219  2.0619 -1.5110
  105OSM    H1T10659   5.677   5.681  10.708 -1.4981 -1.3111  0.7840
  105OSM     NF10660   5.790   5.645  10.455 -0.2605 -0.8078  0.1072
  105OSM    HNF10661   5.744   5.731  10.433  1.4096 -0.1227 -0.8733
  105OSM    C2S10662   5.734   5.549  10.546 -0.3928  0.1276 -0.1369
  105OSM    H2S10663   5.792   5.456  10.531  0.2290  0.3182  0.9536
  105OSM    C3S10664   5.581   5.514  10.526  0.4439  0.3350  0.2398
  105OSM    H3S10665   5.519   5.605  10.533 -1.0406 -0.7209  1.4602
  105OSM     O310666   5.532   5.411  10.617  0.3292  0.3623 -0.1499
  105OSM    HO310667   5.607   5.402  10.676  0.6335 -0.3488 -0.6294
  105OSM    C4S10668   5.555   5.466  10.386 -1.0032 -0.1548 -1.0038
  105OSM    H4S10669   5.474   5.515  10.330 -1.3757  1.4757  0.8655
  105OSM    C5S10670   5.606   5.351  10.343  0.3002  0.0042 -0.5634
  105OSM    H5S10671   5.668   5.288  10.409 -0.0177 -1.6537 -1.7977
  105OSM    C6S10672   5.585   5.291  10.208 -0.1337  0.0153  0.3771
  105OSM    H6S10673   5.490   5.324  10.161  0.3416  0.4138 -0.3054
  105OSM    H6T10674   5.568   5.181  10.216 -2.1421  0.3701  1.7209
  105OSM    C7S10675   5.708   5.307  10.106  0.1745 -0.4664  0.3956
  105OSM    H7S10676   5.810   5.277  10.136  1.1111 -0.5296 -2.6195
  105OSM    H7T10677   5.711   5.416  10.086 -1.2328 -0.5596 -0.4555
  105OSM    C8S10678   5.682   5.239   9.974  0.2386 -0.0934  0.0011
  105OSM    H8S10679   5.586   5.287   9.946  1.1866  1.0138 -1.4848
  105OSM    H8T10680   5.670   5.132  10.003  1.1766  0.8649  4.9545
  105OSM    C9S10681   5.781   5.279   9.866 -0.2546 -0.3631  0.0171
  105OSM    H9S10682   5.879   5.249   9.909  0.5884  1.0668 -0.8180
  105OSM    H9T10683   5.780   5.381   9.824  1.1074 -0.0213  0.7481
  105OSM   C10S10684   5.758   5.185   9.749  0.0956 -0.2454  0.5638
  105OSM   H10S10685   5.759   5.076   9.772 -0.9301 -0.5305 -0.6170
  105OSM   H10T10686   5.853   5.197   9.692 -0.2124 -0.5353 -0.0288
  105OSM   C11S10687   5.644   5.223   9.662  0.4486 -0.8215 -0.0360
  105OSM   H11S10688   5.633   5.332   9.642  1.8598 -0.4772  0.9630
  105OSM   H11T10689   5.549   5.182   9.702 -2.2900  3.7000 -1.0719
  105OSM   C12S10690   5.661   5.139   9.530  0.3189 -0.3655  0.1445
  105OSM   H12S10691   5.689   5.033   9.548 -2.6807 -1.6989 -2.1495
  105OSM   H12T10692   5.739   5.192   9.471 -1.8427  4.1754  0.9014
  105OSM   C13S10693   5.526   5.157   9.457  0.1871  0.6159  0.5632
  105OSM   H13S10694   5.494   5.262   9.442  2.5968  1.1572 -1.4434
  105OSM   H13T10695   5.445   5.102   9.510 -0.4303  0.1901 -0.7680
  105OSM   C14S10696   5.539   5.092   9.321  0.1180 -0.3016  0.0187
  105OSM   H14S10697   5.433   5.080   9.290  0.3518  1.3226 -1.5463
  105OSM   H14T10698   5.580   4.989   9.319  2.3533  0.4959  1.2558
  105OSM   C15S10699   5.629   5.171   9.223 -0.1730 -0.9218 -0.9129
  105OSM   H15S10700   5.732   5.179   9.264 -0.3694 -1.2143 -0.3515
  105OSM   H15T10701   5.587   5.272   9.206 -1.8613 -1.6665 -1.3856
  105OSM   C16S10702   5.618   5.108   9.083 -0.0348 -0.2512 -0.6519
  105OSM   H16S10703   5.516   5.110   9.040  0.2552  0.3211 -1.3235
  105OSM   H16T10704   5.647   5.001   9.077 -1.7778 -0.7200 -1.5955
  105OSM   C17S10705   5.721   5.179   9.001  0.3704 -0.0494  0.0928
  105OSM   H17S10706   5.742   5.110   8.916 -0.9601 -1.9405  1.2292
  105OSM   H17T10707   5.815   5.206   9.055  0.6137 -0.2156 -0.2398
  105OSM   C18S10708   5.669   5.310   8.939 -0.0060  0.1676 -0.4434
  105OSM   H18S10709   5.742   5.359   8.871 -0.7264  0.9249 -0.6775
  105OSM   H18T10710   5.631   5.377   9.019  0.6912  0.9170 -0.7234
  105OSM   H18U10711   5.575   5.277   8.891  0.3696 -0.1310 -0.9935
  105OSM    C1F10712   5.923   5.646  10.434  0.5945 -0.9569  0.3180
  105OSM     OF10713   6.002   5.571  10.485 -0.5657  0.2100  0.0676
  105OSM    C2F10714   5.968   5.758  10.333 -0.1160 -1.0600 -0.2080
  105OSM    H2F10715   6.019   5.833  10.397  0.2384 -1.3827 -0.1067
  105OSM    H2G10716   5.882   5.815  10.291 -2.3817 -3.7782  0.3895
  105OSM    C3F10717   6.058   5.704  10.223 -0.1560  0.5342  0.1614
  105OSM    H3F10718   6.130   5.632  10.266  0.8202  1.2608 -0.2325
  105OSM    H3G10719   6.108   5.784  10.165  1.8918  0.3321  1.5861
  105OSM    C4F10720   5.994   5.614  10.121  0.0080 -0.0765  0.5534
  105OSM    H4F10721   5.907   5.554  10.156 -1.9858  2.9132  1.0756
  105OSM    H4G10722   6.070   5.541  10.086  0.8651  1.5151 -1.1039
  105OSM    C5F10723   5.948   5.699  10.011  0.3425 -0.0153 -0.2040
  105OSM    H5F10724   6.028   5.766   9.972 -0.6533  1.1490 -0.3070
  105OSM    H5G10725   5.871   5.775  10.036 -0.7576 -1.1464 -0.0236
  105OSM    C6F10726   5.902   5.620   9.888  0.5133 -0.6520  0.1031
  105OSM    H6F10727   5.809   5.565   9.914 -0.6273 -0.7947 -3.7198
  105OSM    H6G10728   5.982   5.548   9.859  0.2894 -0.2296 -1.6931
  105OSM    C7F10729   5.879   5.705   9.759  0.3682  0.1334 -0.1047
  105OSM    H7F10730   5.948   5.791   9.765 -0.4928  0.7974  0.5937
  105OSM    H7G10731   5.781   5.755   9.772  0.2791 -0.3117  1.1553
  105OSM    C8F10732   5.883   5.619   9.635 -0.4396 -0.1445 -0.3088
  105OSM    H8F10733   5.787   5.563   9.640 -1.1741  0.9702 -1.3476
  105OSM    H8G10734   5.974   5.555   9.635  1.4696  2.4174 -1.5189
  105OSM    C9F10735   5.890   5.712   9.515  0.4087  0.2159 -0.6778
  105OSM    H9F10736   5.989   5.757   9.499 -0.0054  1.1929 -0.5868
  105OSM   C10F10737   5.795   5.766   9.441 -0.6684  0.1084 -0.0995
  105OSM   H10F10738   5.821   5.833   9.359  1.2745  0.7257  0.9522
  105OSM   C11F10739   5.646   5.726   9.457  0.2784 -0.0114  0.1123
  105OSM   H11F10740   5.585   5.812   9.493  1.0712  0.0380  1.3969
  105OSM   H11G10741   5.636   5.640   9.526  0.0459 -0.2013 -0.1533
  105OSM   C12F10742   5.579   5.660   9.330 -0.0166 -0.6597  0.5176
  105OSM   H12F10743   5.649   5.598   9.271  0.1507  1.2424 -1.4191
  105OSM   H12G10744   5.558   5.743   9.259 -0.6614 -1.6144 -0.4387
  105OSM   C13F10745   5.453   5.586   9.366 -0.0207  0.9625 -0.1077
  105OSM   H13F10746   5.371   5.654   9.397 -0.7781 -0.0655  0.1933
  105OSM   H13G10747   5.474   5.516   9.449 -1.6609 -2.1053 -2.0790
  105OSM   C14F10748   5.397   5.497   9.246 -0.3254 -0.9156 -0.6178
  105OSM   H14F10749   5.336   5.419   9.296 -1.0870  0.9972  1.6255
  105OSM   H14G10750   5.479   5.443   9.194  0.9648  1.0456 -0.7149
  105OSM   C15F10751   5.307   5.569   9.147  0.2632  0.9834 -0.8756
  105OSM   H15F10752   5.359   5.647   9.089 -1.5434  2.5746 -0.4730
  105OSM   H15G10753   5.220   5.621   9.193 -0.9633 -1.0407 -0.7478
  105OSM   C16F10754   5.263   5.468   9.036  0.1364  0.3796  0.2292
  105OSM   H16F10755   5.174   5.416   9.076 -0.8007 -0.0111 -2.1722
  105OSM   H16G10756   5.354   5.410   9.007  0.4223  1.4923 -1.2345
  105OSM   C17F10757   5.222   5.531   8.900  0.3232 -0.1703 -0.0268
  105OSM   H17F10758   5.312   5.573   8.850  0.0221 -0.1506 -0.5561
  105OSM   H17G10759   5.150   5.611   8.926  0.9227  0.3751 -0.0360
  105OSM   C18F10760   5.145   5.434   8.812 -0.1186 -0.1151  0.2359
  105OSM   H18F10761   5.104   5.500   8.733 -1.0331 -1.9089 -0.8670
  105OSM   H18G10762   5.058   5.387   8.861 -1.9101  1.1921 -1.5243
  105OSM   H18H10763   5.206   5.359   8.756 -0.4680 -0.8174  0.7739
  106OSM      N10764   4.085   4.714  10.683  0.4687  0.2790 -0.3985
  106OSM    C1510765   4.199   4.792  10.619  0.2961  0.2715  0.6594
  106OSM   H15A10766   4.203   4.782  10.511  1.1091 -1.1381  0.7933
  106OSM   H15B10767   4.291   4.760  10.665  1.6087  3.8394  0.7637
  106OSM   H15C10768   4.195   4.896  10.646 -2.5257  0.6945 -0.9111
  106OSM    C1410769   4.102   4.743  10.831 -0.5411  0.1029  0.5651
  106OSM   H14A10770   4.030   4.689  10.892  0.3755 -1.0892  0.6252
  106OSM   H14B10771   4.088   4.848  10.852 -0.1196  0.6251 -1.5331
  106OSM   H14C10772   4.203   4.719  10.859 -0.6015 -1.5925 -0.4876
  106OSM    C1310773   3.959   4.757  10.622  0.4899 -0.0319 -0.6814
  106OSM   H13A10774   3.932   4.853  10.665 -2.1491  0.0891 -2.3658
  106OSM   H13B10775   3.887   4.677  10.637  1.4471 -0.4882  2.1150
  106OSM   H13C10776   3.973   4.775  10.517  0.2097 -0.6102 -0.8203
  106OSM    C1210777   4.100   4.566  10.672  0.6564  0.8102  0.0435
  106OSM   H12A10778   4.204   4.546  10.697 -0.1324 -1.6127  1.7106
  106OSM   H12B10779   4.080   4.522  10.575  1.1817  0.3455  0.1432
  106OSM    C1110780   4.019   4.467  10.756  0.6629  0.7597  0.2969
  106OSM   H11A10781   4.044   4.482  10.864 -1.0199 -1.9598  1.1801
  106OSM   H11B10782   4.040   4.358  10.747  2.0281  0.9883  0.5366
  106OSM      P10783   3.816   4.432  10.613 -0.0710  0.2935 -0.1787
  106OSM    O1310784   3.751   4.303  10.649 -0.4576 -0.1234  0.6856
  106OSM    O1410785   3.734   4.539  10.553  0.1248  0.3623 -0.0517
  106OSM    O1110786   3.926   4.406  10.511 -0.2171  0.1944  0.7614
  106OSM    O1210787   3.884   4.490  10.736  0.1144 -0.0126 -0.4358
  106OSM    C1S10788   3.915   4.309  10.409  0.0334 -0.2665  0.8516
  106OSM    H1S10789   3.816   4.259  10.403  0.4007 -0.9175  0.0981
  106OSM    H1T10790   3.982   4.223  10.429  0.6355  0.3410  1.5238
  106OSM     NF10791   3.928   4.238  10.181 -0.3831 -0.0686  0.6935
  106OSM    HNF10792   4.013   4.198  10.147  0.0179  1.9018 -0.7922
  106OSM    C2S10793   3.938   4.354  10.266  0.4574  0.0114 -0.0364
  106OSM    H2S10794   3.859   4.428  10.237  1.5187  1.6072  0.9807
  106OSM    C3S10795   4.068   4.441  10.243  0.5110  0.0735  0.3061
  106OSM    H3S10796   4.158   4.380  10.269 -0.3532 -1.0374  0.7907
  106OSM     O310797   4.083   4.555  10.323 -0.6455 -0.0093 -0.4356
  106OSM    HO310798   4.003   4.553  10.376 -0.8524  0.1490 -0.7380
  106OSM    C4S10799   4.066   4.465  10.099 -0.6838 -0.2478  0.0632
  106OSM    H4S10800   4.098   4.378  10.040  1.7341  0.0118  0.8920
  106OSM    C5S10801   4.022   4.576  10.034  0.1175  0.5000 -0.2928
  106OSM    H5S10802   3.987   4.662  10.093 -1.0859  1.3949 -2.2156
  106OSM    C6S10803   4.011   4.596   9.887 -0.0352  0.6692  0.0651
  106OSM    H6S10804   4.068   4.689   9.864  0.7870  0.1328 -0.1081
  106OSM    H6T10805   3.901   4.613   9.881  0.0066  2.2148  2.3351
  106OSM    C7S10806   4.069   4.487   9.802  0.3889  0.0856 -0.4880
  106OSM    H7S10807   4.037   4.389   9.844  2.4915  0.3927  2.1033
  106OSM    H7T10808   4.179   4.492   9.815  0.1993  1.1449  1.0607
  106OSM    C8S10809   4.037   4.491   9.650  0.1465 -0.6675 -0.0416
  106OSM    H8S10810   3.927   4.486   9.637  0.2377  0.4124 -1.3881
  106OSM    H8T10811   4.089   4.407   9.597 -2.0176 -1.5018 -0.9746
  106OSM    C9S10812   4.071   4.624   9.587 -0.2944  0.4383  0.0332
  106OSM    H9S10813   4.180   4.641   9.601 -0.5108  0.7494  1.4419
  106OSM    H9T10814   4.025   4.711   9.639 -2.2888 -1.2341  1.2222
  106OSM   C10S10815   4.023   4.621   9.438 -0.5013 -0.0213  0.8896
  106OSM   H10S10816   3.914   4.601   9.438 -0.3284 -1.2124  2.4061
  106OSM   H10T10817   4.065   4.532   9.387 -3.5852 -1.3756  0.5018
  106OSM   C11S10818   4.066   4.757   9.370  0.4913  0.2336 -0.2062
  106OSM   H11S10819   4.176   4.762   9.377  0.5924 -1.8390  0.3829
  106OSM   H11T10820   4.013   4.846   9.411  0.5552  0.7572 -1.2417
  106OSM   C12S10821   4.050   4.761   9.220  0.0790  0.1342 -0.7579
  106OSM   H12S10822   3.944   4.746   9.191 -0.9308  1.5833  1.8227
  106OSM   H12T10823   4.096   4.675   9.168 -0.0174 -1.9625  2.3551
  106OSM   C13S10824   4.106   4.886   9.146  0.2052  0.5971  0.8620
  106OSM   H13S10825   4.206   4.921   9.181  1.0455 -1.4165  0.6011
  106OSM   H13T10826   4.034   4.968   9.164  0.7105  1.2217  0.1474
  106OSM   C14S10827   4.121   4.868   8.996 -0.1106 -0.4156  0.3108
  106OSM   H14S10828   4.194   4.790   8.966  0.1398 -0.6802  1.5835
  106OSM   H14T10829   4.163   4.968   8.972 -1.0529 -0.0400  0.1688
  106OSM   C15S10830   3.991   4.865   8.921 -0.6334  0.3355 -0.2495
  106OSM   H15S10831   3.925   4.936   8.974  0.0673  0.1434  0.9147
  106OSM   H15T10832   3.955   4.760   8.924  0.1186  0.0915  0.7746
  106OSM   C16S10833   4.010   4.916   8.775  0.0291  0.3436 -0.8907
  106OSM   H16S10834   4.077   4.843   8.725  0.7215  0.6448 -0.4260
  106OSM   H16T10835   4.052   5.018   8.768 -2.3184  1.3350 -1.7848
  106OSM   C17S10836   3.875   4.910   8.706  0.2441  0.9324  0.0820
  106OSM   H17S10837   3.817   4.987   8.761  0.5024  1.4559 -0.3714
  106OSM   H17T10838   3.820   4.814   8.704 -2.0742  2.1759  0.9547
  106OSM   C18S10839   3.888   4.941   8.554  0.2931 -0.6617  0.9124
  106OSM   H18S10840   3.944   5.032   8.526 -1.4800  0.9908  2.5029
  106OSM   H18T10841   3.785   4.964   8.518  0.3520  1.1868  1.8117
  106OSM   H18U10842   3.930   4.854   8.499 -1.4756 -1.5768  0.9091
  106OSM    C1F10843   3.813   4.181  10.146 -0.1591  0.7853 -1.0083
  106OSM     OF10844   3.705   4.230  10.173 -0.4107 -0.0249 -0.1255
  106OSM    C2F10845   3.824   4.047  10.076 -0.4987  0.7066 -0.4727
  106OSM    H2F10846   3.791   3.973  10.151 -1.9989  2.2450  0.4597
  106OSM    H2G10847   3.934   4.034  10.063  0.0107  2.9186  1.1349
  106OSM    C3F10848   3.745   4.047   9.939  0.8902 -0.3979  0.4608
  106OSM    H3F10849   3.643   4.078   9.968  0.1307 -2.0088 -0.3817
  106OSM    H3G10850   3.733   3.942   9.904 -0.6593 -0.3252  0.7295
  106OSM    C4F10851   3.812   4.126   9.832  0.5373  0.3206  0.2355
  106OSM    H4F10852   3.917   4.094   9.851  1.3879  1.7359 -1.6545
  106OSM    H4G10853   3.802   4.235   9.852 -0.9602  0.0804  0.8800
  106OSM    C5F10854   3.772   4.084   9.695  0.2826 -0.0657 -0.2961
  106OSM    H5F10855   3.662   4.082   9.683  0.2907 -0.5889 -0.2757
  106OSM    H5G10856   3.800   3.978   9.682  2.6401  0.1270  2.2714
  106OSM    C6F10857   3.824   4.187   9.592 -0.2004 -0.7383  0.5741
  106OSM    H6F10858   3.924   4.197   9.639  0.3897 -1.7335 -0.4413
  106OSM    H6G10859   3.763   4.278   9.613  1.0456 -0.1882  2.0630
  106OSM    C7F10860   3.818   4.139   9.443 -0.5520 -0.2771  0.7694
  106OSM    H7F10861   3.716   4.097   9.430 -0.4410 -1.0892  2.3103
  106OSM    H7G10862   3.888   4.054   9.430 -0.8123 -0.6359  1.6283
  106OSM    C8F10863   3.853   4.258   9.337  0.3531 -0.0781 -0.6952
  106OSM    H8F10864   3.958   4.295   9.338 -0.0363  1.1041  0.1555
  106OSM    H8G10865   3.792   4.348   9.363  1.5942  0.5898  0.0192
  106OSM    C9F10866   3.823   4.207   9.199  0.0805  0.0366  0.7479
  106OSM    H9F10867   3.751   4.125   9.187 -2.4680  1.7909  2.9261
  106OSM   C10F10868   3.881   4.263   9.092  0.1486  0.3235  0.5917
  106OSM   H10F10869   3.864   4.220   8.992  1.1600  0.0674  0.5159
  106OSM   C11F10870   3.980   4.374   9.099  0.7689  0.6079 -0.4778
  106OSM   H11F10871   4.083   4.330   9.097 -0.7415 -3.3398 -1.3836
  106OSM   H11G10872   3.964   4.441   9.185  0.9678  2.7463 -2.0315
  106OSM   C12F10873   3.946   4.471   8.981 -0.0839  0.0637  0.2861
  106OSM   H12F10874   4.021   4.552   8.995 -0.4832  0.4745  0.0934
  106OSM   H12G10875   3.841   4.507   8.994 -0.2450 -0.1791 -0.2906
  106OSM   C13F10876   3.948   4.419   8.834 -0.3937  0.5166 -0.4359
  106OSM   H13F10877   3.857   4.359   8.813  0.0749 -0.4580  0.2421
  106OSM   H13G10878   4.027   4.341   8.840 -2.2243 -1.3231  1.8174
  106OSM   C14F10879   3.967   4.529   8.730 -0.6021  0.0406 -0.5712
  106OSM   H14F10880   4.068   4.560   8.764  0.3386 -3.3528  0.1496
  106OSM   H14G10881   3.895   4.613   8.743 -0.7758 -0.3985  1.7292
  106OSM   C15F10882   3.973   4.465   8.586 -0.0296 -0.3468 -0.3951
  106OSM   H15F10883   3.880   4.410   8.559 -0.1615  0.3317 -1.3609
  106OSM   H15G10884   4.053   4.388   8.592 -0.8321 -1.2260 -0.7700
  106OSM   C16F10885   4.017   4.568   8.479  0.9408 -0.2209 -1.1491
  106OSM   H16F10886   4.103   4.622   8.525 -0.0115  0.4948 -0.1521
  106OSM   H16G10887   3.936   4.643   8.468  0.1895 -0.9350 -0.6510
  106OSM   C17F10888   4.057   4.510   8.344  0.1058 -0.0584 -0.5783
  106OSM   H17F10889   4.140   4.439   8.364  1.5946  1.6128 -0.6193
  106OSM   H17G10890   4.101   4.591   8.282 -0.5133  0.1824 -0.7072
  106OSM   C18F10891   3.939   4.437   8.266 -0.1103 -0.5569 -0.6957
  106OSM   H18F10892   3.920   4.334   8.301 -1.0432 -0.3791 -0.6569
  106OSM   H18G10893   3.956   4.416   8.158 -0.9887 -3.5015 -0.3460
  106OSM   H18H10894   3.845   4.494   8.282  0.4718 -0.1146  1.4538
  107OSM      N10895   1.395   2.764  11.037  0.3350  0.6149 -0.3131
  107OSM    C1510896   1.334   2.692  11.150 -0.3344 -0.7773 -0.7266
  107OSM   H15A10897   1.369   2.591  11.167 -1.3524 -0.8432  1.2070
  107OSM   H15B10898   1.228   2.681  11.139 -0.5316 -0.0124  0.3211
  107OSM   H15C10899   1.378   2.750  11.229  3.5086 -0.9665 -2.4502
  107OSM    C1410900   1.331   2.899  11.036  0.4327  0.6413  0.1352
  107OSM   H14A10901   1.345   2.952  11.129 -0.5119  0.8177  0.1865
  107OSM   H14B10902   1.224   2.890  11.029  0.6706 -2.2294 -1.1787
  107OSM   H14C10903   1.376   2.971  10.969 -1.0301  1.8023  0.3435
  107OSM    C1310904   1.536   2.788  11.077  0.0350  0.4394  0.0074
  107OSM   H13A10905   1.542   2.834  11.174  0.1741  0.8069 -0.1741
  107OSM   H13B10906   1.593   2.856  11.015  0.6556  2.4651  2.6381
  107OSM   H13C10907   1.591   2.695  11.072  0.0273  0.4732 -0.8988
  107OSM    C1210908   1.385   2.693  10.905  0.5164  0.6317  0.1070
  107OSM   H12A10909   1.280   2.672  10.890  0.9734 -1.4282 -0.5632
  107OSM   H12B10910   1.429   2.595  10.912  0.8455  0.8137  0.6749
  107OSM    C1110911   1.445   2.750  10.780 -0.5583 -0.0772  0.1250
  107OSM   H11A10912   1.432   2.668  10.706  1.0876  0.7089 -1.1325
  107OSM   H11B10913   1.556   2.757  10.790 -0.4316 -2.0010  0.4856
  107OSM      P10914   1.265   2.884  10.648 -0.0613 -0.1890  0.0512
  107OSM    O1310915   1.178   2.764  10.665  0.6968 -0.4379 -0.2980
  107OSM    O1410916   1.206   3.015  10.655  0.2555  0.6133 -0.1106
  107OSM    O1110917   1.343   2.872  10.507  0.0286  0.4687  0.6277
  107OSM    O1210918   1.388   2.876  10.749  0.1912 -0.0935 -0.0059
  107OSM    C1S10919   1.467   2.931  10.482  0.1774 -0.0906  0.7864
  107OSM    H1S10920   1.543   2.853  10.503  0.1897  0.0992  1.4790
  107OSM    H1T10921   1.489   3.010  10.558 -3.4326  0.9365  0.9435
  107OSM     NF10922   1.622   3.036  10.327 -0.2844 -0.5115 -0.0295
  107OSM    HNF10923   1.627   3.135  10.320  0.8988 -0.3427  2.1726
  107OSM    C2S10924   1.487   2.987  10.340 -0.0567  0.0873  0.1667
  107OSM    H2S10925   1.474   2.905  10.267 -1.3828  1.0215 -0.6928
  107OSM    C3S10926   1.380   3.087  10.296  1.0321 -0.2243 -0.4697
  107OSM    H3S10927   1.384   3.171  10.368  0.1995 -0.2985 -0.3276
  107OSM     O310928   1.244   3.039  10.306  0.4829  0.0417  0.3982
  107OSM    HO310929   1.241   3.020  10.400 -0.2657 -0.7860  0.2134
  107OSM    C4S10930   1.404   3.150  10.162 -0.2277 -0.9164 -0.2125
  107OSM    H4S10931   1.448   3.248  10.186  0.5615 -1.4041  0.3926
  107OSM    C5S10932   1.360   3.111  10.043  0.2391  0.1169  0.3522
  107OSM    H5S10933   1.302   3.017  10.038 -3.3014  2.1250 -0.1457
  107OSM    C6S10934   1.375   3.167   9.900 -0.2689 -0.0196 -0.3979
  107OSM    H6S10935   1.284   3.185   9.840  0.5714 -0.9658 -2.0211
  107OSM    H6T10936   1.429   3.089   9.842 -0.1016  0.0601 -0.3521
  107OSM    C7S10937   1.460   3.297   9.880  1.0357 -0.1612 -0.0043
  107OSM    H7S10938   1.558   3.279   9.929  1.1467  1.3843  0.4109
  107OSM    H7T10939   1.414   3.384   9.933  0.8287  0.5073 -1.2450
  107OSM    C8S10940   1.453   3.353   9.739  0.0938  0.4898 -0.1608
  107OSM    H8S10941   1.499   3.454   9.735  0.8151  0.1480 -0.6681
  107OSM    H8T10942   1.347   3.365   9.708 -0.1732  1.8691  1.1736
  107OSM    C9S10943   1.515   3.255   9.640 -0.0372 -0.7082  0.2683
  107OSM    H9S10944   1.481   3.151   9.659  0.1094 -0.6270  0.9969
  107OSM    H9T10945   1.625   3.264   9.655 -0.0116 -1.0013  0.2431
  107OSM   C10S10946   1.485   3.290   9.488 -0.5496  0.3855  0.6269
  107OSM   H10S10947   1.381   3.258   9.466 -0.7095  0.4415  1.2718
  107OSM   H10T10948   1.550   3.229   9.422  0.1999  1.6922  0.1116
  107OSM   C11S10949   1.501   3.438   9.452 -0.0030  0.7083 -0.3174
  107OSM   H11S10950   1.608   3.469   9.457  0.2292 -0.1396  0.2666
  107OSM   H11T10951   1.444   3.502   9.524 -1.1065 -0.6634  0.0755
  107OSM   C12S10952   1.442   3.478   9.322  0.2769 -0.3827  0.6749
  107OSM   H12S10953   1.336   3.443   9.313  0.4124 -0.3212 -2.6714
  107OSM   H12T10954   1.492   3.423   9.239  0.6181  1.4683 -0.3915
  107OSM   C13S10955   1.435   3.628   9.287  0.0212 -0.1514  0.3352
  107OSM   H13S10956   1.540   3.664   9.294 -0.5932  2.0576 -0.8030
  107OSM   H13T10957   1.373   3.676   9.366  0.8682 -0.5567  1.2806
  107OSM   C14S10958   1.382   3.662   9.148  0.2511 -0.0541  0.0259
  107OSM   H14S10959   1.278   3.623   9.141  0.5120 -0.4268 -3.2101
  107OSM   H14T10960   1.423   3.593   9.071 -1.3012 -0.1888 -0.7328
  107OSM   C15S10961   1.391   3.811   9.096  0.1002  0.4206 -0.2311
  107OSM   H15S10962   1.498   3.821   9.066  0.1520 -1.3843 -0.8056
  107OSM   H15T10963   1.359   3.886   9.170 -1.4659  0.1845 -0.6288
  107OSM   C16S10964   1.301   3.840   8.973 -0.2136  0.3740  0.0374
  107OSM   H16S10965   1.203   3.792   8.996  0.1691 -1.1928 -1.3097
  107OSM   H16T10966   1.347   3.781   8.890 -1.5652 -1.3783  0.4554
  107OSM   C17S10967   1.306   3.984   8.920  0.5155 -0.6057 -0.0059
  107OSM   H17S10968   1.232   4.007   8.840  1.1741 -1.1877 -0.8036
  107OSM   H17T10969   1.404   4.000   8.870  0.5664  0.9443  0.5355
  107OSM   C18S10970   1.297   4.095   9.033  1.0541 -0.2008 -0.4899
  107OSM   H18S10971   1.194   4.097   9.074  1.5976  0.7591  0.9137
  107OSM   H18T10972   1.315   4.197   8.994 -2.1366  0.8102  0.3462
  107OSM   H18U10973   1.365   4.068   9.117  1.0646 -0.8508 -0.6979
  107OSM    C1F10974   1.728   2.960  10.323 -0.0904 -0.0193  0.2908
  107OSM     OF10975   1.720   2.841  10.318 -0.2856 -0.0646 -0.0721
  107OSM    C2F10976   1.863   3.020  10.323 -0.1856  0.6126 -0.3127
  107OSM    H2F10977   1.926   2.933  10.295 -1.4681 -0.2705 -0.5294
  107OSM    H2G10978   1.892   3.045  10.428 -2.3552 -1.2114  0.8117
  107OSM    C3F10979   1.894   3.131  10.219 -0.6757 -0.1057 -0.0342
  107OSM    H3F10980   1.999   3.165  10.234 -1.2107  1.1572  1.0867
  107OSM    H3G10981   1.819   3.212  10.236 -0.9147  0.0544 -1.6491
  107OSM    C4F10982   1.887   3.080  10.067 -0.3261  0.6216  0.0965
  107OSM    H4F10983   1.795   3.023  10.046 -1.5845  2.3389  0.7142
  107OSM    H4G10984   1.972   3.008  10.061  0.3983  1.3211  1.4169
  107OSM    C5F10985   1.895   3.201   9.973 -0.8868  0.3933  0.1223
  107OSM    H5F10986   1.986   3.259  10.001 -1.3110 -0.6170  4.2571
  107OSM    H5G10987   1.813   3.274   9.992 -0.0008  1.8194 -1.2777
  107OSM    C6F10988   1.929   3.167   9.823 -0.3532  0.0956 -0.1894
  107OSM    H6F10989   1.836   3.136   9.772  0.3824 -1.7527 -0.4800
  107OSM    H6G10990   1.995   3.078   9.820 -0.3968  0.0926 -2.0967
  107OSM    C7F10991   1.998   3.282   9.746 -0.5340 -0.2725  0.6745
  107OSM    H7F10992   2.087   3.323   9.798 -1.5497  1.4837  1.0925
  107OSM    H7G10993   1.928   3.367   9.735  1.5638  1.4680  0.1702
  107OSM    C8F10994   2.043   3.250   9.606 -0.2320  0.7310  0.1040
  107OSM    H8F10995   2.090   3.151   9.627 -0.8670  0.9301  2.8609
  107OSM    H8G10996   2.118   3.323   9.569  0.0683  0.8736  0.9738
  107OSM    C9F10997   1.921   3.220   9.517  0.2526  0.5402  0.3432
  107OSM    H9F10998   1.883   3.117   9.531  1.4213 -0.0457 -0.5477
  107OSM   C10F10999   1.857   3.305   9.431 -0.1424 -1.1026  0.1716
  107OSM   H10F11000   1.769   3.270   9.375  0.2261  0.7622 -1.7093
  107OSM   C11F11001   1.901   3.446   9.423 -0.2964  0.9284  0.2398
  107OSM   H11F11002   1.990   3.465   9.486 -0.3313 -0.7741  0.8505
  107OSM   H11G11003   1.819   3.513   9.459  0.0144  0.6542  1.5054
  107OSM   C12F11004   1.926   3.508   9.290 -0.2221  0.0512  0.4463
  107OSM   H12F11005   2.010   3.459   9.235 -0.8560  0.8793 -1.3148
  107OSM   H12G11006   1.960   3.613   9.301  2.2753 -0.3330 -2.4222
  107OSM   C13F11007   1.797   3.511   9.201 -0.9925  0.1378  0.0372
  107OSM   H13F11008   1.734   3.595   9.238  0.9539  1.2413  1.0158
  107OSM   H13G11009   1.739   3.417   9.210  0.9693 -1.0503  0.8702
  107OSM   C14F11010   1.829   3.550   9.056 -0.0407 -0.4290 -0.0827
  107OSM   H14F11011   1.907   3.483   9.015 -0.7437 -0.5815 -1.2280
  107OSM   H14G11012   1.867   3.654   9.051  0.5100 -0.6350 -0.2245
  107OSM   C15F11013   1.717   3.542   8.961 -0.7757  0.4764 -0.1237
  107OSM   H15F11014   1.618   3.582   8.993 -0.6116  2.7623 -2.1329
  107OSM   H15G11015   1.698   3.435   8.938 -2.5927  0.7888 -0.2760
  107OSM   C16F11016   1.741   3.609   8.823 -0.0018  0.1051  0.1469
  107OSM   H16F11017   1.677   3.554   8.751  0.8943 -2.4479  1.1888
  107OSM   H16G11018   1.849   3.594   8.801  0.5108 -1.1293  3.1406
  107OSM   C17F11019   1.705   3.757   8.830  0.3445 -0.1654 -0.1916
  107OSM   H17F11020   1.754   3.778   8.928  0.7037 -3.1677  0.3428
  107OSM   H17G11021   1.594   3.752   8.840  0.4099 -1.5492 -0.1062
  107OSM   C18F11022   1.748   3.851   8.725  0.0107  0.1476  0.1962
  107OSM   H18F11023   1.715   3.807   8.628 -0.1952 -1.2780  0.8890
  107OSM   H18G11024   1.858   3.846   8.713  0.1859  0.6637  1.4692
  107OSM   H18H11025   1.716   3.957   8.737 -1.3571 -0.3223  0.9772
  108OSM      N11026   3.687   1.142  11.275  0.6856 -0.5189  0.3071
  108OSM    C1511027   3.715   0.997  11.310  0.1035 -0.2515  0.6518
  108OSM   H15A11028   3.818   0.968  11.293 -0.8293 -1.8472 -3.4484
  108OSM   H15B11029   3.664   0.937  11.236  0.2099 -0.3374  0.6464
  108OSM   H15C11030   3.684   0.967  11.409  0.0863 -1.3983  0.3211
  108OSM    C1411031   3.715   1.226  11.394  0.1441 -0.3260  0.0806
  108OSM   H14A11032   3.632   1.223  11.463 -1.1448 -0.5138 -1.4178
  108OSM   H14B11033   3.747   1.325  11.364  1.7874 -0.6874  0.5462
  108OSM   H14C11034   3.793   1.185  11.455 -0.7769  1.7158  2.8393
  108OSM    C1311035   3.772   1.187  11.161  0.3481  0.4586 -0.2541
  108OSM   H13A11036   3.736   1.140  11.071  0.1415  1.6603 -0.8215
  108OSM   H13B11037   3.877   1.166  11.155  0.7163  2.5351 -2.8767
  108OSM   H13C11038   3.751   1.291  11.137  1.3214  0.1342 -2.7556
  108OSM    C1211039   3.536   1.153  11.235  0.0621 -0.2214  0.8395
  108OSM   H12A11040   3.526   1.256  11.202  1.2686 -0.7304 -1.2798
  108OSM   H12B11041   3.481   1.145  11.327 -0.8056  1.3718  0.4942
  108OSM    C1111042   3.478   1.076  11.115 -0.4230 -0.3078  0.6614
  108OSM   H11A11043   3.373   1.111  11.123 -0.2289 -0.1380  3.0117
  108OSM   H11B11044   3.481   0.966  11.133 -0.0703 -0.0251  2.5556
  108OSM      P11045   3.506   1.260  10.928 -0.0220 -0.0702 -0.0341
  108OSM    O1311046   3.367   1.271  10.875 -0.1202  0.9565  0.0223
  108OSM    O1411047   3.528   1.357  11.033 -0.1787 -0.2969  0.0336
  108OSM    O1111048   3.614   1.268  10.818  0.1738 -0.0667  0.2769
  108OSM    O1211049   3.533   1.112  10.986 -0.3518 -0.0775  0.3800
  108OSM    C1S11050   3.650   1.160  10.731 -0.0982  0.3057 -0.1792
  108OSM    H1S11051   3.563   1.117  10.677  0.3422  1.8477 -2.2513
  108OSM    H1T11052   3.710   1.084  10.785 -1.8361  0.3788  1.9860
  108OSM     NF11053   3.785   1.114  10.519  0.3562 -0.6545  0.3209
  108OSM    HNF11054   3.878   1.081  10.528  0.1401 -1.0443  1.3714
  108OSM    C2S11055   3.750   1.212  10.614  0.4251  0.2727 -0.1290
  108OSM    H2S11056   3.686   1.282  10.557 -0.3524  0.9757  1.5491
  108OSM    C3S11057   3.873   1.288  10.672  0.3333  0.2602 -0.0823
  108OSM    H3S11058   3.936   1.217  10.729 -0.4993  1.9321  3.2384
  108OSM     O311059   3.852   1.365  10.791 -0.3759  0.0095  0.0172
  108OSM    HO311060   3.760   1.347  10.815 -0.7564 -0.3944 -1.6559
  108OSM    C4S11061   3.952   1.352  10.566  0.7376 -0.8369 -0.3931
  108OSM    H4S11062   4.025   1.282  10.521  0.7366 -0.7820 -0.4800
  108OSM    C5S11063   3.934   1.481  10.514  0.0533  0.6842 -0.2225
  108OSM    H5S11064   3.859   1.546  10.561  1.5129  2.1818  0.1613
  108OSM    C6S11065   4.016   1.539  10.401 -0.0801 -0.2394  0.4506
  108OSM    H6S11066   4.114   1.569  10.445 -0.0533  1.5256 -0.6727
  108OSM    H6T11067   3.968   1.629  10.357 -0.8889 -1.7971 -2.0011
  108OSM    C7S11068   4.034   1.446  10.276  0.2981 -0.0457 -0.2030
  108OSM    H7S11069   4.099   1.358  10.298 -1.8239 -1.7988 -0.6226
  108OSM    H7T11070   4.083   1.511  10.201  0.6343  0.6242  0.5798
  108OSM    C8S11071   3.900   1.387  10.225 -0.2896 -0.9030 -0.1932
  108OSM    H8S11072   3.831   1.474  10.219  1.5017  0.5045 -1.5251
  108OSM    H8T11073   3.858   1.315  10.299 -2.6453 -0.2282 -0.7981
  108OSM    C9S11074   3.910   1.326  10.082 -0.4499  0.5099  0.0246
  108OSM    H9S11075   3.815   1.269  10.067 -1.0769  1.4114  0.4553
  108OSM    H9T11076   3.992   1.253  10.065 -0.0305  0.6844  1.2261
  108OSM   C10S11077   3.923   1.438   9.976  0.9586  0.1512  0.3598
  108OSM   H10S11078   4.015   1.500   9.985  2.0857 -1.0278 -2.0460
  108OSM   H10T11079   3.830   1.496   9.989  0.5544 -0.0464 -1.3501
  108OSM   C11S11080   3.916   1.383   9.831 -0.5672  0.0263 -0.2192
  108OSM   H11S11081   3.815   1.355   9.796  0.4875 -1.7600 -2.0097
  108OSM   H11T11082   3.955   1.279   9.833 -3.1608 -1.0295 -0.4784
  108OSM   C12S11083   3.975   1.470   9.725 -0.4628 -0.5798 -0.4178
  108OSM   H12S11084   4.085   1.482   9.730 -0.5337 -0.4456  2.4990
  108OSM   H12T11085   3.932   1.572   9.741  2.1694  0.8381 -1.7143
  108OSM   C13S11086   3.933   1.407   9.588  0.2662  0.4111 -0.0639
  108OSM   H13S11087   3.824   1.391   9.583  0.3127  0.0461  0.0736
  108OSM   H13T11088   3.992   1.312   9.591  1.7796  1.3335  1.5849
  108OSM   C14S11089   3.981   1.489   9.464  0.3596 -0.4307  0.5457
  108OSM   H14S11090   4.089   1.508   9.447  0.5549 -0.7472  1.3613
  108OSM   H14T11091   3.940   1.592   9.462  1.5642  0.0383 -1.3460
  108OSM   C15S11092   3.925   1.432   9.329  0.7428  0.5844  0.3291
  108OSM   H15S11093   3.814   1.445   9.329  0.9477  2.9806  1.5256
  108OSM   H15T11094   3.956   1.326   9.314  2.2708  1.1193 -0.5290
  108OSM   C16S11095   3.973   1.506   9.199  0.9556 -0.1977  0.8147
  108OSM   H16S11096   4.074   1.474   9.165  0.0563 -2.8998  0.4115
  108OSM   H16T11097   3.977   1.616   9.212 -0.4843  0.0257 -0.3078
  108OSM   C17S11098   3.876   1.502   9.077 -0.5821  0.5997  0.2040
  108OSM   H17S11099   3.784   1.557   9.101  0.2151  0.9085  2.7856
  108OSM   H17T11100   3.846   1.400   9.043 -4.3479  1.7584 -0.4308
  108OSM   C18S11101   3.953   1.582   8.963  0.5273  0.3733  0.6647
  108OSM   H18S11102   3.964   1.686   9.002 -2.0315  0.8431  0.3063
  108OSM   H18T11103   3.883   1.585   8.877  2.0227 -3.6321 -0.8996
  108OSM   H18U11104   4.047   1.529   8.937  0.3800  0.0196  0.8494
  108OSM    C1F11105   3.702   1.043  10.449 -0.6039  0.5370  0.0471
  108OSM     OF11106   3.583   1.064  10.448  0.1338  0.2001 -0.0414
  108OSM    C2F11107   3.762   0.934  10.374 -0.5200  0.2085 -0.3057
  108OSM    H2F11108   3.681   0.858  10.374 -0.7777  0.4709 -1.0605
  108OSM    H2G11109   3.849   0.893  10.430  0.4005  1.4315 -0.7804
  108OSM    C3F11110   3.799   0.976  10.230 -0.3967  0.3257  0.1294
  108OSM    H3F11111   3.886   1.045  10.225  0.7736 -1.1203 -0.2490
  108OSM    H3G11112   3.724   1.021  10.161  1.0171  0.4919 -1.3410
  108OSM    C4F11113   3.852   0.858  10.151  0.6042 -0.5597  0.4195
  108OSM    H4F11114   3.765   0.795  10.122  1.1663 -0.8228 -0.7826
  108OSM    H4G11115   3.924   0.807  10.219  3.0071  2.5907  0.4897
  108OSM    C5F11116   3.932   0.906  10.027  0.8591  1.3850 -0.2770
  108OSM    H5F11117   3.987   0.813  10.003 -0.6188  0.5352 -0.4427
  108OSM    H5G11118   4.019   0.971  10.053  2.6566 -1.6236  1.9890
  108OSM    C6F11119   3.850   0.966   9.915 -0.4122 -0.5369  0.5235
  108OSM    H6F11120   3.799   1.061   9.940  1.9552  1.1291 -0.5923
  108OSM    H6G11121   3.767   0.895   9.892  0.2379 -0.3205 -2.9887
  108OSM    C7F11122   3.917   0.980   9.781  0.0199  0.3839 -0.0411
  108OSM    H7F11123   3.980   0.895   9.750  1.3740  1.7254 -1.1181
  108OSM    H7G11124   3.990   1.063   9.786  0.3164  0.2749 -1.7002
  108OSM    C8F11125   3.829   1.020   9.664 -0.0749  0.0028 -0.6013
  108OSM    H8F11126   3.885   1.081   9.590 -0.8158 -0.4163 -1.5346
  108OSM    H8G11127   3.763   1.100   9.705 -0.4590 -0.4464 -0.3244
  108OSM    C9F11128   3.755   0.909   9.595  0.0197  0.3674 -0.4469
  108OSM    H9F11129   3.646   0.909   9.608  0.0013 -1.2186 -0.4257
  108OSM   C10F11130   3.816   0.828   9.509  0.5763  0.0376  0.2479
  108OSM   H10F11131   3.758   0.743   9.468  0.3854  0.4540 -0.3589
  108OSM   C11F11132   3.958   0.839   9.465 -0.1308  0.2746  0.5368
  108OSM   H11F11133   4.020   0.762   9.517  1.4031  1.4237  0.4849
  108OSM   H11G11134   4.003   0.934   9.502 -1.9548  2.3833 -2.2747
  108OSM   C12F11135   3.990   0.839   9.315 -0.2901 -0.3823  0.7474
  108OSM   H12F11136   3.945   0.757   9.255 -2.5606 -0.1932  2.1076
  108OSM   H12G11137   4.101   0.831   9.318 -0.3080 -1.6017 -0.6827
  108OSM   C13F11138   3.950   0.974   9.249 -0.1584 -0.3218 -0.1907
  108OSM   H13F11139   4.002   1.056   9.304  0.5055 -1.3711  0.7893
  108OSM   H13G11140   3.844   0.996   9.275  0.2118  2.6857 -0.8064
  108OSM   C14F11141   3.984   0.994   9.098  0.6742  0.3981  0.1775
  108OSM   H14F11142   3.950   0.911   9.031  2.8716  0.4957 -1.1543
  108OSM   H14G11143   4.094   0.993   9.089  0.6366  2.2775 -1.1391
  108OSM   C15F11144   3.937   1.127   9.039  0.5859 -0.7210 -0.2822
  108OSM   H15F11145   3.992   1.213   9.082  0.0683 -0.6440  0.2315
  108OSM   H15G11146   3.827   1.134   9.050  0.7591  0.2663  1.0546
  108OSM   C16F11147   3.967   1.139   8.884 -0.0366 -0.0011 -0.0422
  108OSM   H16F11148   3.911   1.228   8.849 -1.8323 -1.3518 -0.7887
  108OSM   H16G11149   3.927   1.050   8.830  0.8580  0.5048 -1.6074
  108OSM   C17F11150   4.117   1.158   8.864  0.1776  0.4779  0.8400
  108OSM   H17F11151   4.166   1.097   8.942  1.2053  0.3478  0.1171
  108OSM   H17G11152   4.139   1.264   8.888  2.1470  0.1216  0.7449
  108OSM   C18F11153   4.171   1.136   8.723 -0.4934 -0.2496  0.2665
  108OSM   H18F11154   4.279   1.160   8.723 -0.1581 -1.6486  0.3758
  108OSM   H18G11155   4.125   1.207   8.652 -1.7193 -0.3230  0.9599
  108OSM   H18H11156   4.156   1.027   8.703  1.1419 -1.0811  2.9571
  109OSM      N11157   2.606   2.424  10.650 -0.0018 -0.4458 -0.2146
  109OSM    C1511158   2.597   2.304  10.737  0.1606  0.4397  0.6638
  109OSM   H15A11159   2.694   2.257  10.746  0.0108  0.0969  0.5032
  109OSM   H15B11160   2.548   2.221  10.690  1.9561 -0.1823 -0.2155
  109OSM   H15C11161   2.564   2.315  10.839  0.2154  0.8314  0.6404
  109OSM    C1411162   2.705   2.521  10.714  0.4361 -0.4735  0.3719
  109OSM   H14A11163   2.797   2.470  10.738  1.2729 -0.4324 -2.3876
  109OSM   H14B11164   2.651   2.559  10.800 -3.9725  1.0666 -2.7299
  109OSM   H14C11165   2.722   2.602  10.645 -2.3244  0.0723  0.2122
  109OSM    C1311166   2.643   2.386  10.512 -0.5353  0.7686  1.0627
  109OSM   H13A11167   2.727   2.319  10.499 -2.0783 -1.3696  1.4946
  109OSM   H13B11168   2.672   2.465  10.444  0.5232 -0.0916  0.4811
  109OSM   H13C11169   2.563   2.345  10.454  0.0519  0.0937  0.7164
  109OSM    C1211170   2.466   2.491  10.646 -0.0899 -0.5138 -0.2831
  109OSM   H12A11171   2.397   2.425  10.596  2.3179 -1.2630 -2.8251
  109OSM   H12B11172   2.472   2.580  10.585 -1.7331 -1.4925 -1.9732
  109OSM    C1111173   2.404   2.530  10.781  1.0358 -0.5775 -0.7533
  109OSM   H11A11174   2.401   2.445  10.852 -1.5577 -1.9681 -2.3650
  109OSM   H11B11175   2.299   2.562  10.762  1.0484  0.0214  0.1179
  109OSM      P11176   2.435   2.785  10.834  0.2507 -0.2180 -0.3531
  109OSM    O1311177   2.356   2.798  10.959  0.0687  0.1213 -0.2141
  109OSM    O1411178   2.563   2.863  10.824 -0.0143 -0.5274  0.1851
  109OSM    O1111179   2.352   2.808  10.703 -0.3304 -0.3623  0.6144
  109OSM    O1211180   2.482   2.634  10.834  0.7853 -0.0620  0.2252
  109OSM    C1S11181   2.422   2.847  10.586 -0.3657 -0.5366  0.3722
  109OSM    H1S11182   2.526   2.807  10.586  0.4160  1.3490  0.9375
  109OSM    H1T11183   2.441   2.957  10.580 -0.0213 -0.6101  0.0729
  109OSM     NF11184   2.427   2.814  10.337 -0.3665 -0.2256  0.1824
  109OSM    HNF11185   2.389   2.883  10.277 -0.4525  0.2954  0.8211
  109OSM    C2S11186   2.358   2.788  10.462 -0.0091 -0.0809  0.5478
  109OSM    H2S11187   2.356   2.677  10.466  0.1129 -0.1515 -0.8065
  109OSM    C3S11188   2.210   2.841  10.448  0.9808 -0.1862 -0.6580
  109OSM    H3S11189   2.211   2.952  10.439 -0.2420 -0.0176  0.9225
  109OSM     O311190   2.126   2.802  10.562 -0.0123  0.3198  0.1168
  109OSM    HO311191   2.189   2.776  10.630 -1.9546 -2.8137  0.9650
  109OSM    C4S11192   2.151   2.793  10.318 -0.0393 -0.8902 -0.1547
  109OSM    H4S11193   2.152   2.875  10.245 -0.0042  0.8172  1.6849
  109OSM    C5S11194   2.125   2.665  10.289 -0.8788 -0.1356 -0.1406
  109OSM    H5S11195   2.133   2.590  10.369 -2.6749  0.2504  0.4454
  109OSM    C6S11196   2.071   2.613  10.157 -0.4119  0.0361  0.4660
  109OSM    H6S11197   1.962   2.635  10.153 -0.1849  1.0404 -1.2480
  109OSM    H6T11198   2.086   2.503  10.148  0.1566  0.2078 -0.8698
  109OSM    C7S11199   2.153   2.673  10.037 -0.4729 -0.0471 -0.0568
  109OSM    H7S11200   2.261   2.647  10.043 -1.1450 -3.0655  0.9870
  109OSM    H7T11201   2.136   2.782  10.026 -0.6418 -0.0066  0.5857
  109OSM    C8S11202   2.094   2.603   9.918 -0.5222  0.2461 -0.5783
  109OSM    H8S11203   1.985   2.600   9.937 -0.4951  0.8830 -0.2938
  109OSM    H8T11204   2.120   2.497   9.899 -1.4495  0.1389 -1.2981
  109OSM    C9S11205   2.120   2.693   9.792  0.6578  0.2981  0.2983
  109OSM    H9S11206   2.229   2.702   9.776  0.7007 -0.4991  0.0936
  109OSM    H9T11207   2.076   2.794   9.809 -0.3562  0.0326 -0.6465
  109OSM   C10S11208   2.071   2.630   9.658 -0.6359  0.1848  0.3123
  109OSM   H10S11209   1.967   2.594   9.666 -0.2866 -1.3520 -1.4217
  109OSM   H10T11210   2.141   2.546   9.634  0.6560  0.8614  1.5738
  109OSM   C11S11211   2.080   2.724   9.539 -0.1834  0.3910 -0.3045
  109OSM   H11S11212   2.184   2.763   9.536  0.0016  0.1562  1.6000
  109OSM   H11T11213   2.005   2.804   9.554  0.6786  1.4781 -1.5820
  109OSM   C12S11214   2.037   2.659   9.405 -0.6136 -0.0524 -0.2926
  109OSM   H12S11215   1.929   2.632   9.411 -0.6241 -0.0571 -0.5027
  109OSM   H12T11216   2.100   2.568   9.405 -2.2108 -1.2167  0.9121
  109OSM   C13S11217   2.077   2.747   9.290  0.7883  0.0356 -0.3683
  109OSM   H13S11218   2.188   2.753   9.278  0.7797  0.0954 -0.4191
  109OSM   H13T11219   2.032   2.847   9.305  0.8093  0.0599 -0.4618
  109OSM   C14S11220   2.020   2.685   9.161  0.3517 -0.2012  0.3134
  109OSM   H14S11221   1.914   2.666   9.186  0.1605  0.5421  0.0952
  109OSM   H14T11222   2.075   2.594   9.127 -2.0437 -0.8812 -2.0976
  109OSM   C15S11223   2.015   2.801   9.055  0.6668  0.7380  0.6033
  109OSM   H15S11224   2.110   2.857   9.047  1.5979 -0.8255  0.2194
  109OSM   H15T11225   1.938   2.875   9.088 -0.3332 -1.3791  3.4526
  109OSM   C16S11226   1.986   2.749   8.913 -0.4914  0.4483  0.1869
  109OSM   H16S11227   2.042   2.653   8.917  3.6632  2.6268  0.2804
  109OSM   H16T11228   2.043   2.814   8.843  1.8226 -2.2566 -0.6470
  109OSM   C17S11229   1.836   2.752   8.864  0.0149 -0.3227 -1.2750
  109OSM   H17S11230   1.805   2.859   8.865  0.9687 -0.0210  0.4335
  109OSM   H17T11231   1.773   2.690   8.931 -1.8300 -0.0718 -2.6840
  109OSM   C18S11232   1.821   2.689   8.725 -0.5094  0.3217 -0.2683
  109OSM   H18S11233   1.716   2.664   8.699 -1.6698  3.4439  0.8981
  109OSM   H18T11234   1.875   2.592   8.721 -1.5104 -0.2344 -0.5311
  109OSM   H18U11235   1.864   2.753   8.645  0.3686  0.5192  0.3507
  109OSM    C1F11236   2.540   2.762  10.291  0.0824 -0.2600  0.1595
  109OSM     OF11237   2.577   2.652  10.330 -0.1752 -0.1897 -0.1411
  109OSM    C2F11238   2.614   2.848  10.188  0.2918  1.0423 -0.5484
  109OSM    H2F11239   2.656   2.934  10.245  0.3967 -0.0329  1.0538
  109OSM    H2G11240   2.540   2.874  10.109 -0.7844 -0.1796  0.0202
  109OSM    C3F11241   2.723   2.782  10.117 -0.0290  0.0679  0.5227
  109OSM    H3F11242   2.804   2.747  10.184  0.1261  1.6114  1.1799
  109OSM    H3G11243   2.774   2.861  10.058  2.2465 -0.3608  1.7950
  109OSM    C4F11244   2.682   2.666  10.025 -0.3975  0.1163 -0.0960
  109OSM    H4F11245   2.626   2.584  10.075  0.6280 -1.7423 -1.8542
  109OSM    H4G11246   2.769   2.618   9.976  0.1702  1.4043 -0.3823
  109OSM    C5F11247   2.581   2.706   9.916  0.0567  0.1309  0.0107
  109OSM    H5F11248   2.608   2.797   9.859 -2.2545  1.9030  1.5710
  109OSM    H5G11249   2.481   2.723   9.961 -0.4921  3.3379 -2.1063
  109OSM    C6F11250   2.553   2.598   9.813  0.2973 -0.2168 -0.6596
  109OSM    H6F11251   2.448   2.619   9.783 -0.6016 -2.9946  0.2672
  109OSM    H6G11252   2.542   2.510   9.880 -2.2821 -0.2799 -1.0620
  109OSM    C7F11253   2.655   2.579   9.700  0.2632 -0.0775  0.3465
  109OSM    H7F11254   2.726   2.495   9.715 -1.2304 -1.6055 -0.8472
  109OSM    H7G11255   2.724   2.664   9.680 -1.0712  0.5562 -1.9499
  109OSM    C8F11256   2.600   2.534   9.555  0.1174 -0.6653 -0.2686
  109OSM    H8F11257   2.552   2.435   9.570 -1.5334  0.1147 -0.1696
  109OSM    H8G11258   2.684   2.531   9.483 -0.5321  0.3897 -1.1041
  109OSM    C9F11259   2.499   2.639   9.501  0.1435 -0.3214  0.4365
  109OSM    H9F11260   2.463   2.708   9.578 -0.9912 -0.1627 -0.2135
  109OSM   C10F11261   2.459   2.661   9.370  0.5977  0.2092 -0.0145
  109OSM   H10F11262   2.392   2.746   9.352  0.5377  0.0579 -0.5234
  109OSM   C11F11263   2.501   2.582   9.247 -0.4565 -0.0442  0.5492
  109OSM   H11F11264   2.561   2.495   9.281 -1.2598 -0.4203  1.0382
  109OSM   H11G11265   2.572   2.645   9.189 -2.7674  2.4960  0.2659
  109OSM   C12F11266   2.391   2.534   9.155 -0.2877 -0.3622 -0.3754
  109OSM   H12F11267   2.311   2.610   9.139 -0.7572 -1.2333 -2.3986
  109OSM   H12G11268   2.341   2.455   9.214  1.7165 -1.6929 -0.3655
  109OSM   C13F11269   2.437   2.463   9.025  0.3619 -0.4738 -0.0357
  109OSM   H13F11270   2.350   2.418   8.974 -0.3391  2.4007 -1.5386
  109OSM   H13G11271   2.499   2.376   9.056  3.0710  1.9028  1.8923
  109OSM   C14F11272   2.515   2.556   8.933  0.0556  0.2245 -0.0907
  109OSM   H14F11273   2.605   2.594   8.985  0.8677 -2.6803  0.8319
  109OSM   H14G11274   2.448   2.642   8.909  0.3980  0.6097  0.3228
  109OSM   C15F11275   2.565   2.485   8.805  0.0723 -0.7369  0.8773
  109OSM   H15F11276   2.587   2.555   8.721  0.5162 -0.0088  1.5841
  109OSM   H15G11277   2.489   2.412   8.768  1.4585 -0.1736 -3.7118
  109OSM   C16F11278   2.695   2.410   8.843  0.6998 -0.7206 -0.2258
  109OSM   H16F11279   2.691   2.361   8.942  5.0303  1.1550  1.1126
  109OSM   H16G11280   2.783   2.478   8.848  1.1125 -1.2889  0.4437
  109OSM   C17F11281   2.715   2.290   8.743  0.2346 -0.8967 -0.8839
  109OSM   H17F11282   2.819   2.252   8.741  0.2549 -0.9491  0.3024
  109OSM   H17G11283   2.695   2.340   8.646 -3.3335  0.1999  0.2476
  109OSM   C18F11284   2.621   2.168   8.753 -0.7647  0.3396 -0.4696
  109OSM   H18F11285   2.649   2.117   8.848  0.6917  1.5138 -0.2387
  109OSM   H18G11286   2.638   2.087   8.679 -1.2541 -1.4323  1.2361
  109OSM   H18H11287   2.511   2.183   8.759 -0.9519 -1.2908  1.9491
  110OSM      N11288   5.837   0.199  10.996  0.3311 -0.0690  0.4182
  110OSM    C1511289   5.833   0.098  11.103  0.8357  0.1055  0.5464
  110OSM   H15A11290   5.830   0.002  11.054  2.5216  0.6641 -0.7624
  110OSM   H15B11291   5.739   0.102  11.156  0.0433 -1.1917 -0.6795
  110OSM   H15C11292   5.920   0.094  11.166  0.0757 -1.2496  1.5683
  110OSM    C1411293   5.979   0.202  10.940 -0.1185  0.0997  0.3807
  110OSM   H14A11294   6.046   0.235  11.018  3.1582  2.5208 -3.0953
  110OSM   H14B11295   5.979   0.273  10.859  0.1509  1.4090  1.4884
  110OSM   H14C11296   6.019   0.109  10.901  1.9407  1.4135 -0.8240
  110OSM    C1311297   5.737   0.167  10.891  0.0135  0.2820 -0.3712
  110OSM   H13A11298   5.720   0.258  10.836  0.6567  1.8629  1.9332
  110OSM   H13B11299   5.642   0.136  10.932  0.5845  0.1512  0.8974
  110OSM   H13C11300   5.777   0.085  10.832  1.2947  0.4473  0.2343
  110OSM    C1211301   5.805   0.332  11.059 -0.5443  0.3684 -0.1241
  110OSM   H12A11302   5.884   0.369  11.122 -0.6396 -0.6190  0.5892
  110OSM   H12B11303   5.719   0.309  11.120 -0.8003 -1.4191 -1.0909
  110OSM    C1111304   5.784   0.447  10.952  0.2712  0.0456 -0.2581
  110OSM   H11A11305   5.862   0.430  10.875 -0.4917 -0.3259 -0.9620
  110OSM   H11B11306   5.800   0.549  10.994 -0.0896  0.4843 -1.1550
  110OSM      P11307   5.523   0.463  10.953  0.0748 -0.2236 -0.2637
  110OSM    O1311308   5.403   0.410  10.883 -0.1121  0.5067 -0.4241
  110OSM    O1411309   5.538   0.421  11.094  0.3882  0.1568  0.0977
  110OSM    O1111310   5.521   0.621  10.940  0.0537 -0.1510 -0.2579
  110OSM    O1211311   5.661   0.435  10.880  0.1606 -0.1679  0.5139
  110OSM    C1S11312   5.549   0.693  10.822 -0.5831  0.4766  0.9335
  110OSM    H1S11313   5.637   0.649  10.770  1.2602  0.8823  3.5082
  110OSM    H1T11314   5.587   0.792  10.854  1.6927 -0.0611  0.0829
  110OSM     NF11315   5.493   0.802  10.614 -0.4407  0.4769  0.4036
  110OSM    HNF11316   5.474   0.898  10.631 -0.8574  0.1568  1.9789
  110OSM    C2S11317   5.436   0.717  10.717  0.7574 -0.0487 -0.3374
  110OSM    H2S11318   5.405   0.622  10.669  1.4041  0.2770 -1.4392
  110OSM    C3S11319   5.308   0.779  10.785  0.1103  0.0815  0.9556
  110OSM    H3S11320   5.338   0.876  10.831 -0.2053  0.6864 -0.0916
  110OSM     O311321   5.258   0.708  10.899 -0.1529  0.1916  0.3851
  110OSM    HO311322   5.335   0.657  10.925  0.7259  2.0948  1.7601
  110OSM    C4S11323   5.207   0.818  10.680  0.0883 -0.6349 -0.0701
  110OSM    H4S11324   5.124   0.752  10.650 -1.1229  1.1287 -0.7619
  110OSM    C5S11325   5.196   0.939  10.620 -0.0209  0.3277 -0.3049
  110OSM    H5S11326   5.260   1.018  10.662  1.0222 -0.5560 -0.1829
  110OSM    C6S11327   5.086   0.968  10.524 -0.0759 -0.0760  0.4100
  110OSM    H6S11328   5.036   1.059  10.562 -0.0537  0.2640 -0.3442
  110OSM    H6T11329   5.016   0.882  10.525  0.0777 -0.1980  1.3594
  110OSM    C7S11330   5.160   1.003  10.388 -0.0269  0.8132 -0.3887
  110OSM    H7S11331   5.246   0.934  10.379  1.2979  1.7206  3.4144
  110OSM    H7T11332   5.217   1.097  10.400  1.6685 -0.0955 -1.0166
  110OSM    C8S11333   5.079   1.016  10.268 -0.1633 -0.1325 -0.1112
  110OSM    H8S11334   5.007   1.101  10.266 -0.2272 -0.1840 -1.9717
  110OSM    H8T11335   5.027   0.920  10.249 -1.2414  0.5542 -0.7817
  110OSM    C9S11336   5.175   1.030  10.145 -0.4976  0.6230  0.4443
  110OSM    H9S11337   5.268   0.969  10.152 -0.1247  1.0504 -0.6473
  110OSM    H9T11338   5.213   1.133  10.135  1.2022 -0.1536 -1.9558
  110OSM   C10S11339   5.093   1.006  10.019  0.5254  0.7114  0.0844
  110OSM   H10S11340   5.013   1.080   9.999 -0.7101 -1.1301 -2.1830
  110OSM   H10T11341   5.037   0.911  10.031 -2.5594  2.6152  2.1923
  110OSM   C11S11342   5.174   0.999   9.888 -0.4053 -0.4488 -0.2781
  110OSM   H11S11343   5.255   0.925   9.905  0.9510  0.5639 -1.9858
  110OSM   H11T11344   5.226   1.097   9.882  2.3364 -1.3649  3.7655
  110OSM   C12S11345   5.084   0.973   9.766 -0.1938  0.3058 -1.2453
  110OSM   H12S11346   4.987   1.020   9.791 -0.5071 -1.1260  0.3997
  110OSM   H12T11347   5.069   0.864   9.769 -1.7821  0.5125  2.0070
  110OSM   C13S11348   5.147   1.009   9.633 -0.1768  0.2674  1.3373
  110OSM   H13S11349   5.241   0.950   9.628 -0.2389  0.1818  1.1672
  110OSM   H13T11350   5.165   1.117   9.617 -3.1846  0.5880 -0.9336
  110OSM   C14S11351   5.064   0.965   9.506 -0.9290 -0.0694 -0.2853
  110OSM   H14S11352   4.960   1.002   9.524 -0.1190  0.8018  3.3242
  110OSM   H14T11353   5.061   0.855   9.498 -0.9790 -0.0483 -0.5892
  110OSM   C15S11354   5.106   1.037   9.379 -0.3306  0.5953  0.4573
  110OSM   H15S11355   5.215   1.033   9.360 -0.5094 -4.3543 -1.0038
  110OSM   H15T11356   5.077   1.144   9.384  1.3391  1.0486  1.0960
  110OSM   C16S11357   5.054   0.969   9.249 -0.0180  0.1696 -0.2847
  110OSM   H16S11358   5.112   0.875   9.232 -0.2457 -0.1951  0.8571
  110OSM   H16T11359   5.064   1.041   9.165 -2.3553  1.4458  0.4764
  110OSM   C17S11360   4.897   0.954   9.258 -0.9401  0.1586  0.0486
  110OSM   H17S11361   4.841   1.031   9.315  0.1002  1.1821 -0.2779
  110OSM   H17T11362   4.875   0.854   9.303 -1.0160  0.0581 -0.2080
  110OSM   C18S11363   4.844   0.948   9.116  0.3616 -0.7705 -0.2086
  110OSM   H18S11364   4.733   0.937   9.113  0.0251  1.3741  1.5605
  110OSM   H18T11365   4.896   0.876   9.050  0.1981  0.5623 -1.8518
  110OSM   H18U11366   4.870   1.045   9.069 -0.2376 -1.0357 -1.1296
  110OSM    C1F11367   5.583   0.760  10.524  0.2547 -0.5246 -0.0475
  110OSM     OF11368   5.615   0.640  10.522  0.5797  0.1353  0.4298
  110OSM    C2F11369   5.651   0.864  10.441  0.4727  0.2866 -0.3565
  110OSM    H2F11370   5.732   0.917  10.495 -0.0257 -0.2492  0.9563
  110OSM    H2G11371   5.567   0.929  10.410  0.5520 -0.2762 -1.8661
  110OSM    C3F11372   5.707   0.788  10.316 -0.6065  0.3906 -0.3328
  110OSM    H3F11373   5.773   0.702  10.342  1.4993  2.3105  1.0322
  110OSM    H3G11374   5.777   0.858  10.267  0.0154 -0.4748 -0.7082
  110OSM    C4F11375   5.598   0.742  10.213  0.7174 -0.0005  0.4421
  110OSM    H4F11376   5.518   0.819  10.206  0.7351  0.3030  2.8477
  110OSM    H4G11377   5.550   0.649  10.249  2.1291  0.3904  3.6847
  110OSM    C5F11378   5.652   0.711  10.070 -0.3088 -0.1492  0.4563
  110OSM    H5F11379   5.716   0.622  10.085  0.9688  0.5467 -0.6294
  110OSM    H5G11380   5.726   0.789  10.040 -1.5757  0.4294 -1.3479
  110OSM    C6F11381   5.544   0.679   9.971  0.2369  0.1069 -0.5193
  110OSM    H6F11382   5.455   0.742   9.993  0.5679 -0.3117  2.4348
  110OSM    H6G11383   5.525   0.569   9.971 -1.2070  0.3376 -0.2422
  110OSM    C7F11384   5.580   0.726   9.831 -0.8255 -1.0879  0.2401
  110OSM    H7F11385   5.603   0.652   9.752  0.8659 -0.5648  0.2013
  110OSM    H7G11386   5.682   0.771   9.840 -0.2636 -1.8157 -1.9105
  110OSM    C8F11387   5.484   0.828   9.765  0.0211  0.3231 -0.1920
  110OSM    H8F11388   5.448   0.904   9.838 -2.1532 -0.1405 -0.7083
  110OSM    H8G11389   5.398   0.768   9.729  0.3845 -0.7049  0.6128
  110OSM    C9F11390   5.562   0.910   9.661  0.6127 -0.4366 -0.2794
  110OSM    H9F11391   5.632   0.987   9.699  1.1831 -1.2277  0.3146
  110OSM   C10F11392   5.575   0.887   9.528  0.3645 -0.6044 -0.2579
  110OSM   H10F11393   5.628   0.959   9.465 -0.9053  0.7482  0.1607
  110OSM   C11F11394   5.500   0.768   9.458  0.2733  0.1466  0.2032
  110OSM   H11F11395   5.420   0.737   9.529 -0.3788  0.0292 -0.5691
  110OSM   H11G11396   5.566   0.682   9.436  0.9441  0.2508  1.6910
  110OSM   C12F11397   5.414   0.794   9.321  0.3658  0.5409 -0.6392
  110OSM   H12F11398   5.374   0.897   9.327 -1.3061 -0.0852 -0.4341
  110OSM   H12G11399   5.334   0.716   9.318  1.7979 -1.0414  0.2980
  110OSM   C13F11400   5.501   0.769   9.196  0.5114 -0.4789 -0.2911
  110OSM   H13F11401   5.547   0.668   9.208  1.8472  0.0943 -0.4206
  110OSM   H13G11402   5.586   0.840   9.190 -0.9512  1.4727  1.0169
  110OSM   C14F11403   5.403   0.773   9.079 -0.2251 -0.4322  0.3670
  110OSM   H14F11404   5.305   0.730   9.110 -0.3730  0.4066  1.1065
  110OSM   H14G11405   5.441   0.711   8.995  1.1987  0.4698  0.3206
  110OSM   C15F11406   5.387   0.917   9.018  0.7458  0.3527 -0.3335
  110OSM   H15F11407   5.488   0.962   9.021  2.1235 -2.4882 -0.0019
  110OSM   H15G11408   5.324   0.970   9.093  1.5237  1.6410 -0.5684
  110OSM   C16F11409   5.307   0.915   8.887 -0.1294 -0.1565 -0.0822
  110OSM   H16F11410   5.361   0.865   8.804 -3.0762 -2.3324 -0.8766
  110OSM   H16G11411   5.296   1.023   8.864 -1.8564 -0.7382 -2.3423
  110OSM   C17F11412   5.162   0.855   8.901  0.2529 -0.2204  0.0610
  110OSM   H17F11413   5.101   0.909   8.977 -0.1305 -0.8115  0.1871
  110OSM   H17G11414   5.172   0.746   8.918 -1.8717 -0.3965  0.4487
  110OSM   C18F11415   5.086   0.872   8.770  0.2933 -0.3133  0.0977
  110OSM   H18F11416   5.130   0.817   8.684  0.8373  0.5776 -0.1981
  110OSM   H18G11417   5.050   0.972   8.741 -4.8832 -2.5295 -2.3035
  110OSM   H18H11418   4.985   0.827   8.782  1.1688 -2.1813  1.0991
  111OSM      N11419   4.793   3.625  10.906 -0.4547 -0.8766  0.0077
  111OSM    C1511420   4.868   3.503  10.869  0.2355  0.0470  0.0151
  111OSM   H15A11421   4.931   3.485  10.954 -1.0540  0.8969  1.2029
  111OSM   H15B11422   4.928   3.523  10.781  1.5170  0.0711  0.8678
  111OSM   H15C11423   4.801   3.420  10.855 -0.4997  0.7933 -1.1172
  111OSM    C1411424   4.709   3.595  11.030  0.1786 -0.1104  0.1902
  111OSM   H14A11425   4.665   3.690  11.057  1.1812  0.3485  0.2476
  111OSM   H14B11426   4.767   3.544  11.105 -0.4675 -1.1049  0.0397
  111OSM   H14C11427   4.620   3.537  11.010 -0.1057  0.3148  0.2104
  111OSM    C1311428   4.885   3.733  10.939  0.4172  0.4102  0.0104
  111OSM   H13A11429   4.907   3.782  10.846  3.8681 -0.7898  0.0519
  111OSM   H13B11430   4.980   3.690  10.964 -0.2362 -0.8478  0.4097
  111OSM   H13C11431   4.852   3.805  11.013  0.1698 -0.9434  1.2691
  111OSM    C1211432   4.702   3.666  10.793 -0.4152  0.1779  0.4415
  111OSM   H12A11433   4.632   3.741  10.829 -2.3567 -0.9028 -0.8692
  111OSM   H12B11434   4.644   3.576  10.779 -0.7524 -0.1814  3.4736
  111OSM    C1111435   4.767   3.716  10.663  0.5097 -0.6914 -0.1074
  111OSM   H11A11436   4.698   3.708  10.577  0.2161  0.7064 -0.0238
  111OSM   H11B11437   4.852   3.647  10.642  0.5219 -0.2722 -1.5846
  111OSM      P11438   4.735   3.974  10.702  0.1657  0.4895  0.1486
  111OSM    O1311439   4.611   3.921  10.764  0.0266  0.4984 -1.1008
  111OSM    O1411440   4.814   4.072  10.772 -0.2943  0.6297 -0.4615
  111OSM    O1111441   4.693   4.026  10.558  0.3021 -0.0773  0.1827
  111OSM    O1211442   4.826   3.850  10.668  0.1258  0.2778  0.4787
  111OSM    C1S11443   4.779   4.102  10.476  0.5303 -0.1935  0.4163
  111OSM    H1S11444   4.890   4.089  10.482  0.5258 -1.0736 -0.9119
  111OSM    H1T11445   4.753   4.208  10.496  0.3737 -0.6489  2.8882
  111OSM     NF11446   4.859   4.127  10.246  0.1159 -0.4347  0.0965
  111OSM    HNF11447   4.843   4.216  10.204  0.6225  0.1922  1.2240
  111OSM    C2S11448   4.749   4.066  10.321  0.3998 -0.0803  0.0741
  111OSM    H2S11449   4.771   3.957  10.318 -2.4445 -0.8212  2.1036
  111OSM    C3S11450   4.607   4.102  10.274 -0.7811 -0.6603 -0.0082
  111OSM    H3S11451   4.605   4.213  10.270  0.1339 -0.6131  0.3817
  111OSM     O311452   4.503   4.061  10.368  0.1158 -0.3228 -0.1944
  111OSM    HO311453   4.560   4.035  10.441  0.9049  1.3456 -0.1596
  111OSM    C4S11454   4.578   4.044  10.135  0.1075 -0.0765  0.0201
  111OSM    H4S11455   4.602   4.106  10.047  2.4882 -1.7350 -0.6037
  111OSM    C5S11456   4.517   3.927  10.112  0.5965  0.1087 -0.1611
  111OSM    H5S11457   4.474   3.868  10.195 -2.4614  0.2904 -1.5056
  111OSM    C6S11458   4.479   3.888   9.974 -0.1914 -0.3795  1.0240
  111OSM    H6S11459   4.508   3.781   9.961  0.6765 -0.3207  2.2741
  111OSM    H6T11460   4.528   3.935   9.886 -4.7019  3.0726  0.0152
  111OSM    C7S11461   4.324   3.894   9.962  0.6401 -0.5185 -0.4275
  111OSM    H7S11462   4.288   3.999   9.973 -1.9378 -1.3920  0.1022
  111OSM    H7T11463   4.269   3.838  10.040 -0.7013  0.7254 -0.4362
  111OSM    C8S11464   4.279   3.831   9.831  0.0336  0.1564 -0.1647
  111OSM    H8S11465   4.170   3.818   9.850 -0.5407  1.8157 -1.9457
  111OSM    H8T11466   4.323   3.731   9.818  0.8529  0.0790  2.5463
  111OSM    C9S11467   4.306   3.918   9.707  0.1419  0.1377 -0.0571
  111OSM    H9S11468   4.414   3.942   9.703 -0.1185  1.2032 -1.2697
  111OSM    H9T11469   4.248   4.013   9.712  0.5288  0.3733 -0.0299
  111OSM   C10S11470   4.261   3.847   9.575 -0.9845  0.2647 -0.6365
  111OSM   H10S11471   4.160   3.807   9.594 -1.7635  2.1726 -0.5290
  111OSM   H10T11472   4.328   3.760   9.559 -1.3342 -0.0488 -0.4151
  111OSM   C11S11473   4.257   3.945   9.460 -0.3293  0.2820  0.0878
  111OSM   H11S11474   4.356   3.994   9.452 -1.0674  1.4925 -2.9787
  111OSM   H11T11475   4.182   4.023   9.483  0.2574  1.2003 -0.9812
  111OSM   C12S11476   4.206   3.882   9.331 -0.3638  0.5104  0.1190
  111OSM   H12S11477   4.119   3.816   9.351  1.0197 -2.5822 -3.0211
  111OSM   H12T11478   4.281   3.815   9.284 -1.5969 -0.1082 -1.0387
  111OSM   C13S11479   4.172   3.992   9.229  0.5659 -0.1641  0.1480
  111OSM   H13S11480   4.266   4.049   9.211  1.5197 -2.2682 -1.9783
  111OSM   H13T11481   4.094   4.059   9.272  0.7930 -0.9917  1.9658
  111OSM   C14S11482   4.126   3.933   9.093  0.2221  0.5162  0.3672
  111OSM   H14S11483   4.029   3.880   9.103  0.2267  0.0293 -1.6807
  111OSM   H14T11484   4.205   3.859   9.066  0.3373  0.7921 -0.0695
  111OSM   C15S11485   4.131   4.021   8.967  0.0693 -0.2331  0.3820
  111OSM   H15S11486   4.227   4.076   8.960  0.1808 -0.6586 -2.2334
  111OSM   H15T11487   4.051   4.097   8.975  0.3055  0.0831 -0.2309
  111OSM   C16S11488   4.103   3.954   8.836 -0.3339 -0.4040 -0.0429
  111OSM   H16S11489   4.012   3.892   8.854 -1.6075  1.5322  0.5434
  111OSM   H16T11490   4.180   3.878   8.808  0.9819  1.0482 -0.4901
  111OSM   C17S11491   4.069   4.045   8.720 -0.2974 -0.4695  0.3444
  111OSM   H17S11492   4.167   4.087   8.689  0.3930 -1.1766  1.4926
  111OSM   H17T11493   4.006   4.132   8.747  0.8775  0.7592 -0.7624
  111OSM   C18S11494   3.998   3.984   8.597 -0.0319 -0.5189  0.5218
  111OSM   H18S11495   3.959   4.063   8.529  1.3358 -0.8740 -0.7243
  111OSM   H18T11496   3.908   3.925   8.625  0.4509 -1.0675  0.9374
  111OSM   H18U11497   4.072   3.928   8.536  0.4483 -0.3442  0.9421
  111OSM    C1F11498   4.981   4.084  10.227  0.3444  1.0102 -0.1202
  111OSM     OF11499   5.028   3.993  10.293  0.2164  0.8760  0.1729
  111OSM    C2F11500   5.069   4.164  10.139  0.9577 -0.5914  0.2018
  111OSM    H2F11501   5.172   4.161  10.179  1.4223  0.3495 -0.8701
  111OSM    H2G11502   5.030   4.268  10.132 -1.3951 -1.5132 -3.8376
  111OSM    C3F11503   5.071   4.103   9.990  0.0646 -0.1245 -0.1066
  111OSM    H3F11504   5.133   4.012   9.979 -0.5243 -0.7540  1.5437
  111OSM    H3G11505   5.123   4.170   9.918  1.1966  1.5084  2.0951
  111OSM    C4F11506   4.932   4.067   9.941  0.3243  0.3411  0.0979
  111OSM    H4F11507   4.872   4.160   9.946  2.5432  1.8262  0.6893
  111OSM    H4G11508   4.883   3.994  10.009 -1.1364  1.0654 -0.1461
  111OSM    C5F11509   4.959   4.010   9.795 -0.8499  0.2040 -0.0535
  111OSM    H5F11510   5.028   4.069   9.733  0.4483 -1.3052 -0.1181
  111OSM    H5G11511   4.854   4.011   9.758 -1.6538  0.9627  2.0535
  111OSM    C6F11512   5.001   3.867   9.794 -0.1262  0.0699  0.3436
  111OSM    H6F11513   4.940   3.805   9.864  0.9704 -0.7971  0.5586
  111OSM    H6G11514   5.109   3.862   9.817  0.1599 -0.4162 -1.0246
  111OSM    C7F11515   4.977   3.797   9.662  0.3270 -0.4675  0.0308
  111OSM    H7F11516   5.081   3.772   9.632  0.3139 -1.6676  0.9190
  111OSM    H7G11517   4.934   3.873   9.594 -0.4413  0.1418  1.1878
  111OSM    C8F11518   4.889   3.670   9.682 -0.4458 -0.1222 -0.0143
  111OSM    H8F11519   4.927   3.617   9.772 -0.3736  0.4523  0.2981
  111OSM    H8G11520   4.918   3.605   9.597 -0.3612 -2.9028  2.0147
  111OSM    C9F11521   4.736   3.694   9.678 -0.4261 -0.1007  0.4576
  111OSM    H9F11522   4.707   3.695   9.784  0.7309 -0.8385  0.7953
  111OSM   C10F11523   4.656   3.728   9.578  0.2379  0.2054 -0.2180
  111OSM   H10F11524   4.550   3.747   9.598  0.3808 -0.0964  0.8526
  111OSM   C11F11525   4.705   3.747   9.431 -0.0035 -0.0307  0.4310
  111OSM   H11F11526   4.652   3.675   9.365 -0.6876  1.9709 -1.3171
  111OSM   H11G11527   4.814   3.730   9.423  0.0393  1.0604 -3.0085
  111OSM   C12F11528   4.671   3.888   9.380  0.0212 -0.0045  0.4129
  111OSM   H12F11529   4.742   3.964   9.419 -0.0068 -0.0924  0.6348
  111OSM   H12G11530   4.566   3.919   9.400 -0.3429 -0.6805 -0.4082
  111OSM   C13F11531   4.684   3.893   9.225  0.3016  0.6044 -0.3785
  111OSM   H13F11532   4.632   3.804   9.186  0.1901  0.1806  0.7092
  111OSM   H13G11533   4.793   3.892   9.201  1.0431 -0.5459  2.6218
  111OSM   C14F11534   4.620   4.013   9.167 -0.2596 -0.9086 -0.6957
  111OSM   H14F11535   4.686   4.101   9.182 -2.9263  1.5016 -1.9872
  111OSM   H14G11536   4.521   4.021   9.216 -1.4378 -3.0773 -2.5479
  111OSM   C15F11537   4.586   4.003   9.016 -0.6457  0.2494  0.1724
  111OSM   H15F11538   4.557   4.102   8.973  1.8812 -0.0630 -2.5870
  111OSM   H15G11539   4.497   3.939   8.997 -1.4208  0.7539  1.9333
  111OSM   C16F11540   4.707   3.962   8.935 -0.0859 -0.3770  0.0298
  111OSM   H16F11541   4.710   3.853   8.953 -0.2552 -0.0655  2.1152
  111OSM   H16G11542   4.791   4.013   8.987 -1.2340  2.9755 -1.1093
  111OSM   C17F11543   4.700   4.005   8.782 -0.5288 -0.1200  0.6197
  111OSM   H17F11544   4.792   3.962   8.736  0.3734 -0.2142  2.3962
  111OSM   H17G11545   4.701   4.116   8.785 -0.5622 -0.1308  3.0266
  111OSM   C18F11546   4.579   3.949   8.700 -0.1448 -1.2281 -0.3270
  111OSM   H18F11547   4.488   3.999   8.738  0.5490  0.4275 -0.7571
  111OSM   H18G11548   4.570   3.843   8.734 -0.7309 -0.9031  0.5712
  111OSM   H18H11549   4.607   3.958   8.593 -0.7720  0.7475 -0.3542
  112OSM      N11550   3.483   2.603  10.792 -0.2421  0.1695 -0.4230
  112OSM    C1511551   3.600   2.605  10.707  0.3755  0.2717  0.5028
  112OSM   H15A11552   3.583   2.563  10.608  2.4477  0.0938  0.1718
  112OSM   H15B11553   3.682   2.557  10.759  1.1003  0.0354 -0.8079
  112OSM   H15C11554   3.622   2.705  10.673  0.5426 -0.2355 -0.9834
  112OSM    C1411555   3.538   2.645  10.932 -0.0805  0.7589  0.2518
  112OSM   H14A11556   3.451   2.655  10.996  0.4707  1.1479  0.9616
  112OSM   H14B11557   3.589   2.740  10.936  2.1054 -0.3025 -1.1714
  112OSM   H14C11558   3.596   2.565  10.976  0.8501  1.2440 -0.0824
  112OSM    C1311559   3.368   2.690  10.737 -0.5663  0.6060  0.4510
  112OSM   H13A11560   3.398   2.793  10.726 -1.0307  0.6904 -0.0996
  112OSM   H13B11561   3.274   2.687  10.791 -1.0943 -0.1169 -0.4788
  112OSM   H13C11562   3.341   2.655  10.639  1.4042 -0.3604  0.2130
  112OSM    C1211563   3.428   2.458  10.801 -0.0011  0.0655  0.6069
  112OSM   H12A11564   3.511   2.394  10.829 -0.2389  0.3997  2.1630
  112OSM   H12B11565   3.402   2.420  10.703 -0.8369 -0.3878  0.9939
  112OSM    C1111566   3.311   2.411  10.890 -0.0750  0.0099  0.3748
  112OSM   H11A11567   3.352   2.419  10.993  1.3416  3.6240 -0.2950
  112OSM   H11B11568   3.280   2.306  10.873 -1.2659  0.2544  0.9425
  112OSM      P11569   3.073   2.466  10.799 -0.1394 -0.3912  0.4611
  112OSM    O1311570   2.982   2.379  10.878 -0.3856 -0.1297 -0.4392
  112OSM    O1411571   3.009   2.584  10.732  0.4859  0.4006 -0.2424
  112OSM    O1111572   3.140   2.377  10.686 -0.3595 -0.0900 -0.3270
  112OSM    O1211573   3.200   2.497  10.879 -0.3721 -0.0153  0.4210
  112OSM    C1S11574   3.061   2.299  10.598  0.1327 -0.0376  0.6377
  112OSM    H1S11575   2.954   2.329  10.589  0.6947  1.8659 -0.2385
  112OSM    H1T11576   3.063   2.192  10.628  0.8736 -0.9654 -2.3533
  112OSM     NF11577   3.024   2.229  10.353  0.2815 -0.0998 -0.2737
  112OSM    HNF11578   3.041   2.131  10.358  0.6089 -0.0246  0.1098
  112OSM    C2S11579   3.116   2.306  10.445 -0.5626  0.2212 -0.2299
  112OSM    H2S11580   3.122   2.414  10.422 -1.4598  0.3824  0.2412
  112OSM    C3S11581   3.257   2.248  10.433  0.1452  0.4837 -0.2354
  112OSM    H3S11582   3.260   2.142  10.465  1.3634 -0.3226 -2.7837
  112OSM     O311583   3.351   2.323  10.516 -0.2202 -0.0716 -0.1162
  112OSM    HO311584   3.295   2.374  10.576  1.1432  1.7258 -0.2556
  112OSM    C4S11585   3.320   2.260  10.297  0.2049  0.5256 -0.2002
  112OSM    H4S11586   3.360   2.361  10.280 -0.6049  0.8286 -0.3617
  112OSM    C5S11587   3.330   2.161  10.199 -0.9172 -0.1541  0.6151
  112OSM    H5S11588   3.279   2.065  10.214 -0.7300 -0.8155 -2.3860
  112OSM    C6S11589   3.395   2.174  10.060  0.0638  0.6323  0.2736
  112OSM    H6S11590   3.319   2.197   9.982  2.2790  1.8050 -1.6904
  112OSM    H6T11591   3.432   2.076  10.023 -1.6997 -0.7541  1.9843
  112OSM    C7S11592   3.502   2.278  10.039  0.1717 -0.1437  0.1112
  112OSM    H7S11593   3.596   2.276  10.098  0.4265  4.0961  0.1434
  112OSM    H7T11594   3.460   2.377  10.067  2.7076  1.1825 -0.5030
  112OSM    C8S11595   3.543   2.290   9.896 -0.3796 -0.0800 -0.1325
  112OSM    H8S11596   3.596   2.196   9.869 -1.0567 -0.3623 -0.4949
  112OSM    H8T11597   3.624   2.366   9.893  2.1027 -2.3662  1.9329
  112OSM    C9S11598   3.436   2.341   9.804 -0.7261  0.6591 -0.0831
  112OSM    H9S11599   3.392   2.428   9.858  1.1968  1.3953  0.3600
  112OSM    H9T11600   3.363   2.261   9.782 -1.2666  1.5132 -1.5423
  112OSM   C10S11601   3.489   2.387   9.669 -0.0150 -0.0228 -0.1907
  112OSM   H10S11602   3.541   2.306   9.613 -0.7660 -0.8730  0.3116
  112OSM   H10T11603   3.564   2.467   9.681  0.0557  0.1063 -1.4040
  112OSM   C11S11604   3.371   2.449   9.582 -0.1748 -0.0332 -0.0055
  112OSM   H11S11605   3.316   2.528   9.637 -0.2674 -0.9398  1.2383
  112OSM   H11T11606   3.302   2.363   9.568  0.9990 -1.1042  0.6287
  112OSM   C12S11607   3.419   2.521   9.453 -0.2491  0.1025 -0.3438
  112OSM   H12S11608   3.463   2.440   9.391  1.3029  0.5838  0.0887
  112OSM   H12T11609   3.500   2.595   9.472 -0.9465  0.9619 -0.6651
  112OSM   C13S11610   3.310   2.595   9.377  0.1660 -1.0891  0.6596
  112OSM   H13S11611   3.259   2.669   9.443  0.7283 -0.0628 -0.0171
  112OSM   H13T11612   3.231   2.529   9.337 -1.0469  1.8879 -2.4074
  112OSM   C14S11613   3.360   2.651   9.236 -0.7905  0.0982 -0.3219
  112OSM   H14S11614   3.347   2.574   9.157  3.0022 -1.7610  0.6337
  112OSM   H14T11615   3.470   2.669   9.236 -1.0585  2.0520 -2.3543
  112OSM   C15S11616   3.299   2.785   9.200  0.5441 -0.5781 -0.2905
  112OSM   H15S11617   3.323   2.868   9.270  0.6603  0.9631 -2.1028
  112OSM   H15T11618   3.188   2.785   9.192  0.3531  1.7816  1.2706
  112OSM   C16S11619   3.358   2.826   9.061 -0.2724  0.2757 -0.7734
  112OSM   H16S11620   3.320   2.744   8.997 -1.3131 -0.4836  0.7619
  112OSM   H16T11621   3.469   2.827   9.060 -0.2685 -0.1421 -1.3114
  112OSM   C17S11622   3.325   2.967   9.015  0.2353 -0.1187 -0.3410
  112OSM   H17S11623   3.354   3.036   9.097  0.7734 -1.0012  0.2327
  112OSM   H17T11624   3.215   2.977   9.006  0.2086  0.7234  0.6670
  112OSM   C18S11625   3.388   2.990   8.873  0.3874  0.3952 -0.2969
  112OSM   H18S11626   3.347   3.077   8.818 -1.8293 -1.5175 -1.8603
  112OSM   H18T11627   3.380   2.901   8.808 -0.8517 -1.7664  2.5721
  112OSM   H18U11628   3.493   3.017   8.897 -0.2790  0.6573  2.6939
  112OSM    C1F11629   2.900   2.275  10.312 -0.7045  0.1260 -0.9417
  112OSM     OF11630   2.874   2.394  10.340 -0.3111  0.2513  0.5080
  112OSM    C2F11631   2.810   2.180  10.244 -0.2867  0.1439 -0.2086
  112OSM    H2F11632   2.717   2.174  10.305  0.9474  3.4527  2.3004
  112OSM    H2G11633   2.858   2.082  10.223  3.0207  1.6169 -0.1025
  112OSM    C3F11634   2.769   2.242  10.114  0.3216  0.4908  0.6807
  112OSM    H3F11635   2.701   2.327  10.136  1.4848  1.6683 -0.1207
  112OSM    H3G11636   2.714   2.164  10.057  1.6154 -0.3888  0.5641
  112OSM    C4F11637   2.867   2.301  10.009  0.2591 -0.7044  0.2833
  112OSM    H4F11638   2.929   2.375  10.065 -0.4118  0.7984 -0.9005
  112OSM    H4G11639   2.824   2.356   9.923 -1.8051 -0.2840  1.5051
  112OSM    C5F11640   2.975   2.194   9.959  1.0957 -0.6006  0.0370
  112OSM    H5F11641   2.919   2.100   9.937  2.5915 -1.5463  0.1363
  112OSM    H5G11642   3.052   2.172  10.035  0.8524  1.3910  0.9123
  112OSM    C6F11643   3.036   2.240   9.828  0.0881  0.3098 -0.2828
  112OSM    H6F11644   3.145   2.218   9.825 -0.2923 -1.9098  0.2258
  112OSM    H6G11645   3.032   2.351   9.830 -2.4273  0.2992 -1.2381
  112OSM    C7F11646   2.975   2.174   9.702 -0.0592  0.3542  0.6838
  112OSM    H7F11647   2.873   2.212   9.679 -0.4593 -0.4664  1.0671
  112OSM    H7G11648   2.966   2.066   9.727 -1.2299  0.5075  0.9987
  112OSM    C8F11649   3.058   2.199   9.577  0.1096  0.4484  0.0398
  112OSM    H8F11650   3.157   2.149   9.585 -0.0858  0.3279  2.5195
  112OSM    H8G11651   3.084   2.306   9.565 -1.0944  0.7645  0.1414
  112OSM    C9F11652   2.982   2.154   9.456 -0.0028  0.1688 -0.3662
  112OSM    H9F11653   2.935   2.055   9.470 -1.7439  0.5025 -3.1560
  112OSM   C10F11654   2.958   2.223   9.346 -0.8449  0.3008  0.1243
  112OSM   H10F11655   2.904   2.167   9.267  0.1638 -0.5195 -0.0017
  112OSM   C11F11656   3.008   2.356   9.305 -0.2020 -0.0272 -0.0459
  112OSM   H11F11657   3.087   2.349   9.227 -0.8890  1.0226 -0.8622
  112OSM   H11G11658   3.041   2.423   9.387 -3.4146  2.2584 -0.4515
  112OSM   C12F11659   2.904   2.442   9.235  0.2234 -0.0213 -0.4097
  112OSM   H12F11660   2.846   2.484   9.319  1.4894  1.0233 -0.0363
  112OSM   H12G11661   2.824   2.394   9.174  1.6915  0.2077 -2.6555
  112OSM   C13F11662   2.972   2.556   9.162 -0.0818  0.0452  0.0529
  112OSM   H13F11663   3.031   2.517   9.076 -3.3643  0.4588 -2.5561
  112OSM   H13G11664   3.038   2.617   9.227  0.4939  1.8894 -2.1453
  112OSM   C14F11665   2.864   2.646   9.090  0.4394 -0.2693  0.1033
  112OSM   H14F11666   2.793   2.671   9.172  1.1017  2.1526 -0.0053
  112OSM   H14G11667   2.814   2.582   9.014 -1.9409  0.6563  0.8097
  112OSM   C15F11668   2.921   2.770   9.014 -0.3545  0.5331  0.1024
  112OSM   H15F11669   2.987   2.810   9.093 -2.8658  0.2974  2.4628
  112OSM   H15G11670   2.841   2.844   8.989 -0.4920  0.0710 -0.9016
  112OSM   C16F11671   2.996   2.723   8.884 -0.0645  0.3068  0.2664
  112OSM   H16F11672   2.932   2.642   8.843 -1.3163  2.3662 -2.1017
  112OSM   H16G11673   3.097   2.676   8.894 -0.0702 -1.2838 -4.6669
  112OSM   C17F11674   3.014   2.833   8.775  0.6821 -0.1159  0.0309
  112OSM   H17F11675   3.062   2.799   8.681 -0.5471  1.4832 -1.2530
  112OSM   H17G11676   3.069   2.924   8.806  1.3382 -0.1242 -1.0649
  112OSM   C18F11677   2.875   2.883   8.715 -0.0201 -0.2109  0.2708
  112OSM   H18F11678   2.887   2.952   8.629 -0.4559  1.2697  1.3643
  112OSM   H18G11679   2.822   2.937   8.796 -0.7077 -1.1090  0.4446
  112OSM   H18H11680   2.806   2.798   8.693  0.1768 -0.0246 -1.1633
  113OSM      N11681   6.169   4.870  11.303  0.0867 -0.1364  0.5772
  113OSM    C1511682   6.315   4.904  11.293 -0.6917 -0.1295  0.2925
  113OSM   H15A11683   6.347   4.942  11.389  0.5464 -0.1181 -0.1098
  113OSM   H15B11684   6.334   4.973  11.212 -1.3196  0.5066  0.6796
  113OSM   H15C11685   6.384   4.824  11.269  2.9194  2.9014 -0.5294
  113OSM    C1411686   6.153   4.760  11.396 -0.3044  0.0088  0.0420
  113OSM   H14A11687   6.184   4.785  11.496 -1.1592 -2.5685  1.0329
  113OSM   H14B11688   6.220   4.680  11.367 -2.0177 -1.1247 -0.9734
  113OSM   H14C11689   6.056   4.716  11.379  0.2422 -0.2120 -3.3044
  113OSM    C1311690   6.092   4.988  11.345 -0.7694  0.3595  0.4559
  113OSM   H13A11691   6.112   5.073  11.281  1.2928  0.8484  1.6656
  113OSM   H13B11692   6.118   5.007  11.447  0.5450  1.0040  0.0152
  113OSM   H13C11693   5.986   4.964  11.338 -0.4191 -0.9366 -1.0511
  113OSM    C1211694   6.116   4.828  11.162  0.1055 -0.2025 -0.6292
  113OSM   H12A11695   6.010   4.807  11.165 -0.0294  0.1725 -2.0619
  113OSM   H12B11696   6.174   4.742  11.135  1.4999  1.1665 -2.1454
  113OSM    C1111697   6.146   4.938  11.049 -0.1266 -0.1787 -0.3520
  113OSM   H11A11698   6.112   5.037  11.084  1.9952  0.9246 -1.2347
  113OSM   H11B11699   6.089   4.920  10.955  0.4810  2.4986 -1.3286
  113OSM      P11700   6.346   4.826  10.940 -0.2051 -0.2836  0.2600
  113OSM    O1311701   6.482   4.790  11.002 -0.0086 -0.0503  0.1911
  113OSM    O1411702   6.258   4.712  10.927  0.2245 -0.2916 -0.5272
  113OSM    O1111703   6.380   4.870  10.795  0.6655 -0.3159  0.0315
  113OSM    O1211704   6.290   4.946  11.023  0.7653 -0.6999  0.3999
  113OSM    C1S11705   6.264   4.930  10.726 -0.4648 -0.5360 -0.2752
  113OSM    H1S11706   6.258   5.034  10.765  1.7925  0.0718 -1.3985
  113OSM    H1T11707   6.168   4.877  10.747 -0.4590 -0.3319  0.2762
  113OSM     NF11708   6.174   4.988  10.507  0.6970  0.1875  0.7420
  113OSM    HNF11709   6.105   4.939  10.454 -1.4250  0.9949  2.6066
  113OSM    C2S11710   6.280   4.922  10.571  0.0510  0.3714  0.0917
  113OSM    H2S11711   6.379   4.964  10.544 -1.4182  2.6729 -2.1677
  113OSM    C3S11712   6.288   4.768  10.525  0.2776  0.0423  0.3817
  113OSM    H3S11713   6.186   4.723  10.520  0.8071 -1.1959  0.4598
  113OSM     O311714   6.368   4.681  10.605 -0.7538  0.3526  0.0859
  113OSM    HO311715   6.391   4.732  10.683  1.8433 -1.1474  0.4459
  113OSM    C4S11716   6.337   4.768  10.384 -0.6043  0.1348 -0.0295
  113OSM    H4S11717   6.253   4.758  10.313  0.1881 -2.5124 -0.6998
  113OSM    C5S11718   6.466   4.777  10.341  0.4816 -0.7050 -0.3550
  113OSM    H5S11719   6.549   4.762  10.411 -0.6274  2.9351  2.0454
  113OSM    C6S11720   6.514   4.777  10.194 -0.3784 -0.1967  0.1045
  113OSM    H6S11721   6.588   4.694  10.190 -2.5935 -2.2617 -0.5285
  113OSM    H6T11722   6.565   4.872  10.170  0.5079 -0.7893 -0.3947
  113OSM    C7S11723   6.412   4.735  10.092 -0.2019  0.8472 -0.1270
  113OSM    H7S11724   6.328   4.805  10.080 -0.5961  0.2046 -1.4040
  113OSM    H7T11725   6.372   4.634  10.117  0.1463  1.3655  2.8400
  113OSM    C8S11726   6.460   4.725   9.946 -0.8694  0.7221 -0.2714
  113OSM    H8S11727   6.557   4.671   9.935 -0.8702  1.1482 -3.3190
  113OSM    H8T11728   6.476   4.830   9.916  3.2355 -0.2903 -2.3733
  113OSM    C9S11729   6.367   4.661   9.841 -0.5947  0.3483 -0.6181
  113OSM    H9S11730   6.282   4.731   9.827 -0.4717  1.1764  2.1357
  113OSM    H9T11731   6.334   4.563   9.879  0.7621 -0.1721 -0.7207
  113OSM   C10S11732   6.438   4.626   9.710  0.1451 -0.3979 -0.7245
  113OSM   H10S11733   6.518   4.559   9.746  0.3676  0.9382  1.4439
  113OSM   H10T11734   6.490   4.717   9.672  0.5753  0.9428  2.7483
  113OSM   C11S11735   6.356   4.570   9.604 -0.1847  0.0745 -0.2165
  113OSM   H11S11736   6.266   4.633   9.588 -1.2109 -1.0414  0.9024
  113OSM   H11T11737   6.309   4.474   9.635 -1.2164 -0.4346 -3.0596
  113OSM   C12S11738   6.431   4.564   9.475  0.3942  0.0887  0.2237
  113OSM   H12S11739   6.475   4.663   9.449  0.4722  0.1894  0.7382
  113OSM   H12T11740   6.362   4.548   9.390  1.9184  0.2829 -1.1156
  113OSM   C13S11741   6.541   4.455   9.461 -0.3207 -0.6296  0.2923
  113OSM   H13S11742   6.501   4.359   9.500  0.6619 -0.9504  0.5337
  113OSM   H13T11743   6.622   4.489   9.530 -1.2995 -1.5756  1.9535
  113OSM   C14S11744   6.599   4.452   9.325 -0.2672 -0.0604 -0.0535
  113OSM   H14S11745   6.703   4.412   9.334  0.6455  1.1553 -3.4556
  113OSM   H14T11746   6.605   4.551   9.275  1.4093  1.4086  2.7796
  113OSM   C15S11747   6.519   4.352   9.243 -0.2508 -0.7035  0.2255
  113OSM   H15S11748   6.414   4.383   9.258 -1.0019 -1.9816 -1.9299
  113OSM   H15T11749   6.531   4.250   9.286  1.5608  0.2050  2.0462
  113OSM   C16S11750   6.562   4.338   9.092  1.1932 -0.0877  0.1676
  113OSM   H16S11751   6.506   4.250   9.055  0.9047  0.5099 -0.8645
  113OSM   H16T11752   6.672   4.327   9.080  0.9823 -2.0415 -0.2821
  113OSM   C17S11753   6.497   4.444   9.003 -0.8673  0.1131 -1.0593
  113OSM   H17S11754   6.557   4.536   9.010 -1.0857  0.2067 -0.2802
  113OSM   H17T11755   6.402   4.468   9.056 -1.7497  0.7755 -2.8631
  113OSM   C18S11756   6.480   4.399   8.856  0.5124 -1.1216 -0.2783
  113OSM   H18S11757   6.428   4.477   8.795  1.2518 -0.3245  0.0766
  113OSM   H18T11758   6.425   4.304   8.841 -1.6242 -0.5925  3.1473
  113OSM   H18U11759   6.580   4.404   8.807  0.4025 -1.0933 -0.4996
  113OSM    C1F11760   6.169   5.125  10.513  0.5219  0.7815 -0.7390
  113OSM     OF11761   6.258   5.188  10.573  0.1272  0.3605  0.6150
  113OSM    C2F11762   6.048   5.198  10.448 -0.5712  0.2403 -0.0080
  113OSM    H2F11763   6.007   5.274  10.517  1.1261  0.8504  0.3703
  113OSM    H2G11764   5.968   5.123  10.429 -0.7970  0.0536  1.5564
  113OSM    C3F11765   6.103   5.271  10.320 -0.4454  0.1028 -0.1836
  113OSM    H3F11766   6.178   5.342  10.361 -0.6860 -0.5796  1.5331
  113OSM    H3G11767   6.022   5.334  10.277 -1.5584 -1.5184 -0.5779
  113OSM    C4F11768   6.154   5.179  10.211 -0.0042  0.1888 -0.2216
  113OSM    H4F11769   6.069   5.115  10.178 -0.9436  0.6312  1.2667
  113OSM    H4G11770   6.239   5.113  10.239 -0.4884 -0.3384  0.0163
  113OSM    C5F11771   6.191   5.242  10.080  0.0572  0.5153  0.9507
  113OSM    H5F11772   6.275   5.311  10.100  0.1372  0.8086 -0.2765
  113OSM    H5G11773   6.117   5.315  10.041  0.7751 -0.5127 -2.8135
  113OSM    C6F11774   6.211   5.145   9.962  0.2331  0.4221  0.0156
  113OSM    H6F11775   6.110   5.114   9.926  0.8911  1.1508 -2.6803
  113OSM    H6G11776   6.261   5.050   9.988 -0.8576  0.2585  1.6560
  113OSM    C7F11777   6.286   5.217   9.844  0.0007 -0.1204 -0.0114
  113OSM    H7F11778   6.387   5.239   9.884 -0.3822  1.0127  0.3542
  113OSM    H7G11779   6.260   5.322   9.822  1.1923 -0.1525 -1.8216
  113OSM    C8F11780   6.308   5.134   9.712 -0.0499  0.1675 -0.3255
  113OSM    H8F11781   6.338   5.032   9.742 -0.7937  0.3005  0.9597
  113OSM    H8G11782   6.391   5.182   9.656 -0.3783  0.3356 -0.6687
  113OSM    C9F11783   6.175   5.120   9.639  0.4917  0.1728 -0.2243
  113OSM    H9F11784   6.121   5.029   9.671 -0.3011  0.4876 -0.6300
  113OSM   C10F11785   6.123   5.214   9.555  0.3580  0.3904 -0.4242
  113OSM   H10F11786   6.016   5.204   9.534  0.4391 -1.8065  0.0203
  113OSM   C11F11787   6.192   5.341   9.517 -0.6894 -0.4768 -0.3001
  113OSM   H11F11788   6.256   5.365   9.605 -0.3593  1.4964 -1.0333
  113OSM   H11G11789   6.125   5.428   9.501  0.4642  0.6490  0.7679
  113OSM   C12F11790   6.282   5.333   9.391 -0.0857  0.2345 -0.1219
  113OSM   H12F11791   6.376   5.277   9.412 -1.0514 -1.5119 -0.3264
  113OSM   H12G11792   6.310   5.435   9.355 -1.7605  0.7730  0.0489
  113OSM   C13F11793   6.213   5.278   9.269 -0.3496 -0.6071  0.4612
  113OSM   H13F11794   6.120   5.338   9.256 -0.2419 -0.6333 -0.4625
  113OSM   H13G11795   6.183   5.173   9.290  0.3716 -1.1536 -1.1230
  113OSM   C14F11796   6.288   5.287   9.137 -0.4990  0.3943  0.6040
  113OSM   H14F11797   6.345   5.192   9.131 -0.8728  0.1963  0.1014
  113OSM   H14G11798   6.354   5.374   9.121  0.0080 -0.1835 -0.5335
  113OSM   C15F11799   6.196   5.286   9.014  0.5571  0.0406  0.0696
  113OSM   H15F11800   6.134   5.378   9.015 -2.1470 -1.6100 -1.9338
  113OSM   H15G11801   6.133   5.195   9.016  0.7531 -0.0855  0.4131
  113OSM   C16F11802   6.271   5.288   8.878  0.2950  0.1683  1.1482
  113OSM   H16F11803   6.324   5.199   8.839 -1.4727  0.6693 -2.9758
  113OSM   H16G11804   6.333   5.380   8.880 -2.5053  2.1979  3.6740
  113OSM   C17F11805   6.170   5.322   8.763  0.1174 -0.8254  0.2507
  113OSM   H17F11806   6.218   5.330   8.663  0.1923  3.3107  0.4129
  113OSM   H17G11807   6.114   5.416   8.783  0.3096 -0.6070 -0.2322
  113OSM   C18F11808   6.064   5.214   8.756 -0.2402 -0.0788 -0.1207
  113OSM   H18F11809   5.989   5.224   8.674  1.1229  1.0217 -1.2745
  113OSM   H18G11810   6.009   5.217   8.853 -0.0503 -1.6158  0.0599
  113OSM   H18H11811   6.123   5.120   8.751  0.9441  0.4900  1.8920
  114OSM      N11812   0.289   1.702  11.130  0.0997  0.7735  0.6953
  114OSM    C1511813   0.422   1.757  11.080 -0.5196  0.5247 -0.0891
  114OSM   H15A11814   0.412   1.864  11.065  0.8223  0.7385  0.3643
  114OSM   H15B11815   0.453   1.714  10.987 -0.9297 -1.0601  0.4732
  114OSM   H15C11816   0.507   1.748  11.146  0.1769  0.2096 -1.0230
  114OSM    C1411817   0.195   1.747  11.026 -0.0936 -0.0076  0.0649
  114OSM   H14A11818   0.178   1.853  11.012  0.3998 -0.0383 -0.8251
  114OSM   H14B11819   0.097   1.710  11.049 -0.4897 -0.2734 -1.9456
  114OSM   H14C11820   0.223   1.707  10.930 -0.1506 -1.5422  0.6576
  114OSM    C1311821   0.296   1.551  11.132 -0.0581 -0.2606 -0.3176
  114OSM   H13A11822   0.324   1.515  11.034  2.9670  0.8588  0.0325
  114OSM   H13B11823   0.200   1.504  11.148  1.0224 -2.1632  0.9115
  114OSM   H13C11824   0.362   1.514  11.208 -0.5644 -0.9079 -0.1804
  114OSM    C1211825   0.255   1.761  11.258 -0.2937  0.1331 -0.6098
  114OSM   H12A11826   0.329   1.729  11.329 -2.6658 -2.7117  0.8383
  114OSM   H12B11827   0.165   1.716  11.299 -0.5809  0.5023 -0.8217
  114OSM    C1111828   0.238   1.913  11.280 -0.2199 -0.2157  0.1559
  114OSM   H11A11829   0.327   1.976  11.254 -0.5715  0.4839  0.6035
  114OSM   H11B11830   0.215   1.921  11.388  0.0386  1.9929  0.1055
  114OSM      P11831  -0.010   2.016  11.265 -0.2920 -0.1678  0.0990
  114OSM    O1311832  -0.052   1.923  11.370  0.7035  0.3308  0.1629
  114OSM    O1411833  -0.008   2.159  11.302 -1.0578  0.1241  0.5875
  114OSM    O1111834  -0.105   2.003  11.140 -0.0586  0.0447  0.7116
  114OSM    O1211835   0.131   1.972  11.209  0.8662 -0.1081  0.0123
  114OSM    C1S11836  -0.072   2.038  11.008  0.3945  0.2628  0.4897
  114OSM    H1S11837   0.016   1.980  10.972 -0.9931 -0.1485 -2.4629
  114OSM    H1T11838  -0.043   2.145  11.003 -2.0794  1.0891  2.1830
  114OSM     NF11839  -0.179   2.035  10.788 -0.1474  0.3083 -0.4852
  114OSM    HNF11840  -0.182   2.127  10.751 -0.7453  0.6583  0.4183
  114OSM    C2S11841  -0.206   2.022  10.926 -0.0104  0.1416 -0.1433
  114OSM    H2S11842  -0.249   1.924  10.955  0.6467  0.0391  0.5083
  114OSM    C3S11843  -0.314   2.126  10.981 -0.6291 -0.1165  0.6282
  114OSM    H3S11844  -0.273   2.228  10.963  0.0166 -0.8314 -2.6045
  114OSM     O311845  -0.353   2.119  11.116 -0.1288  0.1043 -0.5429
  114OSM    HO311846  -0.299   2.050  11.156 -0.2951  1.3997  2.1370
  114OSM    C4S11847  -0.432   2.117  10.890 -0.1829  0.5389 -1.0185
  114OSM    H4S11848  -0.469   2.014  10.883  0.6807  0.2151 -1.0147
  114OSM    C5S11849  -0.483   2.217  10.821  0.9345 -0.3183  0.2558
  114OSM    H5S11850  -0.439   2.318  10.825  0.1093  0.0965 -0.7672
  114OSM    C6S11851  -0.604   2.203  10.728 -0.0664 -0.0391 -0.1946
  114OSM    H6S11852  -0.647   2.304  10.715  0.5816  0.1308 -1.2059
  114OSM    H6T11853  -0.686   2.140  10.768  0.2525 -0.3327  0.0092
  114OSM    C7S11854  -0.541   2.157  10.598  0.3455  0.2298  0.2892
  114OSM    H7S11855  -0.503   2.052  10.607 -2.5549 -0.9819 -0.4031
  114OSM    H7T11856  -0.459   2.224  10.564 -1.3997  3.1199  1.4425
  114OSM    C8S11857  -0.653   2.147  10.496  0.0173 -0.4934  0.4917
  114OSM    H8S11858  -0.682   2.253  10.478  1.2976 -0.3286 -0.7646
  114OSM    H8T11859  -0.740   2.081  10.515 -1.1365  0.9316  0.3570
  114OSM    C9S11860  -0.602   2.102  10.361 -0.0512 -0.6468  0.4404
  114OSM    H9S11861  -0.569   1.995  10.358  3.1455  0.2088 -2.2254
  114OSM    H9T11862  -0.518   2.172  10.340 -0.4498  0.0112  1.0463
  114OSM   C10S11863  -0.708   2.117  10.246 -0.0489 -0.1648  0.3742
  114OSM   H10S11864  -0.730   2.226  10.242 -3.2755 -0.6068  2.0482
  114OSM   H10T11865  -0.800   2.058  10.268 -0.8587  0.0241 -2.1882
  114OSM   C11S11866  -0.658   2.065  10.111 -0.2610  0.8277 -0.3061
  114OSM   H11S11867  -0.650   1.954  10.108 -0.5737  0.6704  2.2071
  114OSM   H11T11868  -0.560   2.110  10.085  0.3696 -0.6823 -0.6332
  114OSM   C12S11869  -0.749   2.121  10.003  0.4538  0.0647 -0.2471
  114OSM   H12S11870  -0.748   2.232  10.009 -0.7704  0.0199  3.4153
  114OSM   H12T11871  -0.851   2.085  10.027  0.8400 -1.1456 -0.3792
  114OSM   C13S11872  -0.725   2.064   9.866  0.1355 -0.1110 -0.2397
  114OSM   H13S11873  -0.733   1.956   9.892  0.5275  0.3072  1.8350
  114OSM   H13T11874  -0.628   2.094   9.820  0.1305 -1.0254 -0.8683
  114OSM   C14S11875  -0.836   2.092   9.764  0.1847 -0.8933  0.4787
  114OSM   H14S11876  -0.838   2.202   9.756 -1.1023 -0.9759 -0.7097
  114OSM   H14T11877  -0.931   2.048   9.802  0.4479 -2.0583 -0.1530
  114OSM   C15S11878  -0.815   2.034   9.623 -0.4085  0.2194 -0.3474
  114OSM   H15S11879  -0.879   1.948   9.592  1.4283 -1.1676 -0.4927
  114OSM   H15T11880  -0.715   1.986   9.614 -1.5445 -2.0500 -2.1407
  114OSM   C16S11881  -0.822   2.141   9.514  0.1909 -0.1732  0.1526
  114OSM   H16S11882  -0.763   2.229   9.546  0.2667 -0.1124 -0.1496
  114OSM   H16T11883  -0.926   2.176   9.499 -1.1074 -3.0823  1.6666
  114OSM   C17S11884  -0.767   2.099   9.383  0.0240  0.4775 -0.0397
  114OSM   H17S11885  -0.813   2.003   9.350 -0.0782  0.4395  0.2137
  114OSM   H17T11886  -0.662   2.068   9.400  0.1370  0.7746 -0.1835
  114OSM   C18S11887  -0.771   2.203   9.273 -0.5447 -0.1436 -0.3962
  114OSM   H18S11888  -0.701   2.183   9.188 -1.4124  2.1626 -1.7441
  114OSM   H18T11889  -0.739   2.302   9.311 -1.5098 -1.1319  3.4031
  114OSM   H18U11890  -0.877   2.205   9.241 -0.6562  0.6355  0.0168
  114OSM    C1F11891  -0.124   1.939  10.715 -0.1985 -0.0044 -0.8167
  114OSM     OF11892  -0.082   1.836  10.769  0.1469 -0.5707 -0.4969
  114OSM    C2F11893  -0.097   1.980  10.578  0.1183  0.3326  0.2374
  114OSM    H2F11894  -0.055   1.896  10.518 -1.2998 -0.4385  0.2813
  114OSM    H2G11895  -0.027   2.065  10.566  1.0300 -0.3576  0.5732
  114OSM    C3F11896  -0.229   2.025  10.512  0.4198  0.1117  0.9213
  114OSM    H3F11897  -0.263   2.124  10.550 -0.7084 -0.9009  2.7388
  114OSM    H3G11898  -0.314   1.962  10.546 -0.3549  0.4974 -0.2664
  114OSM    C4F11899  -0.236   2.030  10.359  0.3871  0.7822 -0.2712
  114OSM    H4F11900  -0.156   2.100  10.327  0.4810  0.1431 -1.4861
  114OSM    H4G11901  -0.331   2.073  10.322 -0.9425 -1.1195  0.7496
  114OSM    C5F11902  -0.226   1.894  10.298 -0.1266  0.3664  0.6749
  114OSM    H5F11903  -0.327   1.848  10.290 -0.3913  0.9850  0.3372
  114OSM    H5G11904  -0.173   1.828  10.370  0.8142 -0.2865 -0.5836
  114OSM    C6F11905  -0.173   1.893  10.154 -0.0646 -0.6798  0.4115
  114OSM    H6F11906  -0.161   1.785  10.130  2.1817 -0.3727 -0.1011
  114OSM    H6G11907  -0.073   1.942  10.152 -0.4168  0.1094 -2.4173
  114OSM    C7F11908  -0.258   1.972  10.051  0.1657  0.1547  0.0704
  114OSM    H7F11909  -0.223   2.078  10.051 -0.0213  0.2672  2.3493
  114OSM    H7G11910  -0.368   1.968  10.062  0.0301 -2.6576 -1.4334
  114OSM    C8F11911  -0.225   1.941   9.904 -0.0673  0.1199 -0.8483
  114OSM    H8F11912  -0.117   1.964   9.891  0.6419 -1.4441  1.6636
  114OSM    H8G11913  -0.289   2.005   9.840 -0.1230 -0.8574 -1.7975
  114OSM    C9F11914  -0.253   1.786   9.863 -0.7690  0.3834 -0.6835
  114OSM    H9F11915  -0.178   1.714   9.899  2.3695  3.2278 -0.9563
  114OSM   C10F11916  -0.343   1.733   9.778 -0.7317  0.2647  0.6834
  114OSM   H10F11917  -0.347   1.623   9.780  1.9542  0.0981  0.7648
  114OSM   C11F11918  -0.451   1.803   9.707  0.0715  0.0496  0.2497
  114OSM   H11F11919  -0.456   1.911   9.736 -1.4550 -0.7780  3.5397
  114OSM   H11G11920  -0.551   1.768   9.738 -0.2382  1.1501  0.5329
  114OSM   C12F11921  -0.446   1.805   9.550  0.6702  0.3538 -0.1251
  114OSM   H12F11922  -0.356   1.856   9.511  1.5147 -2.0856 -1.5168
  114OSM   H12G11923  -0.521   1.886   9.534  1.0861  0.3752 -2.2015
  114OSM   C13F11924  -0.480   1.680   9.474 -0.8965 -0.5909 -0.5672
  114OSM   H13F11925  -0.570   1.633   9.520  0.7220 -1.8033  1.5745
  114OSM   H13G11926  -0.394   1.611   9.484  0.8626  1.4861 -0.5812
  114OSM   C14F11927  -0.500   1.710   9.321  0.1619 -0.7287  0.0495
  114OSM   H14F11928  -0.406   1.756   9.283 -0.4007 -0.0960 -0.5962
  114OSM   H14G11929  -0.575   1.788   9.297  1.9367  1.0040 -0.1905
  114OSM   C15F11930  -0.534   1.572   9.255  0.4758 -0.0682 -0.3243
  114OSM   H15F11931  -0.607   1.519   9.320  2.8237 -0.4870  2.1655
  114OSM   H15G11932  -0.444   1.508   9.248  1.5770  1.5072 -1.3384
  114OSM   C16F11933  -0.602   1.574   9.117  0.3658 -0.9528 -0.5545
  114OSM   H16F11934  -0.520   1.609   9.050  1.1048 -0.2859  0.6756
  114OSM   H16G11935  -0.683   1.651   9.116  0.7270 -0.4059 -4.6634
  114OSM   C17F11936  -0.665   1.444   9.075 -0.3869 -0.1394  0.6073
  114OSM   H17F11937  -0.732   1.406   9.155  0.1547 -0.8553  0.7271
  114OSM   H17G11938  -0.582   1.371   9.060  0.9176  1.7697 -2.5836
  114OSM   C18F11939  -0.745   1.468   8.947  0.1493 -0.2227  0.1889
  114OSM   H18F11940  -0.854   1.468   8.968 -0.1621 -0.9143 -1.2748
  114OSM   H18G11941  -0.731   1.394   8.865  0.4523 -1.6776  1.5016
  114OSM   H18H11942  -0.713   1.569   8.916 -1.5131  0.8871  1.8527
  115OSM      N11943   0.218   0.858   6.077 -0.0916  0.1165  0.3221
  115OSM    C1511944   0.323   0.773   6.146 -0.1191  0.2265 -0.2911
  115OSM   H15A11945   0.292   0.670   6.156 -0.8526  0.6455  3.3579
  115OSM   H15B11946   0.342   0.799   6.249  4.8192 -0.7245 -0.7207
  115OSM   H15C11947   0.416   0.775   6.091  1.3758  0.0220  2.0661
  115OSM    C1411948   0.289   0.990   6.047 -0.0466 -0.7458  0.8869
  115OSM   H14A11949   0.222   1.055   5.993 -0.3550 -0.6335  1.3970
  115OSM   H14B11950   0.369   0.982   5.975  1.3402 -1.2929  2.4075
  115OSM   H14C11951   0.328   1.040   6.135 -0.5312  0.6844  0.3095
  115OSM    C1311952   0.184   0.794   5.949 -0.3040  0.2000  0.2573
  115OSM   H13A11953   0.156   0.690   5.956 -1.4370  0.3590 -1.2275
  115OSM   H13B11954   0.258   0.803   5.871  0.8155  0.4951  1.3355
  115OSM   H13C11955   0.089   0.831   5.911 -0.6376  1.9456  2.5850
  115OSM    C1211956   0.094   0.868   6.170 -0.2665  0.4676  0.5690
  115OSM   H12A11957   0.025   0.938   6.125  0.3829  1.4306  1.0524
  115OSM   H12B11958   0.119   0.911   6.266 -1.7506  0.1682  1.1323
  115OSM    C1111959   0.001   0.738   6.189 -0.3691 -0.2079  0.3484
  115OSM   H11A11960  -0.036   0.705   6.090  1.5668 -1.6242  0.0268
  115OSM   H11B11961  -0.092   0.765   6.244 -2.0341  1.5013 -3.0488
  115OSM      P11962   0.106   0.613   6.398  0.1400  0.2278  0.0054
  115OSM    O1311963   0.146   0.472   6.410  0.0080  0.3030  0.8705
  115OSM    O1411964   0.198   0.720   6.445  0.6806 -0.0686  0.4103
  115OSM    O1111965  -0.038   0.632   6.453  0.3762  0.5276  0.0215
  115OSM    O1211966   0.078   0.635   6.245 -0.3487  0.3126  0.7821
  115OSM    C1S11967  -0.079   0.601   6.593 -0.3552 -0.8841 -0.0516
  115OSM    H1S11968  -0.036   0.512   6.643 -1.4639 -2.2172 -1.3810
  115OSM    H1T11969  -0.188   0.576   6.593 -0.2120 -2.2018 -4.1681
  115OSM     NF11970  -0.082   0.683   6.837 -0.2780 -0.8701 -0.5368
  115OSM    HNF11971  -0.166   0.718   6.878  0.0314  0.6966 -1.1660
  115OSM    C2S11972  -0.060   0.719   6.697 -0.6659 -0.4946 -0.6523
  115OSM    H2S11973   0.048   0.738   6.684  0.0590 -2.1826  2.0481
  115OSM    C3S11974  -0.142   0.847   6.659 -0.0234 -0.3331  0.0404
  115OSM    H3S11975  -0.249   0.818   6.652 -1.0169  2.8470  0.6062
  115OSM     O311976  -0.103   0.895   6.531  0.3771 -0.2227 -0.5617
  115OSM    HO311977  -0.083   0.811   6.487 -2.1607 -0.8112 -0.7612
  115OSM    C4S11978  -0.132   0.959   6.756  0.0353  0.3034  0.0141
  115OSM    H4S11979  -0.033   1.005   6.773  0.6219 -0.5257 -1.0276
  115OSM    C5S11980  -0.238   1.009   6.803 -0.0222 -0.2070 -0.7993
  115OSM    H5S11981  -0.338   0.968   6.780 -0.9963  2.5248 -1.8278
  115OSM    C6S11982  -0.237   1.128   6.895 -0.0311  0.4826 -0.2001
  115OSM    H6S11983  -0.317   1.199   6.864  0.7719  1.4280 -0.1536
  115OSM    H6T11984  -0.135   1.169   6.881  0.5814 -0.9368 -0.0326
  115OSM    C7S11985  -0.274   1.090   7.043 -0.2260 -0.5686  0.2363
  115OSM    H7S11986  -0.380   1.064   7.064 -0.6769  0.3503 -0.7833
  115OSM    H7T11987  -0.268   1.184   7.101 -2.3278 -0.7203  0.7727
  115OSM    C8S11988  -0.183   0.984   7.109  0.6647  0.0915  0.3059
  115OSM    H8S11989  -0.091   1.041   7.133  0.9953 -0.1251 -0.4217
  115OSM    H8T11990  -0.160   0.897   7.045 -0.6756 -1.7488  2.2093
  115OSM    C9S11991  -0.242   0.914   7.235  0.1426  0.1596  0.1142
  115OSM    H9S11992  -0.171   0.840   7.279 -2.7370 -2.3016  0.9764
  115OSM    H9T11993  -0.334   0.857   7.207 -0.5546  1.8670 -1.2348
  115OSM   C10S11994  -0.267   1.011   7.355  0.8077 -0.6511  0.1105
  115OSM   H10S11995  -0.357   1.073   7.333  0.7907 -0.8327 -0.3530
  115OSM   H10T11996  -0.187   1.088   7.358  0.1957 -0.0365  1.0538
  115OSM   C11S11997  -0.297   0.931   7.480  0.3726 -0.2588  1.1959
  115OSM   H11S11998  -0.210   0.867   7.506  0.9818  0.8828  2.0617
  115OSM   H11T11999  -0.381   0.860   7.462  0.1032  0.2019  0.5825
  115OSM   C12S12000  -0.316   1.019   7.604  0.0577  0.1790 -0.3031
  115OSM   H12S12001  -0.421   1.054   7.599 -0.4060 -0.9244  0.9853
  115OSM   H12T12002  -0.246   1.105   7.603  0.0659  0.1785  0.1856
  115OSM   C13S12003  -0.299   0.940   7.736  0.2415  0.5190  0.2238
  115OSM   H13S12004  -0.203   0.885   7.731 -0.3861 -0.5434 -0.5975
  115OSM   H13T12005  -0.379   0.863   7.737 -1.3328  2.0978  0.5702
  115OSM   C14S12006  -0.312   1.033   7.863  0.4080  0.4924  0.4946
  115OSM   H14S12007  -0.405   1.093   7.852  1.1282  1.7531  0.9870
  115OSM   H14T12008  -0.221   1.097   7.871  1.5884 -1.1023  0.2203
  115OSM   C15S12009  -0.328   0.962   7.990  0.4950  0.3338 -0.4867
  115OSM   H15S12010  -0.233   0.905   8.002 -0.8254 -1.7043  0.9190
  115OSM   H15T12011  -0.406   0.884   7.983  0.1231  0.6111  0.4940
  115OSM   C16S12012  -0.366   1.048   8.105 -0.2228  0.8546 -0.4505
  115OSM   H16S12013  -0.301   1.132   8.137  2.0453 -0.6971 -0.7682
  115OSM   H16T12014  -0.372   0.992   8.201  1.5614  0.7626 -0.3653
  115OSM   C17S12015  -0.515   1.096   8.093 -0.5889 -0.4241  0.0677
  115OSM   H17S12016  -0.587   1.011   8.092  0.5142 -1.4102  1.0229
  115OSM   H17T12017  -0.530   1.157   8.001 -1.7022  0.1821  0.6288
  115OSM   C18S12018  -0.539   1.189   8.209 -0.0081  0.3983  0.5115
  115OSM   H18S12019  -0.448   1.251   8.226 -0.5792  1.1807  0.7646
  115OSM   H18T12020  -0.554   1.133   8.304 -2.0708 -3.6620 -1.9366
  115OSM   H18U12021  -0.629   1.251   8.192  1.6682  2.9153  0.3083
  115OSM    C1F12022  -0.010   0.583   6.902 -0.3294  0.2021  0.1974
  115OSM     OF12023   0.082   0.529   6.834 -0.1073 -0.0180 -0.1108
  115OSM    C2F12024  -0.040   0.543   7.044 -0.0482  0.1834  0.1314
  115OSM    H2F12025  -0.148   0.557   7.061 -0.3379 -0.4462 -1.0875
  115OSM    H2G12026   0.016   0.612   7.111  0.0423 -0.5489  0.8213
  115OSM    C3F12027  -0.011   0.395   7.067 -0.3058 -0.2766  0.5917
  115OSM    H3F12028   0.095   0.377   7.040  0.2924  1.0720  1.9184
  115OSM    H3G12029  -0.081   0.336   7.004  2.2978 -2.1552 -0.7091
  115OSM    C4F12030  -0.025   0.348   7.212  0.2535  0.1645 -0.4072
  115OSM    H4F12031  -0.132   0.360   7.241 -0.2530 -1.1305 -1.6270
  115OSM    H4G12032   0.046   0.404   7.276  1.5999  1.3162 -2.7539
  115OSM    C5F12033   0.002   0.198   7.227 -0.1686  0.5063 -0.1691
  115OSM    H5F12034   0.104   0.182   7.185  1.2933  2.0698  2.5339
  115OSM    H5G12035  -0.062   0.134   7.162  0.1792  1.1320 -1.1667
  115OSM    C6F12036  -0.001   0.155   7.371 -0.8504  0.9657  0.3188
  115OSM    H6F12037  -0.075   0.212   7.432 -0.8972 -0.0392  1.2359
  115OSM    H6G12038   0.093   0.190   7.419  0.4682 -1.9414  0.0794
  115OSM    C7F12039  -0.031   0.009   7.391 -0.5730  0.1362  0.5078
  115OSM    H7F12040   0.050  -0.044   7.338 -0.9320 -0.2217  0.3108
  115OSM    H7G12041  -0.130  -0.029   7.357 -0.3316 -0.1196  0.0912
  115OSM    C8F12042  -0.006  -0.019   7.539 -0.0903 -0.8082 -0.4715
  115OSM    H8F12043   0.101  -0.005   7.565 -0.4461 -0.9165  1.1692
  115OSM    H8G12044  -0.037  -0.126   7.552 -1.2844 -0.7003 -2.0281
  115OSM    C9F12045  -0.095   0.062   7.627  0.0011 -0.4206  0.4148
  115OSM    H9F12046  -0.196   0.070   7.584 -0.6614 -1.0881  1.7792
  115OSM   C10F12047  -0.067   0.127   7.742  0.5039 -0.3547 -0.1476
  115OSM   H10F12048  -0.151   0.160   7.805  0.1569 -1.1542 -0.1768
  115OSM   C11F12049   0.063   0.133   7.806 -0.2977 -0.4360  0.3445
  115OSM   H11F12050   0.103   0.232   7.837  0.7200 -0.3830 -1.0783
  115OSM   H11G12051   0.152   0.097   7.750  0.7211 -0.4091  1.8860
  115OSM   C12F12052   0.050   0.054   7.942  0.0039  0.2468  0.0442
  115OSM   H12F12053   0.035  -0.055   7.927 -2.1902  0.3694  1.0405
  115OSM   H12G12054  -0.038   0.089   8.000 -0.5872  1.1070 -1.3075
  115OSM   C13F12055   0.169   0.070   8.031 -0.9160  0.0213 -0.6414
  115OSM   H13F12056   0.133   0.051   8.135 -1.2571  2.4183 -0.2612
  115OSM   H13G12057   0.208   0.174   8.027  3.1150 -1.3097 -0.9181
  115OSM   C14F12058   0.277  -0.032   8.005  0.7143 -0.9289  0.6587
  115OSM   H14F12059   0.312  -0.034   7.899  1.1720 -0.2443  0.7879
  115OSM   H14G12060   0.238  -0.126   8.048 -2.8355  0.1682  0.1805
  115OSM   C15F12061   0.411   0.001   8.063  0.2554 -0.2561  0.3445
  115OSM   H15F12062   0.390   0.024   8.170 -1.1265 -1.2201  0.3205
  115OSM   H15G12063   0.460   0.088   8.014  1.2072 -0.7199  0.4519
  115OSM   C16F12064   0.500  -0.118   8.050  0.6800 -0.6113  0.3541
  115OSM   H16F12065   0.518  -0.142   7.943  1.9732  1.5174  0.0409
  115OSM   H16G12066   0.446  -0.204   8.096 -0.2432  0.1175  0.6800
  115OSM   C17F12067   0.618  -0.107   8.146  0.5243  0.7781  0.3160
  115OSM   H17F12068   0.580  -0.070   8.243  1.4373  0.2685  0.8833
  115OSM   H17G12069   0.690  -0.031   8.112  0.8417  0.6647  0.7368
  115OSM   C18F12070   0.695  -0.243   8.156  0.4690 -0.2174 -0.4480
  115OSM   H18F12071   0.637  -0.337   8.168  1.4038 -0.7086  0.3572
  115OSM   H18G12072   0.768  -0.245   8.239 -0.8365  1.8630  0.8610
  115OSM   H18H12073   0.752  -0.257   8.062 -0.3522  0.8126 -1.1234
  116OSM      N12074   5.356   4.890   6.354  0.3940 -0.0949 -0.9820
  116OSM    C1512075   5.408   4.990   6.456 -0.0209 -0.0967 -0.5625
  116OSM   H15A12076   5.425   4.947   6.554 -3.1187 -1.1125 -0.3579
  116OSM   H15B12077   5.328   5.060   6.478  0.5207  0.0814  0.9058
  116OSM   H15C12078   5.492   5.046   6.420 -0.5784  0.1380 -1.5437
  116OSM    C1412079   5.309   4.949   6.226 -0.0347 -0.0200 -0.4605
  116OSM   H14A12080   5.394   4.990   6.173  0.1974 -1.8696 -1.6030
  116OSM   H14B12081   5.235   5.026   6.241  1.7647  1.4083  1.8606
  116OSM   H14C12082   5.257   4.877   6.165  0.1903 -0.0225 -0.6506
  116OSM    C1312083   5.464   4.793   6.312  0.7683 -0.1219  0.3151
  116OSM   H13A12084   5.422   4.699   6.279  0.4064  0.0834  0.1737
  116OSM   H13B12085   5.524   4.763   6.396  1.6989 -3.0728 -1.2687
  116OSM   H13C12086   5.529   4.837   6.237 -0.5117 -2.1931 -2.1592
  116OSM    C1212087   5.247   4.816   6.427 -0.1005  0.2262  0.3219
  116OSM   H12A12088   5.176   4.885   6.470  0.8900  0.5413  1.5232
  116OSM   H12B12089   5.298   4.766   6.508 -0.5635 -2.6736 -1.0689
  116OSM    C1112090   5.178   4.711   6.343  0.1020 -0.2461  0.4312
  116OSM   H11A12091   5.124   4.769   6.264 -2.3229  0.0179  2.1634
  116OSM   H11B12092   5.086   4.687   6.400  0.3160  0.3037  1.0160
  116OSM      P12093   5.255   4.466   6.347  0.2736 -0.0453 -0.4764
  116OSM    O1312094   5.121   4.410   6.330 -0.5121  0.6922 -0.3431
  116OSM    O1412095   5.367   4.399   6.279  0.3301 -0.4025  1.1981
  116OSM    O1112096   5.288   4.480   6.497 -0.0656  0.2324  0.1239
  116OSM    O1212097   5.255   4.606   6.284  0.3167  0.0466 -0.3194
  116OSM    C1S12098   5.413   4.518   6.562 -0.3844  0.4398 -0.4754
  116OSM    H1S12099   5.450   4.621   6.540 -0.2546  0.4601 -0.1663
  116OSM    H1T12100   5.495   4.446   6.540  0.4091  0.7473  1.3020
  116OSM     NF12101   5.539   4.560   6.749  0.1148 -0.3400 -0.6850
  116OSM    HNF12102   5.615   4.498   6.763 -0.5204 -0.8840  0.5083
  116OSM    C2S12103   5.409   4.512   6.721  1.1545  0.3429 -0.3282
  116OSM    H2S12104   5.330   4.574   6.767 -1.8419 -2.3462 -1.4645
  116OSM    C3S12105   5.365   4.371   6.770 -0.0395 -0.2513 -0.0738
  116OSM    H3S12106   5.445   4.300   6.740 -1.4097 -0.6197 -3.1694
  116OSM     O312107   5.257   4.304   6.718 -0.4608 -0.1504  0.3079
  116OSM    HO312108   5.212   4.364   6.657  0.9092 -0.7549 -1.3855
  116OSM    C4S12109   5.351   4.373   6.923 -0.0287 -0.3499  0.3198
  116OSM    H4S12110   5.258   4.421   6.957 -0.5858 -0.4586 -1.0135
  116OSM    C5S12111   5.421   4.298   7.008  0.6755  0.8028 -0.6169
  116OSM    H5S12112   5.491   4.218   6.981 -1.1367  0.1236 -3.7984
  116OSM    C6S12113   5.394   4.300   7.161 -0.2861 -0.6573 -0.0064
  116OSM    H6S12114   5.396   4.198   7.206 -0.0484  0.1170  1.7829
  116OSM    H6T12115   5.294   4.344   7.181 -0.3001 -0.8689  0.3983
  116OSM    C7S12116   5.487   4.397   7.236 -0.1926 -0.3844 -0.2768
  116OSM    H7S12117   5.469   4.487   7.173 -0.7721 -2.2841 -2.9649
  116OSM    H7T12118   5.591   4.360   7.220 -0.0522 -1.4942  2.5930
  116OSM    C8S12119   5.457   4.426   7.388  0.6787 -0.4020  0.1485
  116OSM    H8S12120   5.352   4.404   7.414  0.5367  0.1794  0.0633
  116OSM    H8T12121   5.463   4.535   7.403 -1.0096 -0.4098  1.0177
  116OSM    C9S12122   5.534   4.341   7.488  0.3429  0.5540 -0.3516
  116OSM    H9S12123   5.643   4.363   7.483  0.8039 -1.2482  0.9293
  116OSM    H9T12124   5.505   4.235   7.478 -3.0243  1.5122 -2.1238
  116OSM   C10S12125   5.480   4.378   7.628 -1.0992  0.3341  0.7267
  116OSM   H10S12126   5.383   4.326   7.641 -0.0478 -2.1058 -0.4756
  116OSM   H10T12127   5.459   4.486   7.641 -0.5072  0.4890  0.4153
  116OSM   C11S12128   5.574   4.345   7.743  0.4745 -0.7325 -0.5129
  116OSM   H11S12129   5.669   4.396   7.716  0.1189  0.0411 -0.3527
  116OSM   H11T12130   5.582   4.234   7.743 -2.4777 -1.0614  1.2976
  116OSM   C12S12131   5.526   4.390   7.880 -0.0569  0.6898  0.0157
  116OSM   H12S12132   5.497   4.497   7.877 -0.0309  0.7321 -4.1754
  116OSM   H12T12133   5.622   4.391   7.937  1.5080  0.8627 -2.4834
  116OSM   C13S12134   5.410   4.311   7.940  0.5013  0.5841  0.5683
  116OSM   H13S12135   5.436   4.203   7.943 -1.7432  0.0164  2.2033
  116OSM   H13T12136   5.322   4.320   7.872  0.3119 -1.5492  0.4649
  116OSM   C14S12137   5.359   4.353   8.079  0.5419 -0.0489  0.6599
  116OSM   H14S12138   5.339   4.462   8.068 -1.7156 -0.5744 -1.2068
  116OSM   H14T12139   5.444   4.332   8.147 -0.3285 -0.6238  1.5997
  116OSM   C15S12140   5.230   4.283   8.124  0.2904 -0.4409 -0.3320
  116OSM   H15S12141   5.151   4.284   8.046  1.0670 -1.9242 -1.1802
  116OSM   H15T12142   5.207   4.334   8.220 -0.0338 -0.2055 -0.5343
  116OSM   C16S12143   5.260   4.142   8.172  0.6199 -0.3765  0.3850
  116OSM   H16S12144   5.304   4.088   8.086 -2.1932 -0.1904 -1.3030
  116OSM   H16T12145   5.162   4.092   8.185  0.6434 -1.6315 -3.3062
  116OSM   C17S12146   5.347   4.129   8.297 -0.1979 -0.6460  0.1184
  116OSM   H17S12147   5.451   4.165   8.284  0.4317 -2.0646  1.0727
  116OSM   H17T12148   5.358   4.019   8.302  0.9343 -0.5383  0.2000
  116OSM   C18S12149   5.293   4.184   8.432 -0.1648 -0.1427  0.1707
  116OSM   H18S12150   5.276   4.293   8.421 -0.9847 -0.3486 -0.7682
  116OSM   H18T12151   5.376   4.178   8.506  0.7877  1.5947 -0.6922
  116OSM   H18U12152   5.195   4.140   8.461 -0.8683  0.5947 -0.9823
  116OSM    C1F12153   5.554   4.690   6.757  0.1072  0.2824  0.3734
  116OSM     OF12154   5.468   4.768   6.729 -0.0210  0.2954 -0.5209
  116OSM    C2F12155   5.698   4.742   6.778  0.8166  0.4861  0.3528
  116OSM    H2F12156   5.722   4.814   6.697  0.9883  1.9114  1.6119
  116OSM    H2G12157   5.768   4.655   6.774 -1.9333 -1.8941  1.0698
  116OSM    C3F12158   5.709   4.816   6.911 -0.0050 -0.9660 -0.2632
  116OSM    H3F12159   5.631   4.895   6.908 -0.1128 -1.0941 -1.2620
  116OSM    H3G12160   5.804   4.873   6.904  0.7457 -2.3567 -3.0133
  116OSM    C4F12161   5.698   4.735   7.038  0.1728  0.5916 -0.1561
  116OSM    H4F12162   5.769   4.649   7.037  0.0238  0.4640  0.1437
  116OSM    H4G12163   5.592   4.705   7.054  0.1169  0.9893  0.2323
  116OSM    C5F12164   5.735   4.815   7.158 -0.1476 -0.0122  0.4126
  116OSM    H5F12165   5.665   4.900   7.172 -0.4267  0.2982 -2.4171
  116OSM    H5G12166   5.831   4.869   7.141 -0.7001  1.0400  0.5652
  116OSM    C6F12167   5.730   4.724   7.285 -0.1717 -0.0330  0.3874
  116OSM    H6F12168   5.798   4.636   7.282 -0.7876 -0.5022 -1.8850
  116OSM    H6G12169   5.628   4.681   7.295 -1.3857  2.0398 -1.8923
  116OSM    C7F12170   5.752   4.798   7.416  0.3058 -0.5420  0.0322
  116OSM    H7F12171   5.661   4.862   7.421  0.7298  0.2074 -1.4244
  116OSM    H7G12172   5.847   4.854   7.403  0.7261 -1.1257  0.5261
  116OSM    C8F12173   5.762   4.701   7.539 -0.1901  0.7195 -0.4960
  116OSM    H8F12174   5.834   4.623   7.505 -0.6345  0.8440 -1.8006
  116OSM    H8G12175   5.658   4.664   7.548 -0.2343  1.2497  1.7743
  116OSM    C9F12176   5.798   4.785   7.654  0.5405 -0.6351 -0.4031
  116OSM    H9F12177   5.717   4.851   7.688  0.2678 -1.6199  0.9609
  116OSM   C10F12178   5.910   4.772   7.721  0.3099  0.9835  0.2745
  116OSM   H10F12179   5.941   4.840   7.801  1.0773  1.2836 -0.2692
  116OSM   C11F12180   6.016   4.667   7.699  0.0262  0.3460  0.0677
  116OSM   H11F12181   6.037   4.644   7.592  0.5205  0.1625  0.2027
  116OSM   H11G12182   5.979   4.575   7.749  0.0947  1.0350  1.4153
  116OSM   C12F12183   6.148   4.711   7.774  0.3554 -0.5318 -0.1099
  116OSM   H12F12184   6.201   4.613   7.782 -0.7269 -1.1146  0.0478
  116OSM   H12G12185   6.124   4.737   7.880 -0.9987  1.9243 -0.9550
  116OSM   C13F12186   6.229   4.821   7.706  0.2431  0.0136  0.2605
  116OSM   H13F12187   6.317   4.828   7.774  1.5215 -2.2252 -1.0262
  116OSM   H13G12188   6.163   4.910   7.700  1.5251  1.0011  0.1972
  116OSM   C14F12189   6.275   4.787   7.561  0.3616 -0.3721 -0.8056
  116OSM   H14F12190   6.249   4.683   7.533  1.1767 -0.7801 -0.1022
  116OSM   H14G12191   6.385   4.796   7.549  0.4989 -0.2620  0.4120
  116OSM   C15F12192   6.213   4.887   7.460 -0.1059  0.1544  0.4382
  116OSM   H15F12193   6.243   4.992   7.484 -0.8515  0.2030  1.1954
  116OSM   H15G12194   6.103   4.889   7.473 -0.3757 -0.9470 -1.4076
  116OSM   C16F12195   6.252   4.850   7.314  0.3195 -0.0412 -0.2270
  116OSM   H16F12196   6.234   4.742   7.295 -1.8807  0.1246  0.6535
  116OSM   H16G12197   6.358   4.870   7.289  0.5527 -1.4286 -0.4326
  116OSM   C17F12198   6.155   4.930   7.219  0.2121  0.2259 -0.2378
  116OSM   H17F12199   6.183   5.037   7.222 -0.0765  0.2876  0.1605
  116OSM   H17G12200   6.054   4.908   7.258  0.6739 -0.7968  0.4260
  116OSM   C18F12201   6.170   4.880   7.071  0.0845 -0.0529  0.2742
  116OSM   H18F12202   6.129   4.778   7.060  1.9434 -0.9075  1.0052
  116OSM   H18G12203   6.276   4.874   7.040 -0.3712 -1.6240 -1.1379
  116OSM   H18H12204   6.112   4.943   6.999  1.7673  1.0662 -0.1648
  117OSM      N12205   1.111   4.803   6.067 -0.0331 -0.4044 -0.6811
  117OSM    C1512206   0.971   4.769   6.110  0.3571 -0.3456  0.0977
  117OSM   H15A12207   0.906   4.855   6.119 -1.0846 -1.3088 -0.7523
  117OSM   H15B12208   0.976   4.732   6.211  1.0183  1.0420  0.6023
  117OSM   H15C12209   0.922   4.703   6.041 -0.9663  1.5823 -0.9169
  117OSM    C1412210   1.199   4.852   6.180  0.3772 -0.6134 -1.0776
  117OSM   H14A12211   1.171   4.953   6.203  1.1724 -0.9354  1.6103
  117OSM   H14B12212   1.296   4.861   6.133  0.3183 -0.1519 -1.1054
  117OSM   H14C12213   1.199   4.780   6.261  2.0042  0.1389 -0.3696
  117OSM    C1312214   1.165   4.665   6.037  0.4230 -0.0574 -0.0529
  117OSM   H13A12215   1.170   4.609   6.129  1.8818 -1.5397 -0.9856
  117OSM   H13B12216   1.265   4.690   6.004 -0.2661  3.6214  0.1133
  117OSM   H13C12217   1.108   4.612   5.962 -0.9264 -0.9375  1.5362
  117OSM    C1212218   1.111   4.901   5.951  0.3094 -0.4760 -0.5632
  117OSM   H12A12219   1.071   4.852   5.863  1.6295  3.3020 -3.5398
  117OSM   H12B12220   1.210   4.918   5.912  0.3850 -1.0133 -0.6072
  117OSM    C1112221   1.047   5.041   5.974 -0.0568 -0.4063 -0.1048
  117OSM   H11A12222   1.078   5.105   5.889 -0.4811  1.9607  1.4366
  117OSM   H11B12223   1.100   5.086   6.061 -2.4851 -1.2816  1.9413
  117OSM      P12224   0.837   5.149   6.088 -0.3558 -0.3179 -0.3885
  117OSM    O1312225   0.829   5.276   6.013 -0.0494 -0.8860 -0.0859
  117OSM    O1412226   0.710   5.090   6.140 -0.4234  0.1318 -0.1714
  117OSM    O1112227   0.941   5.161   6.207  0.4981  0.3986 -0.0909
  117OSM    O1212228   0.906   5.042   6.004 -0.1247 -0.0683  0.5371
  117OSM    C1S12229   0.937   5.067   6.316 -0.6228 -0.4399 -0.0451
  117OSM    H1S12230   1.002   4.979   6.293  0.8006  1.0966 -2.3959
  117OSM    H1T12231   0.840   5.015   6.327 -1.2777  0.2960 -1.9897
  117OSM     NF12232   0.979   5.012   6.554  0.2785 -1.1525  0.0560
  117OSM    HNF12233   0.906   5.010   6.622 -1.9492  0.5376 -2.0928
  117OSM    C2S12234   0.960   5.124   6.458  0.3036  0.1829 -1.1033
  117OSM    H2S12235   1.058   5.174   6.450  0.8082 -0.2138  1.5983
  117OSM    C3S12236   0.834   5.218   6.500 -0.8807  0.0443  0.2829
  117OSM    H3S12237   0.741   5.159   6.516  0.2797 -1.2942  2.6985
  117OSM     O312238   0.784   5.310   6.397  0.0238 -0.1384  0.3444
  117OSM    HO312239   0.807   5.280   6.309 -2.0689  3.7913 -1.8264
  117OSM    C4S12240   0.862   5.291   6.625  0.3913 -0.0030  0.7105
  117OSM    H4S12241   0.959   5.343   6.622  0.7129 -0.5740 -2.6260
  117OSM    C5S12242   0.782   5.296   6.737  0.2086 -0.3946 -0.1625
  117OSM    H5S12243   0.691   5.233   6.744  0.8889 -1.6412 -1.7980
  117OSM    C6S12244   0.823   5.358   6.864 -0.0104  0.1284 -0.1352
  117OSM    H6S12245   0.736   5.401   6.919  0.3763  1.9667 -0.8876
  117OSM    H6T12246   0.893   5.442   6.847 -0.3654  0.4631  0.0260
  117OSM    C7S12247   0.897   5.259   6.946 -0.2547  0.9316 -0.1242
  117OSM    H7S12248   0.992   5.241   6.892  0.6154 -0.1420  1.6558
  117OSM    H7T12249   0.838   5.165   6.955 -0.7090  1.1963 -0.2843
  117OSM    C8S12250   0.907   5.309   7.093  0.9696  0.0243 -0.6410
  117OSM    H8S12251   0.808   5.337   7.133  2.0019  0.7656  1.5526
  117OSM    H8T12252   0.960   5.407   7.088  0.7102  0.1551 -0.8704
  117OSM    C9S12253   0.983   5.215   7.175 -0.1023  0.3532  0.2163
  117OSM    H9S12254   1.084   5.199   7.131  0.3619 -0.5429  1.5279
  117OSM    H9T12255   0.934   5.117   7.190 -1.7011  1.1816  0.6000
  117OSM   C10S12256   1.027   5.270   7.315  0.8956 -0.5896 -0.2862
  117OSM   H10S12257   1.072   5.371   7.303 -0.0561  0.0703  1.3586
  117OSM   H10T12258   1.103   5.203   7.362 -0.4902 -0.6824  1.9906
  117OSM   C11S12259   0.910   5.276   7.414 -0.0028 -0.1551 -0.5546
  117OSM   H11S12260   0.845   5.363   7.391 -0.4615 -0.5146 -0.6297
  117OSM   H11T12261   0.955   5.308   7.510 -0.9947  2.3640 -0.8434
  117OSM   C12S12262   0.836   5.140   7.438 -0.4460 -0.2788 -0.1129
  117OSM   H12S12263   0.814   5.090   7.342  1.2268 -0.7461 -0.2848
  117OSM   H12T12264   0.740   5.164   7.488 -0.0675  1.3139 -0.0674
  117OSM   C13S12265   0.916   5.041   7.520  0.0324 -0.3194 -0.3271
  117OSM   H13S12266   1.010   5.008   7.472 -0.3586 -0.0816 -1.2824
  117OSM   H13T12267   0.866   4.942   7.524  3.4585 -2.1762  0.6591
  117OSM   C14S12268   0.946   5.090   7.665  0.1535 -0.4447 -0.5659
  117OSM   H14S12269   0.863   5.139   7.721 -0.0766  1.0375 -2.1203
  117OSM   H14T12270   1.026   5.165   7.647 -1.9923  2.4659  1.1641
  117OSM   C15S12271   1.001   4.988   7.762 -0.4923 -0.3232  0.2902
  117OSM   H15S12272   1.099   4.962   7.717 -1.6848 -0.1243 -2.6623
  117OSM   H15T12273   0.938   4.898   7.746  0.6101 -1.0374 -0.1651
  117OSM   C16S12274   1.028   5.027   7.905  0.2159  0.5282 -0.2598
  117OSM   H16S12275   1.093   5.117   7.893 -0.2122  0.5334 -3.2143
  117OSM   H16T12276   1.086   4.943   7.949  0.3980  1.2469  0.9141
  117OSM   C17S12277   0.904   5.074   7.981  0.4443 -0.2265 -1.2135
  117OSM   H17S12278   0.805   5.030   7.957 -0.9327  2.8303 -1.5785
  117OSM   H17T12279   0.888   5.179   7.951  1.0199  0.3495  0.3518
  117OSM   C18S12280   0.920   5.062   8.131 -0.3946 -0.1082 -0.0922
  117OSM   H18S12281   0.984   4.971   8.142  0.4472  0.4257 -0.4539
  117OSM   H18T12282   0.825   5.033   8.180 -0.8336 -0.5645 -1.1609
  117OSM   H18U12283   0.973   5.146   8.179  1.8959 -0.5477 -1.6797
  117OSM    C1F12284   1.068   4.921   6.547 -0.6794 -0.3010 -0.2134
  117OSM     OF12285   1.167   4.940   6.473  0.6672 -0.3932 -0.5354
  117OSM    C2F12286   1.041   4.794   6.619 -0.4993  0.3729 -0.6937
  117OSM    H2F12287   1.132   4.730   6.621  0.6145  1.7612 -2.7812
  117OSM    H2G12288   0.960   4.735   6.572  2.0992 -2.0232 -2.5553
  117OSM    C3F12289   0.994   4.812   6.767  0.3083 -0.7422 -0.2907
  117OSM    H3F12290   0.977   4.714   6.816  0.4421  0.0425  1.4077
  117OSM    H3G12291   0.893   4.859   6.766 -0.0091 -1.3768  0.5194
  117OSM    C4F12292   1.104   4.876   6.851  0.5508 -0.1839 -0.9792
  117OSM    H4F12293   1.140   4.977   6.823  0.0825  0.8507  1.8412
  117OSM    H4G12294   1.194   4.811   6.854  0.2091 -0.6421 -0.2701
  117OSM    C5F12295   1.051   4.879   7.000 -0.1186  0.0204  0.0615
  117OSM    H5F12296   0.975   4.960   7.012 -2.1096 -1.9195  1.2613
  117OSM    H5G12297   1.129   4.913   7.072  0.8878 -1.5092 -0.2632
  117OSM    C6F12298   0.999   4.749   7.054 -0.4227  0.5502 -0.2965
  117OSM    H6F12299   1.063   4.659   7.042 -0.4110  0.5718 -0.3947
  117OSM    H6G12300   0.906   4.727   6.997 -0.0996 -0.1178 -0.5769
  117OSM    C7F12301   0.973   4.758   7.200  0.3362  0.7210 -0.3853
  117OSM    H7F12302   0.910   4.848   7.210 -0.2893  0.0329  3.1103
  117OSM    H7G12303   1.074   4.777   7.242  0.8628 -2.1405 -0.1176
  117OSM    C8F12304   0.908   4.636   7.274  0.2784  0.4168 -0.5246
  117OSM    H8F12305   0.912   4.651   7.384  0.2950  0.7324 -0.5669
  117OSM    H8G12306   0.966   4.545   7.248 -0.8216 -0.1506 -1.0461
  117OSM    C9F12307   0.768   4.624   7.224 -0.2713  0.3879  0.9710
  117OSM    H9F12308   0.765   4.651   7.117 -0.0647 -3.7794 -0.2663
  117OSM   C10F12309   0.661   4.573   7.279  1.0063 -0.2699 -0.6518
  117OSM   H10F12310   0.565   4.584   7.226  1.6708 -0.1723 -1.8692
  117OSM   C11F12311   0.643   4.513   7.419 -0.3278  0.3957 -0.0339
  117OSM   H11F12312   0.712   4.432   7.449 -1.5556 -0.4049  0.7240
  117OSM   H11G12313   0.541   4.475   7.438 -0.2709  0.1222 -0.2617
  117OSM   C12F12314   0.659   4.624   7.527 -0.2431  0.3548  0.6754
  117OSM   H12F12315   0.573   4.694   7.520 -0.5243 -0.1058 -0.9795
  117OSM   H12G12316   0.749   4.684   7.502  0.0272 -0.6596 -0.9286
  117OSM   C13F12317   0.666   4.565   7.671 -0.1247 -0.0040  0.1296
  117OSM   H13F12318   0.757   4.501   7.662  0.4107  0.9355 -1.5531
  117OSM   H13G12319   0.576   4.500   7.675 -0.4110  0.2036 -1.7518
  117OSM   C14F12320   0.666   4.673   7.781 -0.0676 -0.0874 -0.3855
  117OSM   H14F12321   0.587   4.748   7.758 -1.1862 -1.1435 -0.1066
  117OSM   H14G12322   0.759   4.732   7.766  0.2029 -0.6239 -0.8443
  117OSM   C15F12323   0.661   4.632   7.925  0.0354  0.6421  0.4496
  117OSM   H15F12324   0.557   4.603   7.951  0.1729 -1.0358 -0.7152
  117OSM   H15G12325   0.701   4.716   7.987  2.1423  1.7390 -2.1575
  117OSM   C16F12326   0.764   4.516   7.954 -0.0614  0.5299 -0.0990
  117OSM   H16F12327   0.866   4.538   7.915  0.2261 -1.1547 -0.4048
  117OSM   H16G12328   0.718   4.435   7.894 -0.9410  1.0853 -0.1880
  117OSM   C17F12329   0.767   4.474   8.104  0.1044 -0.4275  0.4693
  117OSM   H17F12330   0.831   4.387   8.127 -2.0873 -2.2476  0.0338
  117OSM   H17G12331   0.808   4.562   8.157  3.6185 -1.1750 -0.6947
  117OSM   C18F12332   0.634   4.439   8.168  0.2892  0.4083  0.3786
  117OSM   H18F12333   0.582   4.356   8.114  1.6411 -0.3722  0.2231
  117OSM   H18G12334   0.569   4.529   8.174  1.0183  1.2089 -2.2690
  117OSM   H18H12335   0.644   4.396   8.270  0.0436  1.8531  1.0301
  118OSM      N12336   3.478   2.032   5.592  0.8103  0.1919  0.3358
  118OSM    C1512337   3.464   1.910   5.507 -0.4330  0.7210 -0.1874
  118OSM   H15A12338   3.558   1.858   5.500  0.5352  2.4400 -0.3274
  118OSM   H15B12339   3.434   1.940   5.408 -0.6977  1.2581  0.0500
  118OSM   H15C12340   3.390   1.841   5.546  0.7697 -0.9145 -0.6959
  118OSM    C1412341   3.560   2.132   5.520  0.0060 -0.3373 -0.3859
  118OSM   H14A12342   3.518   2.136   5.420  0.4992  0.0360 -0.5840
  118OSM   H14B12343   3.661   2.095   5.506  0.1507 -0.5442  1.0859
  118OSM   H14C12344   3.575   2.231   5.559  1.1200 -1.2198  1.5734
  118OSM    C1312345   3.345   2.089   5.620 -0.3626  0.4122 -0.6737
  118OSM   H13A12346   3.353   2.167   5.695  0.0933  0.4093 -0.7188
  118OSM   H13B12347   3.293   2.006   5.667  1.2534  1.6855  3.9040
  118OSM   H13C12348   3.295   2.122   5.530 -1.8182 -3.1915 -1.3815
  118OSM    C1212349   3.547   2.009   5.724 -0.2850 -0.1107 -0.0852
  118OSM   H12A12350   3.544   2.098   5.785  3.4185 -1.0622  1.7552
  118OSM   H12B12351   3.652   1.990   5.708 -0.2140  0.8829 -0.8613
  118OSM    C1112352   3.484   1.889   5.791 -0.5128  0.3635  0.5893
  118OSM   H11A12353   3.514   1.799   5.732  1.1447  1.3043 -0.0801
  118OSM   H11B12354   3.374   1.882   5.784 -0.3938  0.2745 -2.3565
  118OSM      P12355   3.668   1.812   5.961 -0.1766  0.2052  0.1384
  118OSM    O1312356   3.635   1.708   6.060 -0.1197 -0.2549  0.0831
  118OSM    O1412357   3.745   1.772   5.843 -0.0832  0.1258  0.2756
  118OSM    O1112358   3.741   1.927   6.029  0.3077  0.0639 -0.5371
  118OSM    O1212359   3.525   1.874   5.922 -0.5188 -0.7029  0.0123
  118OSM    C1S12360   3.672   1.999   6.132 -0.5723 -0.5346  0.0287
  118OSM    H1S12361   3.562   2.000   6.114 -0.4767  1.0080 -0.6145
  118OSM    H1T12362   3.704   2.105   6.128 -1.1443 -0.1813  2.7155
  118OSM     NF12363   3.622   2.036   6.374 -0.0235  0.4399  0.2398
  118OSM    HNF12364   3.669   2.116   6.411 -0.5958  0.6437  0.5528
  118OSM    C2S12365   3.701   1.955   6.280 -0.4055 -0.0817 -0.1774
  118OSM    H2S12366   3.670   1.848   6.289 -2.2000  0.4471  0.3113
  118OSM    C3S12367   3.857   1.959   6.305  0.7150 -0.4216 -0.4977
  118OSM    H3S12368   3.908   2.054   6.280  0.8973 -1.3335 -4.1637
  118OSM     O312369   3.932   1.865   6.223  0.0763  0.0850  0.0634
  118OSM    HO312370   3.862   1.834   6.164 -1.5675  0.0076  1.9614
  118OSM    C4S12371   3.885   1.935   6.447  0.2917  1.1422 -0.8709
  118OSM    H4S12372   3.928   2.020   6.502  0.5594  0.5403 -0.1291
  118OSM    C5S12373   3.894   1.814   6.508 -0.0783 -0.0850 -0.6603
  118OSM    H5S12374   3.877   1.726   6.445 -0.9326  0.3428 -1.0491
  118OSM    C6S12375   3.936   1.775   6.648  0.8276 -0.4019  0.8271
  118OSM    H6S12376   4.031   1.716   6.649  0.7102 -0.5895  1.0675
  118OSM    H6T12377   3.871   1.701   6.700  0.0888 -1.6957 -1.7178
  118OSM    C7S12378   3.946   1.902   6.742 -0.2938  0.1173 -0.6653
  118OSM    H7S12379   3.853   1.962   6.746 -0.4323 -0.0687 -1.1197
  118OSM    H7T12380   4.020   1.973   6.700 -0.2531 -1.1303 -2.8533
  118OSM    C8S12381   3.981   1.863   6.895 -0.1214  0.0757  1.4305
  118OSM    H8S12382   3.892   1.825   6.950 -0.6685  0.0682  0.5611
  118OSM    H8T12383   4.013   1.955   6.948  0.8896  0.0968  0.8049
  118OSM    C9S12384   4.105   1.777   6.894  0.7140  0.3433  0.5787
  118OSM    H9S12385   4.180   1.810   6.819  1.0920 -0.6933  0.4856
  118OSM    H9T12386   4.092   1.669   6.871  1.2970 -0.1868  2.5931
  118OSM   C10S12387   4.171   1.773   7.042  0.7857 -0.2366  0.7276
  118OSM   H10S12388   4.214   1.872   7.069 -0.8373  1.1730 -1.4930
  118OSM   H10T12389   4.259   1.706   7.035  1.5677  0.9283 -1.5854
  118OSM   C11S12390   4.083   1.739   7.164 -0.4458 -0.3210 -0.3692
  118OSM   H11S12391   4.039   1.638   7.151  0.9781 -1.0753  0.4209
  118OSM   H11T12392   3.996   1.808   7.163 -1.1220 -1.1597 -2.0105
  118OSM   C12S12393   4.163   1.743   7.296  0.7794  0.7268  0.5847
  118OSM   H12S12394   4.187   1.844   7.335  1.7111  0.4092  0.8378
  118OSM   H12T12395   4.260   1.693   7.277 -0.3092 -1.3748  0.1535
  118OSM   C13S12396   4.102   1.661   7.418 -0.1758  0.2690 -0.0067
  118OSM   H13S12397   4.072   1.559   7.387  1.8127 -0.5251  0.5240
  118OSM   H13T12398   4.020   1.719   7.464  1.6357  1.1174  2.3667
  118OSM   C14S12399   4.211   1.634   7.532 -0.0932  0.3357  0.1370
  118OSM   H14S12400   4.245   1.737   7.559 -0.2773 -0.3010  3.1076
  118OSM   H14T12401   4.297   1.573   7.497 -1.2407 -1.7181  0.7425
  118OSM   C15S12402   4.141   1.570   7.650 -0.7521  0.0048  0.0542
  118OSM   H15S12403   4.112   1.465   7.629 -1.0930  0.2497 -0.7287
  118OSM   H15T12404   4.044   1.613   7.684 -1.5293 -1.2990 -0.4501
  118OSM   C16S12405   4.230   1.558   7.780  0.1346 -0.1851 -0.0846
  118OSM   H16S12406   4.264   1.658   7.813 -0.9195 -0.1370  0.9404
  118OSM   H16T12407   4.323   1.500   7.761 -1.8368 -3.0089 -2.0174
  118OSM   C17S12408   4.157   1.494   7.899  0.3731  0.4703 -0.6816
  118OSM   H17S12409   4.231   1.435   7.957  1.3007  1.1036 -1.1710
  118OSM   H17T12410   4.082   1.425   7.855 -0.0008  0.2964  0.2107
  118OSM   C18S12411   4.084   1.595   7.984  0.2941 -1.4695 -0.0035
  118OSM   H18S12412   4.148   1.679   8.017 -0.4936 -1.3350  1.2623
  118OSM   H18T12413   4.046   1.562   8.084  0.9720  3.4502  2.1637
  118OSM   H18U12414   3.997   1.633   7.927  2.5978 -0.3433 -3.0269
  118OSM    C1F12415   3.493   2.015   6.390  0.4124  0.7812  0.4145
  118OSM     OF12416   3.433   1.934   6.320 -0.2229  0.2606 -0.6349
  118OSM    C2F12417   3.426   2.105   6.491  0.8988 -0.2140 -0.0620
  118OSM    H2F12418   3.330   2.137   6.445  0.2017 -1.1448  0.7079
  118OSM    H2G12419   3.489   2.191   6.522  1.4447 -0.9581  0.9731
  118OSM    C3F12420   3.364   2.048   6.624  0.1716 -0.2358 -0.4796
  118OSM    H3F12421   3.273   1.987   6.601  0.1054  0.0948 -1.1100
  118OSM    H3G12422   3.329   2.130   6.690  3.0890  0.7945 -0.0803
  118OSM    C4F12423   3.477   1.973   6.702  0.7864 -0.4857 -0.2921
  118OSM    H4F12424   3.560   2.046   6.707 -0.0602  0.5647 -0.9912
  118OSM    H4G12425   3.521   1.885   6.651  2.2780 -1.1859  2.0557
  118OSM    C5F12426   3.429   1.916   6.838 -0.1340  0.0854 -0.1240
  118OSM    H5F12427   3.375   1.820   6.823  1.2086 -1.2109  2.7072
  118OSM    H5G12428   3.359   1.996   6.872  0.0394  0.6356 -1.0372
  118OSM    C6F12429   3.551   1.905   6.935  0.4093 -1.6054  0.5262
  118OSM    H6F12430   3.585   2.010   6.951 -2.1366 -0.5591 -0.3904
  118OSM    H6G12431   3.636   1.849   6.890  1.5747  0.7763 -0.4241
  118OSM    C7F12432   3.513   1.852   7.074 -0.2657  0.4822  0.0670
  118OSM    H7F12433   3.452   1.762   7.050 -2.0087  1.7551 -0.4751
  118OSM    H7G12434   3.434   1.913   7.122 -0.7874  0.2531 -0.4822
  118OSM    C8F12435   3.628   1.833   7.174 -0.4172  0.5363 -0.1156
  118OSM    H8F12436   3.654   1.937   7.203 -0.1395  0.8166 -1.3022
  118OSM    H8G12437   3.714   1.799   7.112  0.3171  2.7664 -0.4212
  118OSM    C9F12438   3.600   1.738   7.285 -0.7078  0.2026 -1.1746
  118OSM    H9F12439   3.552   1.641   7.265  0.0236 -0.3005 -0.5456
  118OSM   C10F12440   3.635   1.758   7.414 -0.2766 -0.2670 -0.0610
  118OSM   H10F12441   3.599   1.684   7.488 -0.5629  0.8948  0.9958
  118OSM   C11F12442   3.695   1.876   7.487 -0.5292 -0.1944 -0.2913
  118OSM   H11F12443   3.631   1.967   7.481 -0.4841 -0.1906 -0.7498
  118OSM   H11G12444   3.786   1.899   7.428  0.7436 -1.5780  1.0676
  118OSM   C12F12445   3.755   1.855   7.628  0.6841  0.2834  0.2411
  118OSM   H12F12446   3.826   1.771   7.626 -1.7286 -1.8709 -1.6952
  118OSM   H12G12447   3.666   1.847   7.694 -0.6203  0.7952 -1.3774
  118OSM   C13F12448   3.828   1.984   7.680  0.2919  0.4779  0.6300
  118OSM   H13F12449   3.750   2.063   7.681 -1.3653 -1.0642 -0.3013
  118OSM   H13G12450   3.907   2.005   7.604  0.5359  0.8696  0.9901
  118OSM   C14F12451   3.894   1.965   7.810 -0.5073  0.3433  1.0536
  118OSM   H14F12452   3.954   2.057   7.827  2.6066 -1.4715  0.8100
  118OSM   H14G12453   3.966   1.881   7.808 -0.1161  0.6617  1.5050
  118OSM   C15F12454   3.780   1.958   7.914 -0.2452 -0.5003 -0.5641
  118OSM   H15F12455   3.716   1.868   7.900 -3.5403  1.4491  0.9201
  118OSM   H15G12456   3.710   2.043   7.902  0.9925  0.4414 -1.3754
  118OSM   C16F12457   3.846   1.964   8.058 -0.2209 -0.3374  0.8802
  118OSM   H16F12458   3.873   2.069   8.080 -0.0017 -0.3123  0.5095
  118OSM   H16G12459   3.933   1.896   8.060 -0.1353 -0.2116  1.4159
  118OSM   C17F12460   3.750   1.907   8.169 -0.4386  0.2922 -0.1733
  118OSM   H17F12461   3.810   1.903   8.262  1.1906 -0.7754 -1.2276
  118OSM   H17G12462   3.723   1.804   8.140  0.5752  0.1363 -0.5930
  118OSM   C18F12463   3.626   1.987   8.184  1.1169 -0.9327  0.1150
  118OSM   H18F12464   3.547   1.979   8.107 -1.4457  1.4596  2.2904
  118OSM   H18G12465   3.654   2.094   8.197  0.2893 -0.9620  2.4301
  118OSM   H18H12466   3.557   1.965   8.268  0.5072  0.2873 -0.0422
  119OSM      N12467   3.368   6.411   5.847 -0.0466  0.7532 -0.5946
  119OSM    C1512468   3.252   6.352   5.762 -0.3760 -0.4718  0.0925
  119OSM   H15A12469   3.279   6.374   5.659 -0.9242  0.1729  0.0834
  119OSM   H15B12470   3.159   6.402   5.783 -0.0483  0.9736 -1.6194
  119OSM   H15C12471   3.244   6.246   5.782  1.4944 -0.2335  2.6237
  119OSM    C1412472   3.394   6.554   5.812  0.1851  0.0417 -0.4580
  119OSM   H14A12473   3.489   6.587   5.853  0.0351  0.0580 -0.1272
  119OSM   H14B12474   3.325   6.622   5.858  0.7872  2.0325 -2.3492
  119OSM   H14C12475   3.406   6.564   5.705  0.6195  0.0458 -0.4108
  119OSM    C1312476   3.334   6.409   5.989  0.2977  0.6780 -1.0091
  119OSM   H13A12477   3.424   6.405   6.050 -0.6241  2.0874  0.5027
  119OSM   H13B12478   3.279   6.318   6.009  0.9945 -0.4345 -3.7264
  119OSM   H13C12479   3.269   6.489   6.018 -0.4683  0.1659 -1.2994
  119OSM    C1212480   3.490   6.324   5.812  0.4785 -1.0175  0.8032
  119OSM   H12A12481   3.503   6.314   5.705 -0.8461  0.0972  0.5213
  119OSM   H12B12482   3.475   6.220   5.836 -0.3585 -1.1288 -0.1330
  119OSM    C1112483   3.623   6.363   5.871  0.0033 -1.0328  0.4413
  119OSM   H11A12484   3.655   6.460   5.829  2.2029 -2.0289 -0.3926
  119OSM   H11B12485   3.694   6.293   5.821 -0.7584 -0.5746 -1.3539
  119OSM      P12486   3.670   6.221   6.084  0.2567 -0.1668 -0.1537
  119OSM    O1312487   3.574   6.116   6.040  0.2599 -0.1819 -0.5212
  119OSM    O1412488   3.813   6.200   6.063 -0.5831  0.2022  0.6264
  119OSM    O1112489   3.655   6.252   6.243  0.2137  0.1990 -0.1017
  119OSM    O1212490   3.625   6.352   6.016 -0.1877  0.5329  0.2851
  119OSM    C1S12491   3.532   6.311   6.286  0.3466 -0.1762  0.1565
  119OSM    H1S12492   3.445   6.279   6.226 -2.3948  1.8796  2.7269
  119OSM    H1T12493   3.536   6.420   6.268 -0.1683 -0.5506 -2.6625
  119OSM     NF12494   3.398   6.393   6.472  0.3220 -0.2880  0.6199
  119OSM    HNF12495   3.419   6.479   6.518  1.1942  0.7584 -1.6032
  119OSM    C2S12496   3.512   6.312   6.439  0.4179 -0.7326 -0.2615
  119OSM    H2S12497   3.485   6.207   6.466 -0.6966 -0.6249 -0.8670
  119OSM    C3S12498   3.650   6.364   6.505  0.3655  0.5295 -0.5767
  119OSM    H3S12499   3.685   6.463   6.468  0.4372  0.6093 -0.2933
  119OSM     O312500   3.756   6.271   6.482 -0.0116  0.0187 -0.1991
  119OSM    HO312501   3.732   6.239   6.394 -0.6210  2.0156 -0.8079
  119OSM    C4S12502   3.633   6.384   6.655 -0.2237 -0.0230  0.6633
  119OSM    H4S12503   3.590   6.480   6.688  0.5960 -0.0867  2.0033
  119OSM    C5S12504   3.663   6.299   6.755  0.0969 -0.5111  0.0376
  119OSM    H5S12505   3.704   6.201   6.725 -0.4181 -1.0764  1.1406
  119OSM    C6S12506   3.645   6.306   6.905 -0.0745  0.1585  0.5572
  119OSM    H6S12507   3.612   6.412   6.920 -2.4745 -0.2943 -0.8521
  119OSM    H6T12508   3.744   6.291   6.953 -0.1209  3.2105  1.8854
  119OSM    C7S12509   3.535   6.224   6.966  0.5482  0.2326 -0.3110
  119OSM    H7S12510   3.562   6.119   6.945  0.5786  0.4382 -1.3734
  119OSM    H7T12511   3.431   6.244   6.932 -0.3158  0.6222  2.3139
  119OSM    C8S12512   3.530   6.253   7.121 -0.1407 -0.6270  0.4663
  119OSM    H8S12513   3.487   6.356   7.130 -0.5745 -0.6761 -0.8179
  119OSM    H8T12514   3.632   6.256   7.163 -0.3535  3.9819  1.2780
  119OSM    C9S12515   3.436   6.159   7.186  0.2244 -0.1238  0.0403
  119OSM    H9S12516   3.467   6.053   7.196  0.4045 -0.1599 -0.7908
  119OSM    H9T12517   3.355   6.140   7.112 -0.5114 -2.0119  1.2577
  119OSM   C10S12518   3.402   6.200   7.332 -0.5229  0.2756 -0.6195
  119OSM   H10S12519   3.298   6.161   7.339 -0.0359 -1.0656 -0.5340
  119OSM   H10T12520   3.398   6.311   7.337  0.2780  0.3212 -0.8282
  119OSM   C11S12521   3.485   6.139   7.445  0.0614  0.2666 -0.3381
  119OSM   H11S12522   3.590   6.170   7.425 -0.3330  1.7934 -0.2185
  119OSM   H11T12523   3.495   6.029   7.442 -1.1369  0.0975  0.8490
  119OSM   C12S12524   3.436   6.173   7.590  0.0535  0.2089  0.0107
  119OSM   H12S12525   3.342   6.115   7.596  0.4251 -0.5303 -0.9543
  119OSM   H12T12526   3.421   6.283   7.598  0.8947  0.6843 -3.3253
  119OSM   C13S12527   3.540   6.110   7.689  0.4134 -0.9988 -0.8576
  119OSM   H13S12528   3.625   6.179   7.710 -2.3002  1.5585  3.1458
  119OSM   H13T12529   3.574   6.009   7.656  0.4600 -1.4922  0.5979
  119OSM   C14S12530   3.466   6.112   7.825  0.3623  0.5050 -0.1977
  119OSM   H14S12531   3.366   6.068   7.808  0.2518  0.9857 -0.8229
  119OSM   H14T12532   3.453   6.218   7.855  0.3761  0.3544  0.3451
  119OSM   C15S12533   3.545   6.050   7.934 -0.4121  0.6769 -0.5504
  119OSM   H15S12534   3.645   6.096   7.942  0.5294 -0.9345 -2.2992
  119OSM   H15T12535   3.560   5.943   7.906 -2.8037  0.5023 -1.3986
  119OSM   C16S12536   3.482   6.061   8.079 -0.5745 -0.1049 -0.0707
  119OSM   H16S12537   3.538   5.984   8.136 -0.1077  2.2713  2.8626
  119OSM   H16T12538   3.376   6.034   8.099 -0.3981  0.0003  1.0679
  119OSM   C17S12539   3.495   6.200   8.148  0.2165 -0.6902 -0.3844
  119OSM   H17S12540   3.417   6.271   8.112  2.3980  2.6577  0.9553
  119OSM   H17T12541   3.593   6.242   8.116  0.2292 -0.0241  0.4802
  119OSM   C18S12542   3.499   6.192   8.299  0.6441 -0.1256 -0.3942
  119OSM   H18S12543   3.482   6.286   8.355  1.6090 -0.1364 -0.0634
  119OSM   H18T12544   3.594   6.151   8.340  0.9280  0.5056 -0.4141
  119OSM   H18U12545   3.423   6.122   8.339  0.1983 -0.5322 -1.8809
  119OSM    C1F12546   3.277   6.364   6.418 -0.3832 -0.4379  0.0690
  119OSM     OF12547   3.257   6.273   6.333  0.4399  0.1802 -0.4942
  119OSM    C2F12548   3.163   6.453   6.470  0.1418 -0.4034 -0.2576
  119OSM    H2F12549   3.106   6.495   6.384  2.7573  3.0244 -0.5303
  119OSM    H2G12550   3.200   6.528   6.542  1.2714 -2.0539  0.9596
  119OSM    C3F12551   3.073   6.363   6.558 -0.1990  0.5051  0.4377
  119OSM    H3F12552   3.017   6.288   6.498  0.3142 -0.6553  1.3693
  119OSM    H3G12553   2.994   6.428   6.600 -0.7936  0.3000 -0.3448
  119OSM    C4F12554   3.138   6.303   6.684 -0.3463 -0.3654  0.8811
  119OSM    H4F12555   3.122   6.377   6.765 -1.1509 -0.5991  0.9432
  119OSM    H4G12556   3.245   6.293   6.656 -1.2049  0.4763 -3.3509
  119OSM    C5F12557   3.077   6.176   6.732  0.2034  0.0933  0.7346
  119OSM    H5F12558   3.060   6.105   6.648 -0.6897 -1.1636  1.9246
  119OSM    H5G12559   2.972   6.192   6.765 -0.9138 -2.4965 -1.1425
  119OSM    C6F12560   3.167   6.097   6.832  0.7006  0.1504 -0.2335
  119OSM    H6F12561   3.202   6.171   6.907  0.8165  0.8636 -0.9843
  119OSM    H6G12562   3.262   6.057   6.790  1.6326  1.8464  0.1570
  119OSM    C7F12563   3.086   5.986   6.903  0.0951 -0.0906  0.1249
  119OSM    H7F12564   3.054   5.911   6.827  0.8943 -0.6712  0.3545
  119OSM    H7G12565   2.990   6.030   6.936  0.9815  0.6851  1.8213
  119OSM    C8F12566   3.160   5.926   7.029 -0.3812  0.0470  0.3658
  119OSM    H8F12567   3.173   6.015   7.094  1.2363  0.6629 -0.7268
  119OSM    H8G12568   3.260   5.908   6.984  0.1157  1.4930  0.8300
  119OSM    C9F12569   3.090   5.811   7.100 -0.3518  0.1710  0.1542
  119OSM    H9F12570   3.108   5.714   7.052 -2.5753 -0.9826  1.5305
  119OSM   C10F12571   3.036   5.820   7.229  0.1246  0.6766  0.2855
  119OSM   H10F12572   2.999   5.733   7.284 -0.5857 -0.0842 -1.3115
  119OSM   C11F12573   3.030   5.939   7.325  0.5397  0.2323  0.9413
  119OSM   H11F12574   3.036   6.038   7.275  0.1534  0.1086  0.6459
  119OSM   H11G12575   3.125   5.928   7.380 -0.5346 -0.3990  2.7463
  119OSM   C12F12576   2.911   5.919   7.423 -0.1285 -0.7305 -0.1089
  119OSM   H12F12577   2.903   5.816   7.464 -0.1283 -0.6953 -0.0196
  119OSM   H12G12578   2.818   5.946   7.370 -0.2472  1.0798  0.9457
  119OSM   C13F12579   2.919   5.995   7.557 -0.0439  0.2739  0.0222
  119OSM   H13F12580   2.820   6.008   7.606 -0.4740  1.6337 -1.1467
  119OSM   H13G12581   2.956   6.097   7.534  1.1468 -0.1557 -0.0422
  119OSM   C14F12582   3.013   5.939   7.666  0.0460 -0.2767 -0.0017
  119OSM   H14F12583   3.118   5.947   7.632  0.1898  0.4247  0.5816
  119OSM   H14G12584   2.994   5.830   7.674  0.8277 -0.5034 -1.1295
  119OSM   C15F12585   2.980   6.005   7.809 -0.5251 -0.7093 -0.1707
  119OSM   H15F12586   2.978   6.111   7.775  1.8396 -0.3208  0.6981
  119OSM   H15G12587   3.067   6.007   7.878 -0.8296  0.2565  0.1974
  119OSM   C16F12588   2.860   5.943   7.883 -0.2989 -0.2910  0.6514
  119OSM   H16F12589   2.886   5.838   7.908  1.4750  0.4835  2.3174
  119OSM   H16G12590   2.768   5.944   7.822  0.5409 -0.4338 -0.6636
  119OSM   C17F12591   2.818   6.017   8.014  0.4729 -0.5878 -0.1057
  119OSM   H17F12592   2.775   6.118   7.994  2.0273  0.4601  1.6273
  119OSM   H17G12593   2.910   6.027   8.074 -0.6130  0.4713  1.4533
  119OSM   C18F12594   2.720   5.954   8.110 -0.0884  0.0687 -0.7737
  119OSM   H18F12595   2.741   5.845   8.114 -2.2308 -0.3942 -0.5701
  119OSM   H18G12596   2.612   5.963   8.082  0.0776  1.9429 -0.9336
  119OSM   H18H12597   2.729   6.005   8.208  0.8646  1.7954 -1.7248
  120OSM      N12598   0.092   4.557   6.294  0.0502 -0.2240  0.4885
  120OSM    C1512599   0.065   4.656   6.183  1.2119  0.2195 -0.9810
  120OSM   H15A12600   0.158   4.669   6.129  0.2121 -1.2800 -3.1953
  120OSM   H15B12601   0.026   4.749   6.222  0.8559 -0.9583  1.6390
  120OSM   H15C12602  -0.012   4.620   6.117  0.6931  0.6680 -0.6284
  120OSM    C1412603   0.138   4.430   6.245 -0.3760  0.4502  0.3521
  120OSM   H14A12604   0.063   4.365   6.203  0.6775 -0.2234 -0.5377
  120OSM   H14B12605   0.161   4.370   6.332  0.5241 -0.1075 -0.2493
  120OSM   H14C12606   0.216   4.440   6.171 -0.0502  2.5453  0.9228
  120OSM    C1312607   0.194   4.616   6.387  0.2330  0.2108 -0.2327
  120OSM   H13A12608   0.205   4.723   6.381  2.8562  0.0001 -0.3000
  120OSM   H13B12609   0.287   4.570   6.359 -0.2836 -0.6296 -0.6218
  120OSM   H13C12610   0.167   4.591   6.489  1.1179 -0.9925 -0.2768
  120OSM    C1212611  -0.041   4.549   6.358 -0.1143 -0.1956 -0.1351
  120OSM   H12A12612  -0.053   4.640   6.414 -0.0645 -0.8270  0.9133
  120OSM   H12B12613  -0.041   4.478   6.439 -0.1992 -0.2406 -0.1741
  120OSM    C1112614  -0.162   4.511   6.279  0.6862  0.6309  0.1971
  120OSM   H11A12615  -0.188   4.570   6.188  1.3038  0.0385 -0.3764
  120OSM   H11B12616  -0.247   4.527   6.349  0.7214 -3.3368  1.3807
  120OSM      P12617  -0.172   4.247   6.343  0.4606 -0.4349 -0.4782
  120OSM    O1312618  -0.308   4.188   6.325 -0.0049  0.0192  0.1570
  120OSM    O1412619  -0.054   4.158   6.314 -0.1080 -0.2163  0.1979
  120OSM    O1112620  -0.162   4.312   6.488 -0.5140 -0.1613 -0.6997
  120OSM    O1212621  -0.157   4.376   6.252 -0.1752 -0.4617 -0.1095
  120OSM    C1S12622  -0.185   4.218   6.607 -0.2761  0.3222 -0.1784
  120OSM    H1S12623  -0.127   4.123   6.603  0.7298  0.8058  2.0612
  120OSM    H1T12624  -0.290   4.183   6.619  0.2039 -0.8290  0.8276
  120OSM     NF12625  -0.100   4.190   6.843  0.2023  0.7529 -0.0259
  120OSM    HNF12626  -0.172   4.154   6.902  0.7082  1.3628  0.9892
  120OSM    C2S12627  -0.142   4.285   6.746 -0.0891 -0.6750 -0.5913
  120OSM    H2S12628  -0.054   4.350   6.728 -1.0365  0.7554 -0.2093
  120OSM    C3S12629  -0.249   4.381   6.797 -0.3378 -0.0083  0.5527
  120OSM    H3S12630  -0.335   4.313   6.819  0.9651 -2.0708 -0.3943
  120OSM     O312631  -0.287   4.481   6.706  0.9578 -0.1227 -0.0502
  120OSM    HO312632  -0.268   4.444   6.619  0.6837  2.4765 -1.3306
  120OSM    C4S12633  -0.217   4.465   6.916 -0.8621  0.3120  0.0841
  120OSM    H4S12634  -0.115   4.506   6.918 -0.7014  0.0028 -1.0341
  120OSM    C5S12635  -0.301   4.491   7.015  0.2070 -0.2638  0.2069
  120OSM    H5S12636  -0.406   4.459   7.007 -0.0787  0.9829 -1.8815
  120OSM    C6S12637  -0.264   4.559   7.144  0.7250 -0.0064  0.0790
  120OSM    H6S12638  -0.325   4.652   7.146 -3.4392 -2.4563 -0.4305
  120OSM    H6T12639  -0.155   4.568   7.159  0.8054 -2.3342  1.4462
  120OSM    C7S12640  -0.301   4.465   7.263 -0.1814 -1.0217 -0.5384
  120OSM    H7S12641  -0.257   4.364   7.255 -1.5078 -1.7078  0.4340
  120OSM    H7T12642  -0.411   4.449   7.266 -0.2726 -0.2590  1.3677
  120OSM    C8S12643  -0.276   4.531   7.401  0.1810  0.2013  0.1119
  120OSM    H8S12644  -0.333   4.627   7.401  0.6474  0.5213 -1.6558
  120OSM    H8T12645  -0.170   4.564   7.412  0.1136  0.4461  0.0339
  120OSM    C9S12646  -0.330   4.445   7.513 -0.1075 -0.7322 -0.0139
  120OSM    H9S12647  -0.278   4.347   7.505 -0.3269 -0.7127 -2.5585
  120OSM    H9T12648  -0.433   4.409   7.492  0.8400 -3.5962 -0.2111
  120OSM   C10S12649  -0.303   4.513   7.649  0.1190 -0.6380  0.7121
  120OSM   H10S12650  -0.358   4.610   7.646 -2.4839 -2.0471 -0.1852
  120OSM   H10T12651  -0.194   4.530   7.642  0.2291 -1.2618  0.9174
  120OSM   C11S12652  -0.332   4.442   7.782 -0.1086  0.5306  0.3762
  120OSM   H11S12653  -0.265   4.354   7.774  3.2357  2.6203  2.7940
  120OSM   H11T12654  -0.439   4.416   7.791 -0.0385  0.6004  1.4635
  120OSM   C12S12655  -0.283   4.526   7.898  0.1555  0.2951  0.4466
  120OSM   H12S12656  -0.302   4.631   7.867 -2.6865 -0.3372 -0.1950
  120OSM   H12T12657  -0.173   4.518   7.911  0.1122 -0.9326  0.1889
  120OSM   C13S12658  -0.367   4.510   8.029 -0.6840  0.9378 -0.0740
  120OSM   H13S12659  -0.292   4.497   8.110 -0.7365 -0.1163 -0.1829
  120OSM   H13T12660  -0.431   4.420   8.021 -0.0663  0.5153 -0.3371
  120OSM   C14S12661  -0.448   4.633   8.062 -0.8212  0.5284 -0.1250
  120OSM   H14S12662  -0.547   4.629   8.013 -0.1752  0.5707 -1.4789
  120OSM   H14T12663  -0.390   4.722   8.032  0.9341 -0.3480  0.5182
  120OSM   C15S12664  -0.480   4.647   8.218 -0.6031 -0.0370  0.3542
  120OSM   H15S12665  -0.386   4.651   8.277 -0.4233  0.1571  0.0594
  120OSM   H15T12666  -0.544   4.560   8.242  0.4301 -1.3926 -1.5745
  120OSM   C16S12667  -0.542   4.785   8.245 -0.1171  0.1874 -0.4666
  120OSM   H16S12668  -0.623   4.794   8.169 -0.7575  1.8925  0.3729
  120OSM   H16T12669  -0.471   4.869   8.231 -2.2056  2.1212 -0.0500
  120OSM   C17S12670  -0.609   4.801   8.384  0.4753  0.2755 -0.1580
  120OSM   H17S12671  -0.596   4.907   8.416 -1.7031  0.0491  1.6549
  120OSM   H17T12672  -0.564   4.732   8.458  0.1974 -0.4027 -0.6116
  120OSM   C18S12673  -0.760   4.770   8.365 -0.0388  0.3880 -0.3622
  120OSM   H18S12674  -0.769   4.687   8.291  1.8376  0.4206 -0.6691
  120OSM   H18T12675  -0.817   4.855   8.320 -1.0481  0.2676  0.6457
  120OSM   H18U12676  -0.819   4.743   8.455 -1.6443  0.9817 -1.1937
  120OSM    C1F12677   0.010   4.115   6.833  0.3432  0.4475  0.1147
  120OSM     OF12678   0.082   4.117   6.735 -0.1187 -0.2051  0.0778
  120OSM    C2F12679   0.030   4.014   6.940  0.2746  0.2146 -0.4663
  120OSM    H2F12680  -0.030   3.922   6.922 -1.8277  0.9320  2.1486
  120OSM    H2G12681  -0.009   4.059   7.034 -0.7334 -0.9094 -0.3238
  120OSM    C3F12682   0.174   3.960   6.966 -0.7636  0.2893 -0.0642
  120OSM    H3F12683   0.244   4.043   6.989 -1.4607  0.6121  1.0074
  120OSM    H3G12684   0.211   3.912   6.873 -0.7935  0.8652 -0.3773
  120OSM    C4F12685   0.173   3.858   7.083  0.0928  0.2895 -0.6955
  120OSM    H4F12686   0.268   3.802   7.083  0.9853  1.7363 -1.2561
  120OSM    H4G12687   0.082   3.795   7.075 -0.4164  0.9086 -0.0490
  120OSM    C5F12688   0.185   3.930   7.215 -0.2387 -0.4268  0.4430
  120OSM    H5F12689   0.094   3.994   7.224 -0.2111 -0.4386  0.8325
  120OSM    H5G12690   0.274   3.995   7.203 -1.5495  1.0656 -1.9241
  120OSM    C6F12691   0.198   3.831   7.329  1.4538  0.1081  0.4820
  120OSM    H6F12692   0.220   3.888   7.422  0.4224  0.7965  0.3155
  120OSM    H6G12693   0.289   3.772   7.308  2.0393  0.9332  0.6500
  120OSM    C7F12694   0.078   3.732   7.358  0.1664 -0.5181 -0.6162
  120OSM    H7F12695   0.029   3.707   7.262 -2.1564 -0.3403  0.4412
  120OSM    H7G12696  -0.002   3.792   7.406 -0.5667 -1.4302 -0.6851
  120OSM    C8F12697   0.116   3.621   7.458  0.4073  0.1596  0.1649
  120OSM    H8F12698   0.184   3.678   7.525  0.1196 -0.5924  1.1306
  120OSM    H8G12699   0.180   3.546   7.405  0.7075  0.3837  0.2092
  120OSM    C9F12700   0.000   3.535   7.512 -0.4949 -0.4083 -0.2129
  120OSM    H9F12701  -0.022   3.447   7.449 -2.3496 -2.2151  2.7415
  120OSM   C10F12702  -0.052   3.529   7.631  0.0377 -0.1803  0.8796
  120OSM   H10F12703  -0.147   3.475   7.633 -1.1163  1.5770 -1.6079
  120OSM   C11F12704  -0.027   3.611   7.756  0.7652 -0.1668 -0.1812
  120OSM   H11F12705  -0.111   3.679   7.781  2.3492  1.5571  0.6231
  120OSM   H11G12706   0.054   3.685   7.744  0.5886 -0.1766 -1.5047
  120OSM   C12F12707  -0.006   3.524   7.881  0.2436 -0.2087  0.5900
  120OSM   H12F12708   0.095   3.477   7.873  0.1754 -0.0834 -1.4965
  120OSM   H12G12709  -0.073   3.436   7.872  1.0225 -0.6641 -1.3052
  120OSM   C13F12710  -0.033   3.600   8.012 -0.2791  0.4042 -0.2912
  120OSM   H13F12711  -0.143   3.605   8.002 -0.3252  0.0707  0.0327
  120OSM   H13G12712   0.031   3.691   8.005  0.7746 -0.4380 -3.1048
  120OSM   C14F12713  -0.011   3.513   8.139  0.5399  0.0298 -0.0107
  120OSM   H14F12714   0.100   3.515   8.148  0.8423  0.5350 -2.8337
  120OSM   H14G12715  -0.049   3.410   8.122 -0.8456  0.7122 -1.2540
  120OSM   C15F12716  -0.067   3.574   8.267 -0.5806 -0.4053 -0.4745
  120OSM   H15F12717  -0.078   3.491   8.340  0.0364 -1.8544 -1.9544
  120OSM   H15G12718  -0.169   3.613   8.247 -1.7752 -2.1667  1.6770
  120OSM   C16F12719   0.026   3.685   8.317  0.2939  0.2162  0.6624
  120OSM   H16F12720   0.038   3.754   8.231 -0.4486 -0.9744 -0.4189
  120OSM   H16G12721   0.131   3.656   8.342  0.1220  0.2282  1.4437
  120OSM   C17F12722  -0.049   3.750   8.433 -0.2287 -0.2587 -0.5928
  120OSM   H17F12723  -0.036   3.680   8.519  1.7134 -0.2231 -0.7958
  120OSM   H17G12724  -0.156   3.757   8.405 -0.3337  1.1401  0.0781
  120OSM   C18F12725   0.008   3.885   8.482 -0.2932  0.2595 -0.0515
  120OSM   H18F12726   0.012   3.962   8.401  0.9008  0.7857  0.4803
  120OSM   H18G12727   0.112   3.875   8.518  0.3185 -2.5499 -2.2336
  120OSM   H18H12728  -0.057   3.938   8.554 -1.4688  1.9671 -2.2318
  121OSM      N12729   3.797   5.145   5.698  0.1234  0.1874 -0.3900
  121OSM    C1512730   3.655   5.135   5.656  0.5321 -0.1816 -0.0113
  121OSM   H15A12731   3.649   5.134   5.548  0.8669 -1.3323 -0.0335
  121OSM   H15B12732   3.611   5.226   5.696 -0.0484 -0.1791 -0.6440
  121OSM   H15C12733   3.599   5.052   5.696  1.3994 -1.1251 -0.7242
  121OSM    C1412734   3.864   5.009   5.653 -0.2482 -0.2767  0.2980
  121OSM   H14A12735   3.789   4.934   5.669 -1.6178  0.9102 -0.2838
  121OSM   H14B12736   3.959   4.993   5.701 -0.9298  0.0640  1.7938
  121OSM   H14C12737   3.880   5.010   5.546 -1.7621 -2.6006 -0.0160
  121OSM    C1312738   3.868   5.253   5.624  0.4582  0.3223  0.2325
  121OSM   H13A12739   3.973   5.260   5.651 -0.1768  2.7635  2.6293
  121OSM   H13B12740   3.826   5.350   5.647 -0.2533  0.0104  0.2797
  121OSM   H13C12741   3.867   5.242   5.517  0.8466 -0.9643  0.3503
  121OSM    C1212742   3.818   5.149   5.848  0.6549 -0.1261  0.0160
  121OSM   H12A12743   3.925   5.155   5.861  0.6782 -1.3361  0.4626
  121OSM   H12B12744   3.796   5.056   5.899  0.8907 -0.8414 -1.1451
  121OSM    C1112745   3.764   5.265   5.936 -0.3184  0.2846  0.0838
  121OSM   H11A12746   3.788   5.365   5.894  1.0309 -0.0499 -0.0011
  121OSM   H11B12747   3.814   5.269   6.036 -0.1150  1.9970 -0.0583
  121OSM      P12748   3.562   5.147   6.033  0.0310 -0.1867 -0.2275
  121OSM    O1312749   3.416   5.152   6.010  0.0011  0.5290  0.0217
  121OSM    O1412750   3.621   5.012   6.020 -0.7392  0.2303  0.2946
  121OSM    O1112751   3.598   5.193   6.175 -0.0697 -0.2609  1.3272
  121OSM    O1212752   3.627   5.261   5.940 -0.2879  0.1350 -0.0906
  121OSM    C1S12753   3.513   5.288   6.238 -0.0729  0.1160 -0.2221
  121OSM    H1S12754   3.405   5.261   6.238  0.0192 -0.3933  1.7137
  121OSM    H1T12755   3.524   5.392   6.201  1.5743  1.0082  2.4835
  121OSM     NF12756   3.468   5.387   6.459  0.0334 -0.2636  0.7051
  121OSM    HNF12757   3.478   5.486   6.461  2.0234 -0.3858 -0.4533
  121OSM    C2S12758   3.560   5.299   6.386 -0.2492  0.4599 -0.3992
  121OSM    H2S12759   3.557   5.198   6.432 -1.5760  0.9080  0.5743
  121OSM    C3S12760   3.703   5.351   6.399 -0.7309  0.0740  0.3237
  121OSM    H3S12761   3.709   5.458   6.369 -0.1713  0.8925  3.0694
  121OSM     O312762   3.797   5.282   6.315 -0.9235  0.1943  0.0446
  121OSM    HO312763   3.738   5.232   6.258  0.1455  2.8574 -3.8007
  121OSM    C4S12764   3.743   5.357   6.545  0.5555 -0.0716 -0.1506
  121OSM    H4S12765   3.695   5.447   6.586 -1.1463 -0.8440 -0.3583
  121OSM    C5S12766   3.806   5.269   6.621 -0.4058  0.3007 -0.0613
  121OSM    H5S12767   3.854   5.179   6.580  1.2763  0.4891  1.3770
  121OSM    C6S12768   3.833   5.277   6.771  0.5477  0.5539  0.5513
  121OSM    H6S12769   3.939   5.244   6.771  1.6666  3.7460  0.7277
  121OSM    H6T12770   3.775   5.195   6.818 -0.2752 -0.3858 -1.9061
  121OSM    C7S12771   3.829   5.414   6.842  0.0765  0.5205  0.0068
  121OSM    H7S12772   3.724   5.449   6.847 -1.1551 -2.5134 -2.1583
  121OSM    H7T12773   3.889   5.481   6.777  0.7661  1.7567  1.8308
  121OSM    C8S12774   3.876   5.400   6.989 -1.1898 -0.0330  0.1225
  121OSM    H8S12775   3.907   5.503   7.014 -0.6832 -0.2844  0.5483
  121OSM    H8T12776   3.967   5.336   6.989 -1.1168 -0.1598 -3.7020
  121OSM    C9S12777   3.769   5.342   7.080 -0.2026  0.1206 -0.0343
  121OSM    H9S12778   3.741   5.240   7.045 -0.8618 -0.4370  1.9879
  121OSM    H9T12779   3.683   5.408   7.055  1.1771  1.8073 -0.5423
  121OSM   C10S12780   3.794   5.343   7.238 -0.3211  0.6188 -0.1861
  121OSM   H10S12781   3.790   5.452   7.261 -2.3270  0.2998  1.2806
  121OSM   H10T12782   3.898   5.306   7.248 -0.7539 -0.4138  0.7285
  121OSM   C11S12783   3.688   5.277   7.319 -0.0454  0.6517 -0.2221
  121OSM   H11S12784   3.698   5.169   7.294  0.5120  1.0642 -1.9231
  121OSM   H11T12785   3.591   5.326   7.299 -1.9295 -2.1912  1.2674
  121OSM   C12S12786   3.710   5.284   7.475  0.2324  0.5722  0.5652
  121OSM   H12S12787   3.817   5.256   7.484 -0.6651 -4.4224 -1.0562
  121OSM   H12T12788   3.654   5.204   7.528  1.0738  0.1795  0.8770
  121OSM   C13S12789   3.687   5.426   7.524 -0.0858 -0.0856  0.6152
  121OSM   H13S12790   3.583   5.456   7.499 -0.0659 -0.6035 -0.1308
  121OSM   H13T12791   3.753   5.491   7.462 -1.3186 -0.4832 -1.2082
  121OSM   C14S12792   3.724   5.460   7.664 -0.3694  0.1273  0.0927
  121OSM   H14S12793   3.684   5.561   7.688 -1.5701 -0.3083 -0.0138
  121OSM   H14T12794   3.835   5.455   7.663 -0.4174 -1.2341 -1.4529
  121OSM   C15S12795   3.675   5.366   7.771  0.4550  0.6498  0.1946
  121OSM   H15S12796   3.705   5.261   7.751  0.8968  0.8245 -0.0743
  121OSM   H15T12797   3.564   5.370   7.764  0.2934 -0.2686  1.7198
  121OSM   C16S12798   3.735   5.397   7.905 -0.1556  0.0792 -0.5845
  121OSM   H16S12799   3.701   5.491   7.953 -0.5771 -0.5170  0.2994
  121OSM   H16T12800   3.846   5.405   7.902 -0.1402  1.0354  1.1180
  121OSM   C17S12801   3.714   5.286   8.004  0.3525 -0.0949  0.1150
  121OSM   H17S12802   3.767   5.319   8.095  2.9619  0.0547 -1.3530
  121OSM   H17T12803   3.760   5.195   7.959  0.8770  1.6844 -3.2377
  121OSM   C18S12804   3.565   5.258   8.041 -0.2853  0.0627 -0.1376
  121OSM   H18S12805   3.532   5.339   8.109  1.2824  2.7628 -2.3727
  121OSM   H18T12806   3.552   5.162   8.095 -1.6669  1.0797  1.4466
  121OSM   H18U12807   3.489   5.271   7.961 -0.7566 -0.2059  0.2635
  121OSM    C1F12808   3.349   5.337   6.483 -0.0572 -0.7733 -0.2131
  121OSM     OF12809   3.311   5.225   6.448  0.4874 -0.4449 -0.1185
  121OSM    C2F12810   3.245   5.430   6.543 -0.2561  0.8585 -0.6449
  121OSM    H2F12811   3.197   5.487   6.460 -0.9405  0.2970 -0.6429
  121OSM    H2G12812   3.298   5.508   6.600 -1.4408  2.4707 -1.6481
  121OSM    C3F12813   3.128   5.363   6.633 -0.2160 -1.1452 -0.0932
  121OSM    H3F12814   3.056   5.297   6.581  0.6814 -1.1276 -1.4262
  121OSM    H3G12815   3.073   5.450   6.673  0.9115 -0.7002  0.5506
  121OSM    C4F12816   3.188   5.283   6.751  0.6883 -0.3512 -0.1793
  121OSM    H4F12817   3.271   5.339   6.799 -1.0715  2.3542 -0.0969
  121OSM    H4G12818   3.221   5.190   6.700  1.6110  0.1475 -0.5148
  121OSM    C5F12819   3.075   5.252   6.852 -0.3758 -0.5001 -0.2342
  121OSM    H5F12820   3.090   5.145   6.880  2.4242 -0.4436 -1.1991
  121OSM    H5G12821   2.975   5.252   6.805  0.0787  3.8336 -1.6039
  121OSM    C6F12822   3.088   5.342   6.974  0.0874  0.8057  0.1030
  121OSM    H6F12823   3.050   5.445   6.952 -0.4630  0.5001 -0.4093
  121OSM    H6G12824   3.195   5.348   7.002 -0.6515  1.1659  3.2764
  121OSM    C7F12825   3.010   5.285   7.095 -0.4194  0.5961 -0.1106
  121OSM    H7F12826   3.055   5.189   7.127 -0.6711  1.7086  4.2342
  121OSM    H7G12827   2.901   5.266   7.080 -1.0716  1.8204  2.5151
  121OSM    C8F12828   3.005   5.379   7.217  0.2281 -0.1552  0.1352
  121OSM    H8F12829   2.962   5.478   7.192  1.3799  0.2653 -0.2823
  121OSM    H8G12830   3.108   5.399   7.254  0.0452  3.5786 -1.0385
  121OSM    C9F12831   2.937   5.312   7.337 -0.1878 -0.0646  0.4631
  121OSM    H9F12832   2.963   5.206   7.355 -0.5506 -0.1050  0.7609
  121OSM   C10F12833   2.847   5.370   7.413 -0.1796 -0.7626 -0.3393
  121OSM   H10F12834   2.801   5.333   7.506 -0.6967  2.7667  0.9611
  121OSM   C11F12835   2.802   5.512   7.391  0.6040  0.5636  0.2570
  121OSM   H11F12836   2.784   5.537   7.284 -0.0404  0.4447  0.3315
  121OSM   H11G12837   2.885   5.580   7.419  1.7828 -0.3738 -0.8759
  121OSM   C12F12838   2.686   5.548   7.483 -0.5111  0.4157 -0.0094
  121OSM   H12F12839   2.661   5.654   7.464 -0.2777  0.9918  2.5751
  121OSM   H12G12840   2.714   5.542   7.590 -0.6884  1.6052  0.1194
  121OSM   C13F12841   2.562   5.464   7.450  0.7355 -0.4307  0.4936
  121OSM   H13F12842   2.557   5.357   7.479  1.5983  0.2254  3.4592
  121OSM   H13G12843   2.538   5.480   7.343 -2.3563 -1.5162  0.9184
  121OSM   C14F12844   2.438   5.525   7.520  0.2235  0.6109  0.1167
  121OSM   H14F12845   2.346   5.475   7.481 -0.7668  3.0943 -0.9223
  121OSM   H14G12846   2.430   5.632   7.492 -1.0024  0.2054 -1.2006
  121OSM   C15F12847   2.450   5.529   7.676 -0.5830  0.1782 -0.3535
  121OSM   H15F12848   2.533   5.599   7.700 -1.3806  0.8172  0.6256
  121OSM   H15G12849   2.480   5.429   7.713 -1.7084  0.2290  0.7713
  121OSM   C16F12850   2.326   5.582   7.753 -0.6295 -0.0161  0.3708
  121OSM   H16F12851   2.240   5.518   7.724  0.8706 -0.3902 -3.9356
  121OSM   H16G12852   2.321   5.686   7.714 -1.7174 -0.6843 -1.3793
  121OSM   C17F12853   2.354   5.621   7.898 -0.6215 -0.0617  0.2934
  121OSM   H17F12854   2.430   5.702   7.895 -1.0201  0.2852 -1.3910
  121OSM   H17G12855   2.392   5.531   7.951 -0.7957 -0.5801 -0.4444
  121OSM   C18F12856   2.247   5.683   7.994  0.0447 -0.4102  0.0658
  121OSM   H18F12857   2.287   5.713   8.093  0.1928 -0.0407 -0.1039
  121OSM   H18G12858   2.167   5.608   8.014 -0.0309 -0.6443 -1.0181
  121OSM   H18H12859   2.196   5.775   7.957 -2.5882 -1.5341  0.6438
  122OSM      N12860   2.530   1.961   5.996 -0.2501 -0.0234 -0.1941
  122OSM    C1512861   2.543   1.966   6.145  0.4630  0.1708  0.6452
  122OSM   H15A12862   2.563   1.868   6.186 -0.0951 -0.4153 -0.4404
  122OSM   H15B12863   2.458   2.007   6.198  0.0696  0.6752 -0.3557
  122OSM   H15C12864   2.623   2.018   6.194  1.4163 -0.0747 -0.6162
  122OSM    C1412865   2.416   1.871   5.969  0.7231  0.7252  0.7231
  122OSM   H14A12866   2.439   1.776   6.015  0.1542  0.5303  0.6069
  122OSM   H14B12867   2.405   1.852   5.864  1.0391 -0.0278  0.8192
  122OSM   H14C12868   2.331   1.927   6.007  1.0572  2.7032 -1.2375
  122OSM    C1312869   2.505   2.105   5.948  0.3420 -0.2306  0.3611
  122OSM   H13A12870   2.500   2.099   5.840 -1.6970  2.7305  0.1866
  122OSM   H13B12871   2.578   2.171   5.992  1.0404 -1.4434  1.0744
  122OSM   H13C12872   2.411   2.142   5.987  0.3622  0.4219 -0.1785
  122OSM    C1212873   2.665   1.907   5.942 -0.0476 -0.1604 -0.3934
  122OSM   H12A12874   2.745   1.956   5.995  0.6995 -1.8632  0.1164
  122OSM   H12B12875   2.666   1.927   5.836 -0.2443  1.6330 -0.0851
  122OSM    C1112876   2.701   1.752   5.952 -0.0362  0.2862  0.0319
  122OSM   H11A12877   2.801   1.739   5.905  0.7873  2.3228  1.0815
  122OSM   H11B12878   2.625   1.707   5.886 -0.3664  1.5659 -0.4881
  122OSM      P12879   2.615   1.579   6.130  0.2648 -0.2570  0.1191
  122OSM    O1312880   2.473   1.595   6.127  0.2035 -0.6944 -0.3632
  122OSM    O1412881   2.674   1.461   6.061  0.0608  0.3825  0.3484
  122OSM    O1112882   2.655   1.564   6.289  0.2517 -0.0138  0.0157
  122OSM    O1212883   2.697   1.710   6.092 -0.1552  0.2498  0.0210
  122OSM    C1S12884   2.685   1.680   6.362  0.2558  0.1123  0.2861
  122OSM    H1S12885   2.590   1.721   6.402  0.2534  2.2569 -1.7277
  122OSM    H1T12886   2.743   1.763   6.317 -0.9123 -0.0229 -1.5825
  122OSM     NF12887   2.793   1.777   6.560 -0.1396  0.3374  0.0081
  122OSM    HNF12888   2.863   1.828   6.512 -1.7051  0.6935 -2.0415
  122OSM    C2S12889   2.775   1.653   6.486  0.3267  0.5615  0.0580
  122OSM    H2S12890   2.716   1.589   6.556 -0.5883  1.0771 -0.2292
  122OSM    C3S12891   2.906   1.577   6.452  0.1002  0.7762  0.0597
  122OSM    H3S12892   2.953   1.643   6.376  0.1100  1.4206  0.6202
  122OSM     O312893   2.883   1.449   6.388  0.0289  0.3719 -0.1528
  122OSM    HO312894   2.791   1.449   6.359  0.0416 -1.0307 -0.2509
  122OSM    C4S12895   2.993   1.550   6.577  0.8587  0.1787 -0.1657
  122OSM    H4S12896   3.066   1.631   6.593  1.1945 -0.4572  1.7915
  122OSM    C5S12897   2.993   1.451   6.661  0.0621  0.4064  0.2880
  122OSM    H5S12898   2.940   1.358   6.636  0.1528  1.1989 -3.3089
  122OSM    C6S12899   3.086   1.448   6.778 -0.1725 -0.8035 -0.7784
  122OSM    H6S12900   3.184   1.398   6.764  0.5149  0.4654 -0.6886
  122OSM    H6T12901   3.053   1.389   6.865  2.8352 -2.0859 -0.3789
  122OSM    C7S12902   3.119   1.580   6.849 -0.2686  0.2605  0.1310
  122OSM    H7S12903   3.017   1.613   6.877 -1.0856 -0.7441 -1.5229
  122OSM    H7T12904   3.168   1.657   6.786  1.0351  1.8647  2.9007
  122OSM    C8S12905   3.197   1.549   6.978  0.4185 -0.5208 -0.2176
  122OSM    H8S12906   3.223   1.651   7.015 -0.6127 -0.0994 -0.6027
  122OSM    H8T12907   3.288   1.489   6.961  1.5126  0.7029  1.0981
  122OSM    C9S12908   3.118   1.491   7.093 -0.0800 -0.0098 -0.2369
  122OSM    H9S12909   3.081   1.393   7.058  0.7573 -0.6515  0.6104
  122OSM    H9T12910   3.031   1.555   7.121 -0.8190 -1.2573  0.4048
  122OSM   C10S12911   3.208   1.484   7.219  0.5874 -0.2660  0.5602
  122OSM   H10S12912   3.309   1.444   7.194  1.6838  2.5859  0.0172
  122OSM   H10T12913   3.160   1.402   7.277 -0.1291 -0.8536 -0.8006
  122OSM   C11S12914   3.205   1.610   7.311  0.1781 -0.9590  0.0921
  122OSM   H11S12915   3.100   1.644   7.322 -0.2775 -2.3647  0.2169
  122OSM   H11T12916   3.251   1.695   7.256 -0.4922 -0.3216  0.4944
  122OSM   C12S12917   3.278   1.596   7.444 -0.0698  0.4811  0.0327
  122OSM   H12S12918   3.385   1.577   7.422 -0.2658  0.7545 -1.1759
  122OSM   H12T12919   3.238   1.509   7.501 -2.1951  3.0799  2.8254
  122OSM   C13S12920   3.249   1.718   7.535 -0.1639 -0.6218  0.1117
  122OSM   H13S12921   3.139   1.731   7.541 -0.1161  0.0226 -0.2776
  122OSM   H13T12922   3.298   1.802   7.482  1.4568 -2.0986 -0.8508
  122OSM   C14S12923   3.314   1.707   7.675 -0.1906 -0.8079 -0.1953
  122OSM   H14S12924   3.418   1.669   7.669 -0.1618 -0.5880 -1.3580
  122OSM   H14T12925   3.264   1.633   7.741  1.9671 -1.9574  0.2485
  122OSM   C15S12926   3.306   1.837   7.757  0.0980  1.0591  1.0285
  122OSM   H15S12927   3.201   1.872   7.753 -0.8800 -1.6024  1.0107
  122OSM   H15T12928   3.373   1.906   7.702  1.2512 -0.8620 -0.0743
  122OSM   C16S12929   3.364   1.828   7.896 -0.6221  1.0403  0.0530
  122OSM   H16S12930   3.400   1.927   7.933 -0.4817 -0.1744  3.5572
  122OSM   H16T12931   3.452   1.760   7.900 -1.8726 -0.6661 -0.2057
  122OSM   C17S12932   3.269   1.767   7.993  0.6934  0.3521  0.4091
  122OSM   H17S12933   3.208   1.681   7.958 -1.9118  1.3233  2.1948
  122OSM   H17T12934   3.191   1.846   8.002 -0.2463 -0.2573 -1.8176
  122OSM   C18S12935   3.324   1.738   8.138  0.0929 -0.6092  0.5118
  122OSM   H18S12936   3.381   1.643   8.124 -0.4189 -0.9193  0.5367
  122OSM   H18T12937   3.251   1.720   8.220 -0.2879 -1.3058  0.0258
  122OSM   H18U12938   3.397   1.817   8.165  0.6381 -0.5261 -1.1412
  122OSM    C1F12939   2.690   1.830   6.617  0.1043  0.7454 -0.0917
  122OSM     OF12940   2.598   1.761   6.653  0.1449 -0.0236  0.4771
  122OSM    C2F12941   2.693   1.976   6.640  0.3388 -0.1868  0.0343
  122OSM    H2F12942   2.758   2.036   6.574 -0.7264  1.2514  0.2490
  122OSM    H2G12943   2.725   2.001   6.744 -0.6500 -0.8827  0.5274
  122OSM    C3F12944   2.554   2.043   6.619  0.9045 -0.1268  0.0885
  122OSM    H3F12945   2.520   1.992   6.527  2.8434 -1.4440  0.0413
  122OSM    H3G12946   2.579   2.151   6.621 -0.1905  0.1451 -0.6511
  122OSM    C4F12947   2.452   2.025   6.736  0.5870 -0.2957  0.0886
  122OSM    H4F12948   2.457   1.916   6.756  1.0546 -0.3734 -0.4284
  122OSM    H4G12949   2.353   2.034   6.686  0.9101 -0.8995 -0.6882
  122OSM    C5F12950   2.483   2.106   6.866 -0.6250  0.5475  0.1454
  122OSM    H5F12951   2.457   2.212   6.847 -0.1056  0.5867 -0.3799
  122OSM    H5G12952   2.594   2.115   6.867 -0.6698  1.0418  0.9727
  122OSM    C6F12953   2.431   2.039   6.995  0.9304 -0.2037 -0.2669
  122OSM    H6F12954   2.475   1.939   7.012 -0.7532 -0.5353  3.0516
  122OSM    H6G12955   2.321   2.025   6.990  0.9095  0.1289 -0.7381
  122OSM    C7F12956   2.452   2.131   7.119 -0.4296 -0.3894  0.2276
  122OSM    H7F12957   2.472   2.233   7.081 -1.8263 -0.1135  0.1913
  122OSM    H7G12958   2.546   2.091   7.164  0.9064  1.2272 -1.0172
  122OSM    C8F12959   2.336   2.129   7.228  0.3348 -0.6695  0.2654
  122OSM    H8F12960   2.242   2.154   7.176  0.1470  0.6849  1.2180
  122OSM    H8G12961   2.353   2.208   7.304  0.8578 -0.1411 -0.3827
  122OSM    C9F12962   2.324   1.989   7.290 -0.8825 -0.5548  0.3100
  122OSM    H9F12963   2.278   1.920   7.218 -3.2153  1.2164 -0.0214
  122OSM   C10F12964   2.360   1.951   7.416  0.0815  0.8451 -0.2288
  122OSM   H10F12965   2.352   1.843   7.437 -1.7705  0.9721 -0.1084
  122OSM   C11F12966   2.431   2.031   7.528 -0.2494  0.1543 -0.6171
  122OSM   H11F12967   2.451   2.137   7.499  1.8261 -0.2300 -0.7265
  122OSM   H11G12968   2.536   1.996   7.535 -0.0311  1.0879  1.8218
  122OSM   C12F12969   2.370   2.030   7.665  0.4913  0.7439  0.0049
  122OSM   H12F12970   2.260   2.042   7.663  0.5469  1.6251  1.4032
  122OSM   H12G12971   2.412   2.106   7.733  0.8938  0.6295 -0.1120
  122OSM   C13F12972   2.386   1.889   7.733 -1.2172  0.0934 -0.0538
  122OSM   H13F12973   2.496   1.877   7.739 -1.0500  1.9535  2.9690
  122OSM   H13G12974   2.334   1.812   7.672 -0.4660 -1.8721  1.6385
  122OSM   C14F12975   2.323   1.898   7.874  0.1177  0.3727  0.4299
  122OSM   H14F12976   2.216   1.925   7.857  0.6976  1.1629 -2.4842
  122OSM   H14G12977   2.365   1.986   7.927 -0.3511  1.6292 -1.1962
  122OSM   C15F12978   2.334   1.766   7.947  0.6085 -0.5289  0.0447
  122OSM   H15F12979   2.306   1.699   7.863 -2.5357  0.5077  0.1248
  122OSM   H15G12980   2.258   1.743   8.025 -0.8249  0.5289 -0.9717
  122OSM   C16F12981   2.476   1.748   7.980 -0.3711 -0.4774 -0.3482
  122OSM   H16F12982   2.533   1.757   7.885 -0.2776  1.8383 -0.1419
  122OSM   H16G12983   2.481   1.648   8.027  0.4779 -0.6059 -0.7016
  122OSM   C17F12984   2.529   1.854   8.079 -0.1931  0.4893  0.9785
  122OSM   H17F12985   2.462   1.864   8.167  1.7621  1.3540  2.4296
  122OSM   H17G12986   2.552   1.945   8.020  0.6191 -1.1059 -1.2929
  122OSM   C18F12987   2.656   1.806   8.137  1.0039 -0.0740 -0.0125
  122OSM   H18F12988   2.640   1.706   8.184 -2.3119 -0.1542 -1.0735
  122OSM   H18G12989   2.693   1.876   8.215 -0.4495  0.5823  0.1200
  122OSM   H18H12990   2.732   1.791   8.057  0.3007 -0.1629 -0.6767
  123OSM      N12991   5.266   3.983   6.171 -0.7414  0.0700 -0.1528
  123OSM    C1512992   5.172   3.888   6.105 -0.4249  0.3808 -0.0001
  123OSM   H15A12993   5.077   3.888   6.156  0.2228 -0.4952  1.2633
  123OSM   H15B12994   5.217   3.790   6.109  1.1723  1.1250  1.3891
  123OSM   H15C12995   5.155   3.901   5.999 -0.1994  0.5180 -0.0189
  123OSM    C1412996   5.396   3.977   6.100 -0.1447  0.0200 -0.8785
  123OSM   H14A12997   5.390   4.000   5.994 -1.0161  0.7541 -0.6831
  123OSM   H14B12998   5.440   3.878   6.101 -2.5913 -1.1942 -2.8946
  123OSM   H14C12999   5.463   4.051   6.141  0.4390 -1.8567  1.7967
  123OSM    C1313000   5.200   4.116   6.167 -0.1559 -0.7277  0.5533
  123OSM   H13A13001   5.104   4.112   6.217  0.1482  0.8152  1.2971
  123OSM   H13B13002   5.179   4.145   6.065 -2.1705  0.6041  1.2812
  123OSM   H13C13003   5.256   4.196   6.213 -3.1907  1.8391  0.1710
  123OSM    C1213004   5.272   3.940   6.317  0.0909 -0.1969 -0.3696
  123OSM   H12A13005   5.294   3.834   6.322 -2.6862 -0.9678 -2.0684
  123OSM   H12B13006   5.167   3.942   6.341  0.0883  1.2260 -0.4147
  123OSM    C1113007   5.342   4.031   6.419 -0.4203  0.0850 -0.8320
  123OSM   H11A13008   5.316   3.999   6.522 -3.1566  2.5898 -0.6206
  123OSM   H11B13009   5.304   4.134   6.404 -1.1876 -0.2539 -1.3136
  123OSM      P13010   5.570   3.912   6.434 -0.0588  0.2098 -0.2057
  123OSM    O1313011   5.516   3.782   6.402  0.0406  0.0368 -0.3983
  123OSM    O1413012   5.707   3.935   6.381  0.2829 -0.1218  0.7365
  123OSM    O1113013   5.567   3.923   6.592  0.8253 -0.6852 -0.4852
  123OSM    O1213014   5.479   4.033   6.392 -0.2446  0.2285 -0.4588
  123OSM    C1S13015   5.666   4.013   6.645  0.1695  0.4901  0.0825
  123OSM    H1S13016   5.656   4.117   6.608  0.5603  0.5390  0.1026
  123OSM    H1T13017   5.764   3.966   6.621 -0.2788 -0.2590 -0.2944
  123OSM     NF13018   5.766   4.110   6.847 -0.2759 -0.5006  0.1549
  123OSM    HNF13019   5.834   4.055   6.895 -0.5561 -0.2621  0.8536
  123OSM    C2S13020   5.655   4.024   6.798 -0.5744 -0.5040  0.1548
  123OSM    H2S13021   5.557   4.071   6.818 -0.2790  0.3976 -0.4621
  123OSM    C3S13022   5.645   3.886   6.871 -0.9095  0.4206  0.1650
  123OSM    H3S13023   5.750   3.848   6.870 -0.3723  1.7338  1.3819
  123OSM     O313024   5.564   3.790   6.808 -0.0728 -0.1903 -0.0500
  123OSM    HO313025   5.545   3.831   6.723 -3.2178 -2.4314 -0.6026
  123OSM    C4S13026   5.617   3.895   7.016 -0.4159 -0.3476 -0.7696
  123OSM    H4S13027   5.706   3.883   7.080  0.3667  1.2121 -1.4832
  123OSM    C5S13028   5.494   3.915   7.070  0.2876  0.0394 -0.5825
  123OSM    H5S13029   5.408   3.919   7.001  0.9904 -0.9406 -1.5693
  123OSM    C6S13030   5.461   3.927   7.222 -0.5709  0.3614  0.4249
  123OSM    H6S13031   5.411   3.829   7.240 -2.0335  0.4862 -2.3742
  123OSM    H6T13032   5.378   4.001   7.234 -2.7304 -1.6125 -1.2584
  123OSM    C7S13033   5.571   3.948   7.331  0.0687 -0.7032  0.2358
  123OSM    H7S13034   5.611   4.051   7.325 -0.6759 -0.4489 -0.6630
  123OSM    H7T13035   5.659   3.885   7.307 -0.6599 -1.1176 -1.5488
  123OSM    C8S13036   5.532   3.930   7.474  0.6040  0.2520 -0.2029
  123OSM    H8S13037   5.486   3.829   7.483  1.8990 -0.4505 -1.2238
  123OSM    H8T13038   5.446   3.996   7.500  1.3667  2.2237 -2.3619
  123OSM    C9S13039   5.645   3.935   7.574  0.7139 -0.0757  0.2270
  123OSM    H9S13040   5.679   4.041   7.575 -3.1914  1.3577  0.3688
  123OSM    H9T13041   5.715   3.854   7.545 -1.0998 -1.1934 -1.2445
  123OSM   C10S13042   5.588   3.903   7.719 -0.0347  0.7175 -0.2681
  123OSM   H10S13043   5.574   3.793   7.726 -0.8916  0.8499  0.2630
  123OSM   H10T13044   5.482   3.936   7.722 -1.0868 -2.2454 -0.7404
  123OSM   C11S13045   5.668   3.964   7.838 -0.4078  0.0437 -0.2240
  123OSM   H11S13046   5.636   4.060   7.884 -0.2033 -0.9359  2.1088
  123OSM   H11T13047   5.771   3.983   7.802 -0.2748  0.0830  0.1739
  123OSM   C12S13048   5.662   3.877   7.968  1.1527 -0.7078  1.4272
  123OSM   H12S13049   5.696   3.773   7.953 -3.1216 -2.1805  0.6724
  123OSM   H12T13050   5.558   3.870   8.006  0.5438  0.3927  0.0331
  123OSM   C13S13051   5.748   3.932   8.082  0.6130  0.0758 -0.5913
  123OSM   H13S13052   5.703   4.026   8.121 -1.2894 -1.9198  2.3406
  123OSM   H13T13053   5.851   3.956   8.048  0.4294  0.1637 -1.0997
  123OSM   C14S13054   5.752   3.848   8.208  0.2126  0.0150 -0.2213
  123OSM   H14S13055   5.780   3.741   8.192  0.2886  0.1193 -0.8221
  123OSM   H14T13056   5.650   3.844   8.250  1.0225  1.0405  1.9824
  123OSM   C15S13057   5.838   3.902   8.330 -1.0174 -0.5168  0.6829
  123OSM   H15S13058   5.814   4.011   8.330  1.6846  0.1608 -0.6126
  123OSM   H15T13059   5.946   3.902   8.307 -1.1743  2.3092 -0.6114
  123OSM   C16S13060   5.801   3.834   8.459 -0.2073 -0.6464  0.4224
  123OSM   H16S13061   5.817   3.725   8.467 -1.2748 -0.7286  1.9815
  123OSM   H16T13062   5.692   3.849   8.475 -0.2338 -0.1141 -0.2457
  123OSM   C17S13063   5.874   3.906   8.572 -0.0142 -0.7628  0.2190
  123OSM   H17S13064   5.839   4.012   8.575  1.9019 -0.0815 -0.0806
  123OSM   H17T13065   5.983   3.912   8.554 -0.2599 -1.3218 -1.6640
  123OSM   C18S13066   5.853   3.841   8.712 -0.5317 -0.5004  0.7710
  123OSM   H18S13067   5.929   3.761   8.718 -0.8373 -0.8080  0.5959
  123OSM   H18T13068   5.754   3.793   8.726 -0.3467 -1.0307  0.2874
  123OSM   H18U13069   5.870   3.921   8.788 -1.2757  1.5383 -1.0761
  123OSM    C1F13070   5.795   4.236   6.823  0.4269  0.1095  0.4705
  123OSM     OF13071   5.707   4.309   6.774  0.6016  0.4909  0.0101
  123OSM    C2F13072   5.933   4.284   6.843 -0.1225 -0.1402  0.2642
  123OSM    H2F13073   5.983   4.256   6.748 -0.8651  0.6327 -0.3597
  123OSM    H2G13074   5.975   4.225   6.928 -2.0167  0.5398  1.7237
  123OSM    C3F13075   5.953   4.434   6.876 -1.0362 -0.9625  0.2121
  123OSM    H3F13076   5.878   4.476   6.946  0.6959  3.4590 -0.2381
  123OSM    H3G13077   5.926   4.496   6.788  0.7873 -1.6270 -0.8630
  123OSM    C4F13078   6.093   4.467   6.916 -0.2464  0.0121  0.5679
  123OSM    H4F13079   6.105   4.575   6.895  1.2433 -0.4032 -0.9759
  123OSM    H4G13080   6.172   4.422   6.852 -0.0618  0.8900  0.1641
  123OSM    C5F13081   6.128   4.417   7.058  0.1532  0.1497  1.0868
  123OSM    H5F13082   6.238   4.424   7.071  0.0131  1.2556  1.8310
  123OSM    H5G13083   6.116   4.307   7.056  1.2224  0.0379 -0.4155
  123OSM    C6F13084   6.046   4.483   7.177 -0.6493  0.1196 -0.0288
  123OSM    H6F13085   5.941   4.450   7.192 -0.0404 -1.5447  0.7632
  123OSM    H6G13086   6.044   4.594   7.168 -1.3095 -0.0617 -3.0051
  123OSM    C7F13087   6.113   4.438   7.310  0.5124 -0.2283  0.0273
  123OSM    H7F13088   6.066   4.509   7.382  2.1533  0.7849  0.1374
  123OSM    H7G13089   6.219   4.465   7.290  0.5905  0.6041  1.4502
  123OSM    C8F13090   6.097   4.281   7.355 -0.8075 -0.5911  0.1016
  123OSM    H8F13091   6.177   4.254   7.426  0.5337  0.1564 -1.0599
  123OSM    H8G13092   6.129   4.223   7.266 -1.3665  0.1005 -0.5710
  123OSM    C9F13093   5.961   4.231   7.394  0.6812 -0.1824  0.4494
  123OSM    H9F13094   5.901   4.199   7.308 -0.1715 -0.5956  1.1740
  123OSM   C10F13095   5.915   4.195   7.515 -0.4289 -0.2299 -0.0558
  123OSM   H10F13096   5.810   4.163   7.521 -0.1741 -1.1086 -0.1081
  123OSM   C11F13097   6.002   4.203   7.637 -0.2015  0.5310 -0.3036
  123OSM   H11F13098   6.099   4.257   7.623  0.6704 -0.9326 -0.0709
  123OSM   H11G13099   6.026   4.099   7.668 -1.2538 -0.5567 -2.8593
  123OSM   C12F13100   5.923   4.264   7.760 -0.3358 -0.1668  0.0950
  123OSM   H12F13101   5.831   4.206   7.780 -0.7921  0.6792  0.4869
  123OSM   H12G13102   5.895   4.371   7.750 -4.9459 -1.2901 -1.2213
  123OSM   C13F13103   6.007   4.260   7.891  0.1278  0.6228  0.3137
  123OSM   H13F13104   6.096   4.325   7.880 -0.7247  1.6362 -0.8417
  123OSM   H13G13105   6.052   4.159   7.906 -2.0296 -0.1818  1.8494
  123OSM   C14F13106   5.932   4.295   8.013 -0.2305 -0.3432  0.4710
  123OSM   H14F13107   5.843   4.229   8.011  0.7162 -1.6767 -0.9584
  123OSM   H14G13108   5.897   4.400   8.007  1.5409  0.2238 -1.0769
  123OSM   C15F13109   6.024   4.303   8.134  0.3000  0.2984  0.5636
  123OSM   H15F13110   6.109   4.368   8.105 -0.0080  1.3936  1.9864
  123OSM   H15G13111   6.058   4.200   8.157  1.8243  0.8040  0.6916
  123OSM   C16F13112   5.958   4.370   8.256  0.2151  0.0579  0.1075
  123OSM   H16F13113   5.869   4.305   8.271 -0.3831  0.7043 -0.5871
  123OSM   H16G13114   5.921   4.469   8.223 -3.3493 -1.0469  0.3404
  123OSM   C17F13115   6.031   4.373   8.386 -0.9891  0.5090 -0.2286
  123OSM   H17F13116   5.991   4.458   8.446 -2.1358 -0.9219  1.1205
  123OSM   H17G13117   6.138   4.399   8.372 -1.5103  3.0338  0.0874
  123OSM   C18F13118   6.020   4.237   8.458  0.0757 -0.1748 -0.3468
  123OSM   H18F13119   5.922   4.222   8.509 -0.8303  1.0854 -1.6553
  123OSM   H18G13120   6.102   4.231   8.533  0.0085 -0.1035 -0.2668
  123OSM   H18H13121   6.039   4.153   8.387  1.2579  0.6942 -1.0827
  124OSM      N13122   0.100   6.531   6.108 -0.0220  0.6240  0.4163
  124OSM    C1513123   0.093   6.615   5.986 -0.2550  0.0121  0.2048
  124OSM   H15A13124   0.097   6.558   5.894  0.9249 -0.1582  0.3397
  124OSM   H15B13125   0.170   6.691   5.989  0.6527 -0.9012  0.9970
  124OSM   H15C13126  -0.001   6.668   5.983 -0.2155  0.1530  1.1769
  124OSM    C1413127  -0.033   6.471   6.127 -0.3531  0.0403  0.3861
  124OSM   H14A13128  -0.029   6.389   6.197  1.0465 -2.4085 -2.3399
  124OSM   H14B13129  -0.072   6.424   6.039  0.2565  1.9056 -0.9514
  124OSM   H14C13130  -0.099   6.550   6.160 -0.7409 -0.6965  1.4380
  124OSM    C1313131   0.201   6.425   6.090 -0.3015  0.1568  0.0167
  124OSM   H13A13132   0.299   6.456   6.057  0.5482 -0.3382  1.9149
  124OSM   H13B13133   0.167   6.353   6.018 -0.3111 -0.9371  1.0958
  124OSM   H13C13134   0.220   6.380   6.186 -2.8749  0.1486  0.5970
  124OSM    C1213135   0.131   6.629   6.222 -0.6404 -0.5607  0.9018
  124OSM   H12A13136   0.121   6.573   6.314 -1.1766  1.4146  2.1022
  124OSM   H12B13137   0.061   6.711   6.217  2.3413  2.1492  0.2567
  124OSM    C1113138   0.269   6.692   6.226  0.0426 -0.5561  0.4836
  124OSM   H11A13139   0.347   6.613   6.230  2.5993  1.7823  0.0594
  124OSM   H11B13140   0.276   6.756   6.317  2.3107  1.2088 -0.8323
  124OSM      P13141   0.258   6.932   6.115 -0.0993 -0.3502 -0.1839
  124OSM    O1313142   0.270   6.971   5.973  0.1511 -0.5485 -0.1552
  124OSM    O1413143   0.125   6.947   6.176 -0.3838 -0.4138  0.3619
  124OSM    O1113144   0.362   7.016   6.200 -0.4508  0.4074 -0.0887
  124OSM    O1213145   0.295   6.778   6.117  0.5041  0.6284  0.7627
  124OSM    C1S13146   0.398   7.017   6.338  0.8923  0.6827 -0.5570
  124OSM    H1S13147   0.316   6.990   6.408  2.3838  1.3743  1.5574
  124OSM    H1T13148   0.449   7.113   6.363  1.4769  0.2996 -0.2620
  124OSM     NF13149   0.554   6.919   6.518  0.5199 -0.3277 -0.5908
  124OSM    HNF13150   0.634   6.966   6.553 -1.0023  0.9359  1.4257
  124OSM    C2S13151   0.520   6.914   6.370 -0.2843  0.1658 -0.3739
  124OSM    H2S13152   0.483   6.813   6.344  0.1937  0.0297 -0.5168
  124OSM    C3S13153   0.642   6.940   6.282 -0.1672 -0.1182 -0.5437
  124OSM    H3S13154   0.670   7.043   6.312 -0.0694 -1.0564  3.0598
  124OSM     O313155   0.627   6.928   6.140  0.6957  0.3164  0.2340
  124OSM    HO313156   0.536   6.955   6.128 -0.0410 -1.1843  1.9064
  124OSM    C4S13157   0.756   6.853   6.316 -0.3678  0.4682 -0.8101
  124OSM    H4S13158   0.753   6.751   6.275  1.1106 -1.7542  3.8671
  124OSM    C5S13159   0.864   6.880   6.397  0.8209  0.0844  1.1896
  124OSM    H5S13160   0.870   6.982   6.439 -0.6113  1.4742 -1.6602
  124OSM    C6S13161   0.979   6.795   6.425 -0.5758  0.1736 -0.2129
  124OSM    H6S13162   1.074   6.849   6.439 -1.4834  1.7837 -0.0875
  124OSM    H6T13163   1.000   6.724   6.343 -0.2796 -0.6322  0.5360
  124OSM    C7S13164   0.974   6.722   6.561  0.0650 -0.4356  0.9100
  124OSM    H7S13165   0.962   6.797   6.641 -0.0202  0.7877 -0.2128
  124OSM    H7T13166   1.074   6.675   6.571 -1.1478 -3.0968  1.4573
  124OSM    C8S13167   0.862   6.622   6.563  0.4886  0.0617  0.0886
  124OSM    H8S13168   0.866   6.554   6.476  1.6747 -0.8930  0.8578
  124OSM    H8T13169   0.764   6.673   6.547 -2.1483 -4.9331 -1.8492
  124OSM    C9S13170   0.851   6.540   6.689 -0.6592  0.2201 -0.6155
  124OSM    H9S13171   0.943   6.477   6.692 -0.6657  0.1946 -0.8731
  124OSM    H9T13172   0.768   6.466   6.681 -0.2662 -0.0638 -2.5732
  124OSM   C10S13173   0.818   6.628   6.813 -0.1987 -0.1822  0.7654
  124OSM   H10S13174   0.737   6.695   6.776 -0.3283 -2.4655 -3.7820
  124OSM   H10T13175   0.906   6.695   6.824 -0.8946  0.4000  3.8260
  124OSM   C11S13176   0.777   6.542   6.932 -0.3816 -0.0075 -0.9359
  124OSM   H11S13177   0.837   6.449   6.932 -0.7085 -0.2395 -2.2025
  124OSM   H11T13178   0.675   6.499   6.922 -0.9155  0.0020  3.0117
  124OSM   C12S13179   0.798   6.626   7.066  0.1263  0.3636 -0.8153
  124OSM   H12S13180   0.908   6.631   7.080  0.1359 -2.2290  0.6919
  124OSM   H12T13181   0.760   6.567   7.152  3.8006 -1.5979 -0.3464
  124OSM   C13S13182   0.747   6.767   7.055  0.8565 -0.1652  0.1984
  124OSM   H13S13183   0.641   6.761   7.022  0.9483 -3.8188  0.2267
  124OSM   H13T13184   0.802   6.824   6.976 -3.7604  1.5662 -2.1089
  124OSM   C14S13185   0.760   6.843   7.190  0.0937  0.7195  0.3030
  124OSM   H14S13186   0.701   6.776   7.257  0.6606 -0.6280 -0.5082
  124OSM   H14T13187   0.711   6.942   7.175 -0.1734  0.3892 -1.1358
  124OSM   C15S13188   0.900   6.854   7.244 -0.3683  0.5469 -0.1357
  124OSM   H15S13189   0.930   6.749   7.265 -1.8640 -0.2436 -1.7155
  124OSM   H15T13190   0.888   6.905   7.342 -0.3000  0.0500  0.1293
  124OSM   C16S13191   0.990   6.923   7.149  0.0878 -0.0896 -0.8337
  124OSM   H16S13192   0.937   7.009   7.104 -0.7663  0.3461  0.9207
  124OSM   H16T13193   1.024   6.864   7.061  0.4306  0.0508 -0.7963
  124OSM   C17S13194   1.115   6.990   7.211 -0.2865 -0.0210 -0.4063
  124OSM   H17S13195   1.175   6.908   7.254  0.7541  1.4964  1.1869
  124OSM   H17T13196   1.098   7.053   7.301  0.5361 -0.8525  0.3540
  124OSM   C18S13197   1.219   7.047   7.125  0.4452 -0.2755  0.8829
  124OSM   H18S13198   1.194   7.147   7.083 -0.9550 -1.5323 -1.5340
  124OSM   H18T13199   1.252   6.991   7.035  2.7541  3.0158 -0.5128
  124OSM   H18U13200   1.316   7.056   7.177  0.6862 -1.4603  0.6704
  124OSM    C1F13201   0.469   6.870   6.609 -0.9264 -0.1481 -0.1060
  124OSM     OF13202   0.367   6.813   6.584 -0.2552  0.6576  0.2178
  124OSM    C2F13203   0.509   6.888   6.751 -0.1744 -0.0715  0.2790
  124OSM    H2F13204   0.484   6.995   6.766 -1.5270 -0.1455 -1.1924
  124OSM    H2G13205   0.617   6.878   6.776  0.5572  2.5407 -1.3705
  124OSM    C3F13206   0.408   6.823   6.850 -0.1253  0.6398  0.0799
  124OSM    H3F13207   0.306   6.851   6.815  0.5085  1.2934 -1.3265
  124OSM    H3G13208   0.423   6.855   6.955 -0.8844 -1.2696  0.7956
  124OSM    C4F13209   0.408   6.670   6.852  0.0163  0.2634 -0.1156
  124OSM    H4F13210   0.490   6.639   6.920  0.0025  1.9351  0.7036
  124OSM    H4G13211   0.418   6.639   6.746 -0.1054  0.0310 -0.0586
  124OSM    C5F13212   0.285   6.605   6.926 -0.2932  0.0521  0.7354
  124OSM    H5F13213   0.295   6.495   6.912 -0.9590  0.2652 -1.9259
  124OSM    H5G13214   0.194   6.631   6.867  0.4597  3.4404  0.8750
  124OSM    C6F13215   0.267   6.628   7.076 -0.5092  0.0641 -0.0078
  124OSM    H6F13216   0.166   6.590   7.100  0.2067 -1.5392  0.6103
  124OSM    H6G13217   0.275   6.738   7.092  0.6203 -0.0950  0.6500
  124OSM    C7F13218   0.377   6.555   7.163 -0.1313  0.8777 -0.1870
  124OSM    H7F13219   0.463   6.547   7.092 -0.8324 -2.2649 -0.8405
  124OSM    H7G13220   0.337   6.451   7.169 -0.9039  1.1405 -0.6675
  124OSM    C8F13221   0.395   6.607   7.307  0.3351  0.0894  0.0307
  124OSM    H8F13222   0.294   6.597   7.351 -0.1390 -3.5390 -1.5374
  124OSM    H8G13223   0.426   6.714   7.309 -0.0471  0.2150 -0.3742
  124OSM    C9F13224   0.497   6.528   7.379 -0.2304  1.1617  0.3796
  124OSM    H9F13225   0.594   6.533   7.328 -0.2406 -2.5150 -0.2818
  124OSM   C10F13226   0.480   6.446   7.488 -0.3135  0.5774 -0.0987
  124OSM   H10F13227   0.567   6.401   7.538 -0.6679  0.6409  0.5893
  124OSM   C11F13228   0.357   6.430   7.566 -0.4902  0.2584  0.0582
  124OSM   H11F13229   0.264   6.426   7.505 -3.0931  0.4642  3.6619
  124OSM   H11G13230   0.332   6.511   7.639 -1.6049 -0.7810  0.8723
  124OSM   C12F13231   0.379   6.298   7.648 -0.0588 -0.3888  0.1126
  124OSM   H12F13232   0.405   6.210   7.587 -0.8391 -1.2388  0.9698
  124OSM   H12G13233   0.276   6.265   7.676  0.6749 -2.9309 -0.0076
  124OSM   C13F13234   0.462   6.322   7.772  0.0597 -0.0514 -0.6168
  124OSM   H13F13235   0.432   6.422   7.811  0.2405  1.3709 -3.8015
  124OSM   H13G13236   0.569   6.348   7.754  0.7584 -2.5081 -0.3500
  124OSM   C14F13237   0.440   6.220   7.887  0.2156  0.1967 -0.3610
  124OSM   H14F13238   0.496   6.128   7.858  0.2795  0.0759  0.1403
  124OSM   H14G13239   0.339   6.184   7.913 -0.0054  0.1880 -1.2098
  124OSM   C15F13240   0.506   6.264   8.017  0.8856  0.4125  0.7543
  124OSM   H15F13241   0.450   6.352   8.056 -0.5898 -0.1841  0.0905
  124OSM   H15G13242   0.610   6.292   7.991  1.8395 -2.9298  0.4433
  124OSM   C16F13243   0.501   6.157   8.131 -0.7794  0.0992 -0.0306
  124OSM   H16F13244   0.568   6.072   8.105 -3.2221 -0.7785 -4.3248
  124OSM   H16G13245   0.398   6.116   8.127  0.1513 -2.3961 -0.1024
  124OSM   C17F13246   0.537   6.221   8.262  0.1258  0.3500  0.0774
  124OSM   H17F13247   0.466   6.303   8.283 -1.0940 -1.1874  2.4006
  124OSM   H17G13248   0.638   6.264   8.245  0.7100 -0.6137  0.9555
  124OSM   C18F13249   0.547   6.126   8.383  0.2681  0.0511  0.1220
  124OSM   H18F13250   0.618   6.159   8.463  0.6891 -0.7232  0.0829
  124OSM   H18G13251   0.601   6.034   8.352  1.8220  0.6487  0.9332
  124OSM   H18H13252   0.449   6.099   8.427 -0.5300 -0.1979 -1.7237
  125OSM      N13253   2.905   4.902   5.951 -0.1938  0.1371  0.0192
  125OSM    C1513254   2.848   5.036   5.915 -0.6051  0.0150 -0.2394
  125OSM   H15A13255   2.842   5.056   5.809  2.0027 -1.5406 -0.7709
  125OSM   H15B13256   2.903   5.122   5.950  0.7887  0.4852 -3.3158
  125OSM   H15C13257   2.746   5.045   5.949 -1.3369 -0.4600 -2.2100
  125OSM    C1413258   2.915   4.902   6.102  0.2619  0.3034 -0.2798
  125OSM   H14A13259   2.969   4.989   6.136 -1.2321  0.5926  1.5010
  125OSM   H14B13260   2.972   4.814   6.126  0.6687  0.6795  0.1460
  125OSM   H14C13261   2.822   4.922   6.153  0.3876  0.2788 -0.0400
  125OSM    C1313262   2.819   4.793   5.891 -0.2777 -0.0167  0.8832
  125OSM   H13A13263   2.859   4.693   5.884 -3.0711 -1.2445  0.8509
  125OSM   H13B13264   2.790   4.824   5.792  2.6308  0.2829  0.0503
  125OSM   H13C13265   2.729   4.781   5.949 -0.5109  3.7904  1.5256
  125OSM    C1213266   3.043   4.873   5.898  0.5302  0.6080 -0.1277
  125OSM   H12A13267   3.105   4.962   5.898  1.9038 -0.2347  3.0263
  125OSM   H12B13268   3.032   4.842   5.795 -2.6421  0.5784  0.1317
  125OSM    C1113269   3.128   4.757   5.965 -0.5274 -0.7544  0.7408
  125OSM   H11A13270   3.188   4.811   6.041 -1.8485 -0.9657  1.9747
  125OSM   H11B13271   3.195   4.712   5.889 -0.8452 -1.3819  0.8238
  125OSM      P13272   3.099   4.506   6.042  0.2830 -0.1714 -0.3921
  125OSM    O1313273   2.996   4.434   6.132  0.2842  0.2535  0.2357
  125OSM    O1413274   3.145   4.433   5.922  0.0140  0.0149 -0.4254
  125OSM    O1113275   3.226   4.530   6.143 -0.3025  0.0983  0.8518
  125OSM    O1213276   3.046   4.653   6.023  0.1636  0.4935  0.2342
  125OSM    C1S13277   3.188   4.587   6.269 -0.8609 -0.0582  0.2529
  125OSM    H1S13278   3.151   4.508   6.337  0.4591 -1.1251 -0.2150
  125OSM    H1T13279   3.118   4.673   6.261  0.8573  1.4163  0.6148
  125OSM     NF13280   3.269   4.694   6.472  0.7918  0.1750 -0.1208
  125OSM    HNF13281   3.258   4.792   6.479 -1.1820 -0.1226  2.0146
  125OSM    C2S13282   3.315   4.641   6.343  0.2259  0.3722 -0.9340
  125OSM    H2S13283   3.389   4.561   6.366 -2.0055 -1.7381 -0.5901
  125OSM    C3S13284   3.395   4.749   6.261  0.2577 -0.1945 -1.0933
  125OSM    H3S13285   3.328   4.835   6.241  0.5533  0.3969  0.3663
  125OSM     O313286   3.438   4.696   6.140 -0.3284  0.4760  0.1057
  125OSM    HO313287   3.383   4.619   6.126 -2.9585  1.9346  1.5375
  125OSM    C4S13288   3.505   4.795   6.352 -0.3869 -0.9017  0.7184
  125OSM    H4S13289   3.583   4.718   6.369  2.1475  0.5887 -2.8379
  125OSM    C5S13290   3.527   4.911   6.417  0.2343  0.0105  0.2837
  125OSM    H5S13291   3.458   4.996   6.403  0.2926 -0.1470 -1.1405
  125OSM    C6S13292   3.654   4.929   6.501  0.9928 -0.1773  1.1526
  125OSM    H6S13293   3.692   5.033   6.510 -0.8243  0.5791  0.5070
  125OSM    H6T13294   3.738   4.873   6.454  0.4584  0.7117 -1.0326
  125OSM    C7S13295   3.634   4.878   6.650 -0.4480 -0.1333 -0.0574
  125OSM    H7S13296   3.733   4.875   6.701 -0.8089 -0.6745  0.6185
  125OSM    H7T13297   3.593   4.775   6.656  0.2132 -0.3820  0.3277
  125OSM    C8S13298   3.534   4.966   6.722 -0.4933 -0.0704  0.3506
  125OSM    H8S13299   3.429   4.938   6.697 -1.1395  1.4884  1.1837
  125OSM    H8T13300   3.537   5.072   6.689  1.0226  0.4997  2.1153
  125OSM    C9S13301   3.555   4.965   6.878 -0.0524  0.0913 -0.0794
  125OSM    H9S13302   3.650   5.021   6.891 -0.5302  1.4915 -2.0639
  125OSM    H9T13303   3.558   4.856   6.901  0.1218 -0.5353 -2.7304
  125OSM   C10S13304   3.437   5.046   6.947 -0.5690 -0.4069 -0.2632
  125OSM   H10S13305   3.333   5.014   6.923 -1.5806 -0.2023  3.2762
  125OSM   H10T13306   3.445   5.153   6.920  1.8395 -0.3581  0.4206
  125OSM   C11S13307   3.455   5.032   7.101  0.3996 -0.4692 -0.3296
  125OSM   H11S13308   3.534   5.103   7.136  0.7891 -2.1104  2.3706
  125OSM   H11T13309   3.474   4.927   7.132 -1.3204 -1.1657 -1.5143
  125OSM   C12S13310   3.326   5.080   7.175 -0.1888  0.9029 -0.7439
  125OSM   H12S13311   3.250   5.000   7.164 -0.6116  1.1685  0.1558
  125OSM   H12T13312   3.286   5.178   7.141 -0.1925  1.9826  2.1475
  125OSM   C13S13313   3.353   5.091   7.331 -0.0811 -0.0235 -0.2586
  125OSM   H13S13314   3.376   5.199   7.350  2.3233 -0.0325 -2.5324
  125OSM   H13T13315   3.439   5.028   7.363 -1.2597 -0.4814  2.3169
  125OSM   C14S13316   3.239   5.036   7.414  0.3895 -0.2715 -0.1631
  125OSM   H14S13317   3.259   4.929   7.439 -2.3330 -0.6153  0.9134
  125OSM   H14T13318   3.143   5.041   7.357 -0.7215  0.4127  1.6730
  125OSM   C15S13319   3.211   5.127   7.535  0.2874 -0.1016  0.0274
  125OSM   H15S13320   3.113   5.090   7.573 -0.5392 -1.0551 -2.7864
  125OSM   H15T13321   3.190   5.231   7.503  0.8087  0.2333  0.7593
  125OSM   C16S13322   3.325   5.136   7.635 -0.3548 -0.3297  0.2407
  125OSM   H16S13323   3.290   5.199   7.719  0.0049 -2.0333  1.7251
  125OSM   H16T13324   3.413   5.180   7.583  0.4867 -2.3587 -0.1837
  125OSM   C17S13325   3.366   4.989   7.686  0.0272 -0.1208 -0.4326
  125OSM   H17S13326   3.453   5.015   7.750 -0.5977  3.1665 -0.7006
  125OSM   H17T13327   3.396   4.932   7.596  0.0228 -1.0086  0.1244
  125OSM   C18S13328   3.260   4.920   7.778 -0.0309 -0.4628  0.4725
  125OSM   H18S13329   3.295   4.815   7.789  1.7556  0.1171  0.7312
  125OSM   H18T13330   3.164   4.918   7.722 -0.6199  1.8560  1.2651
  125OSM   H18U13331   3.238   4.973   7.874 -1.4212  0.9993 -0.5982
  125OSM    C1F13332   3.240   4.624   6.582  0.1742 -0.2388 -0.3889
  125OSM     OF13333   3.259   4.498   6.599 -0.1973 -0.5398 -0.3257
  125OSM    C2F13334   3.191   4.713   6.690  0.1245  0.4980 -0.3882
  125OSM    H2F13335   3.126   4.792   6.648  0.5727 -0.0597 -2.2018
  125OSM    H2G13336   3.287   4.759   6.724 -0.1493  2.4886 -2.1158
  125OSM    C3F13337   3.125   4.643   6.813 -0.9132  0.4209  0.7530
  125OSM    H3F13338   3.198   4.579   6.866 -0.3065  0.9694  0.5921
  125OSM    H3G13339   3.046   4.567   6.794 -1.4066  1.4730 -1.9885
  125OSM    C4F13340   3.076   4.748   6.918  0.3647  0.0744  0.0319
  125OSM    H4F13341   2.987   4.802   6.880  0.5932  0.5480  0.1678
  125OSM    H4G13342   3.146   4.833   6.932 -1.2804  1.4301  0.2950
  125OSM    C5F13343   3.040   4.677   7.054  0.0692  0.4281 -0.4050
  125OSM    H5F13344   3.138   4.658   7.101 -1.8099 -2.4465  2.8735
  125OSM    H5G13345   3.001   4.573   7.042 -0.8568  0.5800  1.0279
  125OSM    C6F13346   2.960   4.770   7.154 -0.2555 -0.4577  0.4558
  125OSM    H6F13347   2.854   4.764   7.122 -0.3542  2.6168 -0.1777
  125OSM    H6G13348   2.990   4.876   7.133 -0.7526 -0.0711  1.6089
  125OSM    C7F13349   2.980   4.723   7.297 -0.0102  0.3850  0.3253
  125OSM    H7F13350   3.087   4.711   7.322  0.4347  0.2608 -1.4783
  125OSM    H7G13351   2.942   4.618   7.294  0.1632  0.1891  2.9757
  125OSM    C8F13352   2.908   4.796   7.404 -0.3918 -0.0393 -0.2785
  125OSM    H8F13353   2.801   4.810   7.377 -0.7849 -2.2426 -0.0723
  125OSM    H8G13354   2.948   4.898   7.423  1.7487 -1.0235  0.8464
  125OSM    C9F13355   2.928   4.723   7.535  0.4007  0.2433 -0.1878
  125OSM    H9F13356   3.006   4.646   7.533 -1.5874 -1.9131 -1.8055
  125OSM   C10F13357   2.848   4.747   7.639 -0.3144  0.1298 -0.0179
  125OSM   H10F13358   2.873   4.704   7.737 -3.3032  0.5256  1.0314
  125OSM   C11F13359   2.717   4.826   7.637  0.2986 -0.7046 -0.3324
  125OSM   H11F13360   2.640   4.752   7.668  1.2486 -0.9517  1.6607
  125OSM   H11G13361   2.689   4.868   7.538 -0.6930  1.7852  0.9151
  125OSM   C12F13362   2.716   4.942   7.742  0.1883  0.8962 -0.4740
  125OSM   H12F13363   2.731   4.895   7.841 -2.6483 -0.5333 -0.6294
  125OSM   H12G13364   2.617   4.992   7.735  0.4002  1.1567 -2.0398
  125OSM   C13F13365   2.815   5.051   7.711 -0.4056  0.1640  0.1919
  125OSM   H13F13366   2.783   5.110   7.623 -0.8685  2.2838  1.7018
  125OSM   H13G13367   2.917   5.008   7.706  0.4423  1.6596  2.8636
  125OSM   C14F13368   2.819   5.158   7.825  0.4215 -0.1696  0.2825
  125OSM   H14F13369   2.846   5.104   7.918  0.8443  0.0967  0.3190
  125OSM   H14G13370   2.721   5.205   7.848  0.8823 -0.1017  2.3365
  125OSM   C15F13371   2.924   5.268   7.790  0.1878 -1.2222  0.6181
  125OSM   H15F13372   2.868   5.343   7.731  2.0075  0.3793  0.8270
  125OSM   H15G13373   3.006   5.237   7.722 -0.8231 -2.0576 -0.2576
  125OSM   C16F13374   2.984   5.337   7.914  0.4644  0.4514  0.1592
  125OSM   H16F13375   3.057   5.415   7.884  0.8931  1.2542  2.9741
  125OSM   H16G13376   3.027   5.263   7.985  1.6438  1.2836  0.3342
  125OSM   C17F13377   2.889   5.407   8.009 -0.1153 -0.5640  0.0871
  125OSM   H17F13378   2.949   5.445   8.095 -0.3939  0.9116 -0.3457
  125OSM   H17G13379   2.813   5.337   8.050  2.8433 -3.1917  1.5700
  125OSM   C18F13380   2.827   5.527   7.943 -0.0833  0.3957  0.1843
  125OSM   H18F13381   2.815   5.610   8.016 -0.3172 -0.5299  1.2213
  125OSM   H18G13382   2.721   5.508   7.914  0.0227 -0.2347  0.1974
  125OSM   H18H13383   2.879   5.573   7.856  0.0642 -0.9453 -0.4718
  126OSM      N13384   5.872   3.539   6.324  0.2529 -0.3021  0.0840
  126OSM    C1513385   5.796   3.435   6.248  0.1658  0.1312  0.2819
  126OSM   H15A13386   5.691   3.449   6.269  0.1971  0.3168  0.3207
  126OSM   H15B13387   5.836   3.336   6.261 -0.0563  0.2209  1.9292
  126OSM   H15C13388   5.812   3.458   6.144  1.9270 -0.4459  0.3935
  126OSM    C1413389   6.011   3.537   6.291  0.5325 -0.4285  0.4756
  126OSM   H14A13390   6.079   3.616   6.316  1.5368 -0.7572 -1.0398
  126OSM   H14B13391   6.009   3.538   6.183 -1.4144  0.7794  0.4682
  126OSM   H14C13392   6.057   3.448   6.330 -1.1996 -2.0658 -0.9787
  126OSM    C1313393   5.816   3.669   6.280 -0.3546 -0.2296 -0.4550
  126OSM   H13A13394   5.711   3.689   6.298 -0.7248 -0.8945 -1.7532
  126OSM   H13B13395   5.835   3.697   6.178 -2.3354  0.1564 -0.7706
  126OSM   H13C13396   5.874   3.745   6.330 -1.9179  1.0601 -0.5340
  126OSM    C1213397   5.848   3.515   6.474 -0.2350  0.5936  0.6395
  126OSM   H12A13398   5.882   3.420   6.511 -2.4789 -0.7976 -0.6011
  126OSM   H12B13399   5.743   3.522   6.498  0.1430 -0.3295  2.7639
  126OSM    C1113400   5.915   3.621   6.571  0.6255 -0.0995 -0.0233
  126OSM   H11A13401   5.896   3.583   6.674 -0.5612  3.1592  1.0798
  126OSM   H11B13402   5.853   3.713   6.571  1.1157  0.3017  2.5374
  126OSM      P13403   6.136   3.760   6.595 -0.1023  0.2398  0.4482
  126OSM    O1313404   6.277   3.739   6.554 -0.9690 -0.7196 -0.0748
  126OSM    O1413405   6.071   3.890   6.562 -0.7179  0.1578  0.2417
  126OSM    O1113406   6.125   3.747   6.751 -0.3473 -0.4679 -0.1450
  126OSM    O1213407   6.056   3.637   6.539  0.2734 -0.7201 -0.3606
  126OSM    C1S13408   6.184   3.635   6.808  0.5162  0.4388 -0.2334
  126OSM    H1S13409   6.285   3.613   6.766 -1.3764 -2.4577 -3.7834
  126OSM    H1T13410   6.123   3.547   6.783  0.5557 -0.3895  2.3109
  126OSM     NF13411   6.318   3.627   7.016  0.2088  0.1321  0.1589
  126OSM    HNF13412   6.319   3.547   7.076 -0.3012  1.6964  2.4037
  126OSM    C2S13413   6.197   3.676   6.955 -0.5078  0.1240 -0.1514
  126OSM    H2S13414   6.190   3.787   6.961  1.6065  0.3823 -1.4838
  126OSM    C3S13415   6.069   3.625   7.025 -0.7194  0.1812 -0.4832
  126OSM    H3S13416   6.068   3.514   7.019  0.9386  0.1839 -1.7597
  126OSM     O313417   5.947   3.661   6.958  0.5113  0.3737 -0.5969
  126OSM    HO313418   5.979   3.719   6.889 -2.0652  1.1500 -1.2206
  126OSM    C4S13419   6.058   3.669   7.174  0.1223  0.1215 -0.1493
  126OSM    H4S13420   6.120   3.616   7.248 -0.4253 -1.4872 -0.7988
  126OSM    C5S13421   5.998   3.779   7.228 -0.4861  0.6583  0.2436
  126OSM    H5S13422   5.933   3.839   7.162  0.4711 -0.3094 -1.6872
  126OSM    C6S13423   6.003   3.812   7.368 -0.2535  0.1228 -0.1148
  126OSM    H6S13424   5.916   3.878   7.389 -0.3095 -0.2127  0.7785
  126OSM    H6T13425   6.104   3.853   7.389  0.3869 -1.3649 -0.1970
  126OSM    C7S13426   5.984   3.701   7.474  0.7939  0.4639  0.5791
  126OSM    H7S13427   6.058   3.621   7.456  0.4752 -0.1735  1.9613
  126OSM    H7T13428   5.880   3.663   7.470  0.7582  0.6620 -1.1113
  126OSM    C8S13429   6.003   3.755   7.619  0.4572 -0.5507  0.3195
  126OSM    H8S13430   5.943   3.847   7.639 -0.3823 -1.3500  1.6591
  126OSM    H8T13431   6.111   3.782   7.614  0.3147 -0.0397 -0.0563
  126OSM    C9S13432   5.989   3.654   7.730  0.0889 -0.3437 -0.0123
  126OSM    H9S13433   6.064   3.574   7.718 -1.9759 -2.3113 -0.4838
  126OSM    H9T13434   5.894   3.597   7.728  0.1199 -0.4569  1.1973
  126OSM   C10S13435   5.985   3.702   7.874 -0.0234 -0.5875  0.3633
  126OSM   H10S13436   5.910   3.784   7.875  2.1124  1.5193 -1.2379
  126OSM   H10T13437   6.083   3.752   7.880 -0.6508  0.6770  0.4639
  126OSM   C11S13438   5.979   3.607   8.000  0.0148 -0.6709 -0.2628
  126OSM   H11S13439   6.033   3.513   7.972 -0.1751 -0.4778 -1.3206
  126OSM   H11T13440   5.878   3.586   8.041  0.2690  1.9135  1.9456
  126OSM   C12S13441   6.055   3.682   8.116 -0.0753 -0.2455  0.0192
  126OSM   H12S13442   6.002   3.776   8.140 -1.2464 -0.7520 -0.5106
  126OSM   H12T13443   6.162   3.694   8.087 -0.3264  0.2240 -0.7479
  126OSM   C13S13444   6.053   3.618   8.255 -0.6476  0.8785 -0.1465
  126OSM   H13S13445   6.087   3.512   8.256  1.2818  1.4674  0.4239
  126OSM   H13T13446   5.948   3.617   8.291  0.4989  2.0675  3.6263
  126OSM   C14S13447   6.154   3.681   8.350  0.2059  0.0699  0.6549
  126OSM   H14S13448   6.122   3.785   8.375  2.1343  0.8904 -0.1343
  126OSM   H14T13449   6.250   3.679   8.294 -1.1769 -2.9886 -1.9485
  126OSM   C15S13450   6.148   3.602   8.479 -0.2859 -0.4126 -0.3626
  126OSM   H15S13451   6.196   3.504   8.462  0.8669 -0.5345  2.9250
  126OSM   H15T13452   6.043   3.594   8.516 -0.1047 -1.0775  0.0205
  126OSM   C16S13453   6.230   3.651   8.595  0.2512 -0.3312  0.4074
  126OSM   H16S13454   6.193   3.750   8.629  0.1445 -0.3154  0.2476
  126OSM   H16T13455   6.331   3.655   8.549 -0.0715 -2.1061 -0.5646
  126OSM   C17S13456   6.224   3.557   8.719  0.2132 -0.3671  0.6088
  126OSM   H17S13457   6.314   3.578   8.780 -1.0801  0.6063  2.2945
  126OSM   H17T13458   6.244   3.454   8.684 -1.4725 -0.6072  0.2653
  126OSM   C18S13459   6.104   3.570   8.805  0.3222  0.0293 -0.3447
  126OSM   H18S13460   6.118   3.671   8.848  0.0027 -0.4102  0.8529
  126OSM   H18T13461   6.108   3.511   8.899 -0.8016  1.5287  0.6815
  126OSM   H18U13462   6.008   3.540   8.758  0.6857 -1.2822 -0.2975
  126OSM    C1F13463   6.439   3.681   7.001  0.4907 -0.1490  0.5040
  126OSM     OF13464   6.448   3.800   6.961 -0.6523  0.4204 -0.4905
  126OSM    C2F13465   6.563   3.599   7.053  0.5382  0.5068  0.0354
  126OSM    H2F13466   6.537   3.492   7.069 -1.5163  0.7519 -1.1611
  126OSM    H2G13467   6.600   3.646   7.146  3.1367  2.0335 -1.6394
  126OSM    C3F13468   6.672   3.598   6.940  0.8978  0.4458  0.1070
  126OSM    H3F13469   6.690   3.707   6.929 -1.8946  1.2395  2.1923
  126OSM    H3G13470   6.645   3.552   6.843 -1.1765  1.3874  0.1724
  126OSM    C4F13471   6.796   3.525   6.996 -0.0018 -0.6190  0.6283
  126OSM    H4F13472   6.777   3.416   6.993 -0.3575 -0.5490 -2.6014
  126OSM    H4G13473   6.817   3.556   7.101  1.0591 -0.0514  0.2699
  126OSM    C5F13474   6.915   3.568   6.920 -0.5773  0.1714  1.0069
  126OSM    H5F13475   6.919   3.678   6.902  0.6445  0.0853  0.7071
  126OSM    H5G13476   6.895   3.525   6.819  2.8605  3.1595 -1.1844
  126OSM    C6F13477   7.047   3.525   6.980 -0.5805  0.3854 -0.3368
  126OSM    H6F13478   7.045   3.414   6.976 -0.5272  0.3951 -3.9110
  126OSM    H6G13479   7.048   3.551   7.088 -0.6756 -0.5984 -0.0911
  126OSM    C7F13480   7.171   3.597   6.918  0.3293  0.1759  0.0902
  126OSM    H7F13481   7.151   3.705   6.903  1.8926  0.3420 -1.0961
  126OSM    H7G13482   7.194   3.557   6.817  2.5132  2.8001 -0.5671
  126OSM    C8F13483   7.298   3.571   6.994 -0.5078 -0.4336 -0.4872
  126OSM    H8F13484   7.378   3.630   6.945 -0.1805 -0.6198 -0.1846
  126OSM    H8G13485   7.334   3.466   6.983 -0.3915 -0.2752 -1.7809
  126OSM    C9F13486   7.303   3.630   7.136  0.0258  0.6225 -0.1485
  126OSM    H9F13487   7.298   3.740   7.141 -3.6894  0.5519  0.8124
  126OSM   C10F13488   7.293   3.562   7.256  0.1738 -0.2280 -0.2811
  126OSM   H10F13489   7.300   3.623   7.347 -3.6994  2.7246 -1.7075
  126OSM   C11F13490   7.287   3.412   7.269  0.1254 -0.6038  0.5408
  126OSM   H11F13491   7.383   3.372   7.232  0.0784  0.8224 -1.2360
  126OSM   H11G13492   7.208   3.363   7.208  0.6872 -1.3355  0.3917
  126OSM   C12F13493   7.257   3.362   7.413  0.8724  0.2532 -0.2811
  126OSM   H12F13494   7.239   3.252   7.411 -0.8845  0.4552  1.4071
  126OSM   H12G13495   7.168   3.417   7.450  0.0495 -1.3406  0.2107
  126OSM   C13F13496   7.377   3.387   7.499  0.0589 -0.5339 -1.0914
  126OSM   H13F13497   7.395   3.497   7.492 -0.5192 -0.4289 -1.0045
  126OSM   H13G13498   7.466   3.327   7.470 -1.2348 -3.4200  0.4927
  126OSM   C14F13499   7.343   3.356   7.642  0.0058  0.2667  0.1473
  126OSM   H14F13500   7.308   3.251   7.638  3.6568 -1.1683  1.5925
  126OSM   H14G13501   7.256   3.415   7.676  1.0570  1.6882  0.4689
  126OSM   C15F13502   7.457   3.371   7.739 -0.2422 -0.2772 -0.7420
  126OSM   H15F13503   7.464   3.480   7.759 -0.7210  0.4640 -4.0053
  126OSM   H15G13504   7.556   3.327   7.718 -1.0469 -1.2026 -3.0116
  126OSM   C16F13505   7.423   3.294   7.872  0.4696 -0.3350 -0.1849
  126OSM   H16F13506   7.525   3.288   7.917  0.2739  1.6110  0.6213
  126OSM   H16G13507   7.396   3.190   7.847 -1.1885  0.0674 -0.2108
  126OSM   C17F13508   7.314   3.379   7.941 -0.2949  0.0269  0.2511
  126OSM   H17F13509   7.225   3.372   7.875 -2.2242 -1.1552  2.7790
  126OSM   H17G13510   7.341   3.486   7.941 -0.4438  0.0820 -1.5810
  126OSM   C18F13511   7.285   3.340   8.088 -0.1623 -0.6869 -0.2257
  126OSM   H18F13512   7.355   3.399   8.151 -0.2375  0.6404 -1.3490
  126OSM   H18G13513   7.307   3.232   8.100  1.3328 -0.2037  2.0076
  126OSM   H18H13514   7.181   3.373   8.111  0.3202  1.1317 -0.5079
  127OSM      N13515   4.407   3.073   6.337  0.2434 -0.4117 -0.4968
  127OSM    C1513516   4.522   2.983   6.319  0.2304 -0.2400  0.0592
  127OSM   H15A13517   4.602   3.056   6.320 -3.4140  4.2440  0.3964
  127OSM   H15B13518   4.517   2.942   6.220 -1.0113 -1.2111  0.4993
  127OSM   H15C13519   4.537   2.913   6.400 -2.8721 -2.0437 -0.7647
  127OSM    C1413520   4.452   3.176   6.430  0.3040 -0.2087  0.1278
  127OSM   H14A13521   4.371   3.247   6.443  1.1528  0.3185  3.6415
  127OSM   H14B13522   4.537   3.233   6.396  1.6169 -3.2530 -2.1616
  127OSM   H14C13523   4.469   3.144   6.532 -0.0305  0.7434  0.5050
  127OSM    C1313524   4.362   3.132   6.208 -0.0178 -0.0778  0.2197
  127OSM   H13A13525   4.444   3.180   6.157 -0.4320 -0.7365 -1.0908
  127OSM   H13B13526   4.283   3.201   6.235  0.0127 -0.2878  0.8730
  127OSM   H13C13527   4.331   3.048   6.148  0.5799  0.0066 -0.2174
  127OSM    C1213528   4.297   2.996   6.406 -0.1797  0.1110 -0.5245
  127OSM   H12A13529   4.226   3.056   6.461 -1.0441 -2.6992  1.7031
  127OSM   H12B13530   4.341   2.939   6.487 -4.0594 -0.1610  1.5976
  127OSM    C1113531   4.213   2.896   6.326 -0.1184  0.3537  0.3287
  127OSM   H11A13532   4.166   2.952   6.242  2.6257 -0.3276 -1.7917
  127OSM   H11B13533   4.132   2.853   6.388  0.2370 -0.3313  0.3268
  127OSM      P13534   4.367   2.673   6.354  0.1177  0.1407 -0.0381
  127OSM    O1313535   4.285   2.549   6.354 -0.4712  0.1103 -0.3527
  127OSM    O1413536   4.502   2.661   6.308  1.0552 -0.1942 -0.0370
  127OSM    O1113537   4.360   2.727   6.502 -0.5129  0.5131  0.4180
  127OSM    O1213538   4.292   2.788   6.270 -0.3710  0.0126  0.1958
  127OSM    C1S13539   4.467   2.748   6.587  0.3552 -0.0245 -0.5431
  127OSM    H1S13540   4.535   2.830   6.557  1.7589 -1.1320 -0.4616
  127OSM    H1T13541   4.537   2.663   6.586  2.1046  1.3617 -1.5807
  127OSM     NF13542   4.507   2.851   6.822  0.1591  0.3859  0.4905
  127OSM    HNF13543   4.566   2.806   6.889  0.6645 -1.4175 -1.0467
  127OSM    C2S13544   4.411   2.770   6.736  0.1847 -0.5158 -0.0993
  127OSM    H2S13545   4.321   2.835   6.739  1.2997  1.0599  3.0225
  127OSM    C3S13546   4.381   2.631   6.785 -0.3715  0.3668 -0.1060
  127OSM    H3S13547   4.480   2.580   6.777 -0.0877  0.9286 -0.1951
  127OSM     O313548   4.296   2.541   6.710 -0.1969  0.2647 -0.0909
  127OSM    HO313549   4.288   2.583   6.624 -0.0888  0.6717  0.0937
  127OSM    C4S13550   4.334   2.636   6.929  0.2987 -0.2403  0.3956
  127OSM    H4S13551   4.414   2.624   7.003 -0.6343 -0.8528  1.3260
  127OSM    C5S13552   4.207   2.639   6.975  0.2547  0.6565 -0.3448
  127OSM    H5S13553   4.123   2.647   6.905 -1.6388 -2.4882  1.3501
  127OSM    C6S13554   4.160   2.643   7.119 -0.3975  1.0367  0.3625
  127OSM    H6S13555   4.087   2.565   7.149 -0.3391  0.9362  0.2438
  127OSM    H6T13556   4.101   2.734   7.140 -1.8942  0.7987 -2.4141
  127OSM    C7S13557   4.277   2.616   7.217 -0.0062 -0.1585  0.3908
  127OSM    H7S13558   4.360   2.688   7.204  0.8894 -1.4084 -1.1578
  127OSM    H7T13559   4.312   2.513   7.196  2.5881  0.9439 -1.1487
  127OSM    C8S13560   4.230   2.626   7.368 -0.8798  0.5283  0.5742
  127OSM    H8S13561   4.159   2.542   7.385  0.2967 -0.7169 -0.3593
  127OSM    H8T13562   4.190   2.730   7.365 -2.0407  0.0876 -1.4395
  127OSM    C9S13563   4.352   2.613   7.460 -0.9620 -0.0424  0.7599
  127OSM    H9S13564   4.440   2.658   7.409 -0.7875 -1.6916 -0.4858
  127OSM    H9T13565   4.373   2.504   7.471 -0.2958 -0.5872 -3.7068
  127OSM   C10S13566   4.330   2.658   7.598  0.5061  0.1827  0.6071
  127OSM   H10S13567   4.305   2.767   7.593 -2.6125 -0.5070 -1.5319
  127OSM   H10T13568   4.420   2.633   7.659  1.7859  1.3236 -0.7338
  127OSM   C11S13569   4.214   2.588   7.674 -0.5772  0.2090 -0.0857
  127OSM   H11S13570   4.213   2.481   7.644  3.5038  0.5404 -2.1087
  127OSM   H11T13571   4.118   2.626   7.633  0.1832 -0.7024 -2.8907
  127OSM   C12S13572   4.228   2.595   7.828 -0.4475 -0.0092  0.2310
  127OSM   H12S13573   4.325   2.554   7.861 -1.1156  0.0214  2.4268
  127OSM   H12T13574   4.152   2.528   7.874  1.8597 -3.4191 -0.5757
  127OSM   C13S13575   4.208   2.738   7.888 -0.2092 -0.1761  0.2805
  127OSM   H13S13576   4.101   2.762   7.877  0.2162  0.9896 -1.6851
  127OSM   H13T13577   4.260   2.812   7.824 -0.4292 -1.4687 -1.4798
  127OSM   C14S13578   4.252   2.739   8.031 -0.4127 -0.5977  0.0166
  127OSM   H14S13579   4.354   2.695   8.041  0.6702  1.6952 -0.4110
  127OSM   H14T13580   4.182   2.678   8.091 -0.0040  0.4385  1.5865
  127OSM   C15S13581   4.242   2.880   8.086  0.1766  1.2438  0.3393
  127OSM   H15S13582   4.137   2.913   8.074 -0.2235  0.3893  1.3225
  127OSM   H15T13583   4.303   2.956   8.032  0.6769  1.2341  0.8858
  127OSM   C16S13584   4.279   2.897   8.238 -0.0672  0.0432 -0.5008
  127OSM   H16S13585   4.383   2.934   8.243  0.1993 -0.7883  0.8169
  127OSM   H16T13586   4.289   2.800   8.291  1.3602  0.0652 -0.7072
  127OSM   C17S13587   4.191   2.988   8.326 -0.0333 -0.1390 -0.4388
  127OSM   H17S13588   4.203   2.958   8.432  1.4060 -0.1750 -0.5843
  127OSM   H17T13589   4.089   2.953   8.301  0.4671 -1.6087 -0.4819
  127OSM   C18S13590   4.209   3.138   8.311  0.2908 -0.0474 -0.3046
  127OSM   H18S13591   4.293   3.173   8.374 -1.1481  0.2462  1.5411
  127OSM   H18T13592   4.117   3.186   8.351  0.8174 -0.4609  1.4835
  127OSM   H18U13593   4.230   3.158   8.204 -1.9979 -0.8492 -0.9639
  127OSM    C1F13594   4.550   2.976   6.794  1.1654  0.3684  0.7614
  127OSM     OF13595   4.501   3.040   6.703 -0.3709  0.3606  0.2700
  127OSM    C2F13596   4.643   3.029   6.896  0.3297 -0.2641 -0.7301
  127OSM    H2F13597   4.708   3.113   6.861 -0.5507  1.6606  1.9484
  127OSM    H2G13598   4.714   2.951   6.930 -1.5800 -1.7711 -0.0405
  127OSM    C3F13599   4.568   3.075   7.021 -0.1387 -0.3813  1.0920
  127OSM    H3F13600   4.493   3.001   7.055  0.0215 -0.4592  1.2744
  127OSM    H3G13601   4.499   3.154   6.987 -0.5791 -1.6389 -1.1645
  127OSM    C4F13602   4.656   3.125   7.135 -0.4309  0.6685 -0.0698
  127OSM    H4F13603   4.720   3.035   7.148 -0.7651  0.5519  0.8502
  127OSM    H4G13604   4.601   3.139   7.230 -1.2975 -1.8555 -0.1263
  127OSM    C5F13605   4.751   3.243   7.111  0.1775 -0.1856  0.2907
  127OSM    H5F13606   4.704   3.340   7.087  2.5997  0.8882 -0.3952
  127OSM    H5G13607   4.817   3.225   7.023 -1.9023 -0.2209 -1.3597
  127OSM    C6F13608   4.836   3.265   7.232  0.1093  0.3786  0.6808
  127OSM    H6F13609   4.930   3.318   7.204 -0.4450  1.4803  0.8634
  127OSM    H6G13610   4.866   3.161   7.259  3.4635  0.7133 -1.1941
  127OSM    C7F13611   4.778   3.346   7.352  0.2723  0.0835  0.5356
  127OSM    H7F13612   4.672   3.316   7.370 -0.0228  1.1570  0.6824
  127OSM    H7G13613   4.759   3.449   7.315 -2.6674 -1.1101 -1.7036
  127OSM    C8F13614   4.857   3.319   7.485 -0.1587  0.1875  0.6620
  127OSM    H8F13615   4.963   3.344   7.461  0.3952 -1.4067  1.3336
  127OSM    H8G13616   4.857   3.210   7.504  2.4293 -0.2842 -1.4277
  127OSM    C9F13617   4.797   3.399   7.597 -0.1401  0.3079 -0.8179
  127OSM    H9F13618   4.847   3.495   7.618  0.0178 -0.3917  2.6683
  127OSM   C10F13619   4.690   3.365   7.675 -0.6549  0.2643 -1.0179
  127OSM   H10F13620   4.668   3.428   7.762  2.4701 -1.3651  1.1733
  127OSM   C11F13621   4.618   3.235   7.662  0.7399  0.3188  0.5498
  127OSM   H11F13622   4.647   3.168   7.746  1.5447  0.0739  0.0905
  127OSM   H11G13623   4.632   3.200   7.558  1.5600  2.8154 -0.2546
  127OSM   C12F13624   4.467   3.253   7.685 -0.6134 -0.7338  0.0226
  127OSM   H12F13625   4.423   3.335   7.624 -0.0018  0.2866  0.9181
  127OSM   H12G13626   4.451   3.278   7.792  0.0146  0.5428 -0.1590
  127OSM   C13F13627   4.389   3.131   7.656 -0.2372 -0.0984 -0.6336
  127OSM   H13F13628   4.284   3.133   7.691 -0.0356  0.8787 -0.0536
  127OSM   H13G13629   4.437   3.050   7.716 -0.6857  0.6465  0.7842
  127OSM   C14F13630   4.392   3.072   7.519  0.5992  0.8208 -0.2548
  127OSM   H14F13631   4.362   2.968   7.546  2.0576  0.2995 -0.5582
  127OSM   H14G13632   4.498   3.057   7.487  1.6114 -0.3528  3.1930
  127OSM   C15F13633   4.291   3.139   7.426 -0.7101 -0.1796 -0.1849
  127OSM   H15F13634   4.326   3.244   7.416  0.3799 -0.6590 -1.6853
  127OSM   H15G13635   4.192   3.140   7.477  0.2503  0.5756  1.7728
  127OSM   C16F13636   4.274   3.067   7.291 -0.4904  0.1462  0.1265
  127OSM   H16F13637   4.271   2.958   7.311  1.5076  0.0008 -0.1317
  127OSM   H16G13638   4.366   3.079   7.229 -1.8330 -0.9434 -2.2021
  127OSM   C17F13639   4.150   3.106   7.201 -0.0226  0.6204  0.0318
  127OSM   H17F13640   4.163   3.215   7.189  2.4094  0.8242  3.3001
  127OSM   H17G13641   4.057   3.093   7.261  0.3998  1.4449  0.8869
  127OSM   C18F13642   4.142   3.041   7.065  0.2920 -0.9378  0.2872
  127OSM   H18F13643   4.038   3.061   7.030  0.2994 -2.8121 -0.9910
  127OSM   H18G13644   4.161   2.932   7.074  1.4464 -0.6744  1.1913
  127OSM   H18H13645   4.213   3.086   6.993 -0.5856  1.2436  0.7129
  128OSM      N13646   5.227   0.819   5.803  0.4931 -0.9161  0.5934
  128OSM    C1513647   5.336   0.765   5.710 -0.0778 -0.3337  0.1215
  128OSM   H15A13648   5.428   0.820   5.727 -0.4165  0.2213  0.1911
  128OSM   H15B13649   5.312   0.787   5.607 -0.6008  1.7886  0.6516
  128OSM   H15C13650   5.355   0.660   5.724  1.7495 -0.0548  0.0242
  128OSM    C1413651   5.212   0.964   5.769 -0.2210  0.0774  0.7388
  128OSM   H14A13652   5.150   1.015   5.840  1.6440 -1.5089  3.6889
  128OSM   H14B13653   5.184   0.978   5.665  2.3448 -1.1970 -0.2171
  128OSM   H14C13654   5.310   1.007   5.789 -0.5277  2.5658 -2.3012
  128OSM    C1313655   5.105   0.735   5.789 -0.0436 -0.0521  0.9189
  128OSM   H13A13656   5.066   0.742   5.688  0.3739  0.5746  0.8004
  128OSM   H13B13657   5.026   0.763   5.857 -1.5985 -1.1662 -0.3389
  128OSM   H13C13658   5.125   0.631   5.813  1.1525 -0.0344  0.0580
  128OSM    C1213659   5.259   0.814   5.949 -0.2439  0.2981  0.0571
  128OSM   H12A13660   5.354   0.865   5.961  2.0282 -3.2810 -1.1469
  128OSM   H12B13661   5.294   0.718   5.983  3.6786  2.0282  1.5094
  128OSM    C1113662   5.154   0.878   6.048  0.2496 -0.4737  0.1331
  128OSM   H11A13663   5.184   0.848   6.151  0.3911 -1.8660 -0.2923
  128OSM   H11B13664   5.055   0.831   6.029 -0.1824  0.4677 -0.0261
  128OSM      P13665   5.058   1.120   6.109 -0.1045  0.3901 -0.1136
  128OSM    O1313666   5.116   1.257   6.091  0.1142  0.0399  0.7052
  128OSM    O1413667   4.910   1.110   6.083 -0.3634  0.2292  0.3480
  128OSM    O1113668   5.084   1.085   6.262 -0.6952  0.6745  0.2056
  128OSM    O1213669   5.144   1.016   6.028 -0.7915  0.0111  0.5864
  128OSM    C1S13670   5.002   1.003   6.348  0.2026 -0.3809  0.0758
  128OSM    H1S13671   5.033   0.896   6.340  0.0327 -0.7386  3.0524
  128OSM    H1T13672   4.895   1.003   6.319  0.0100 -1.2630  0.7316
  128OSM     NF13673   4.949   0.962   6.581  0.0425  0.2940  0.4924
  128OSM    HNF13674   4.860   0.985   6.619 -0.4059 -0.9572  0.2263
  128OSM    C2S13675   5.016   1.065   6.492  0.7315  0.4492 -0.0647
  128OSM    H2S13676   5.124   1.062   6.521  0.1802  0.3744  2.2346
  128OSM    C3S13677   4.962   1.213   6.513  0.1154 -0.2802 -0.2402
  128OSM    H3S13678   4.854   1.207   6.491 -0.3302  1.8666  1.1290
  128OSM     O313679   5.023   1.306   6.424 -0.2830  0.1843 -0.4167
  128OSM    HO313680   5.076   1.260   6.358  1.4978  0.1468  0.9902
  128OSM    C4S13681   4.965   1.256   6.661  0.0346  0.9260  0.3974
  128OSM    H4S13682   4.876   1.247   6.724  1.2905  0.2267  2.1386
  128OSM    C5S13683   5.077   1.307   6.715 -0.3488  0.8165  0.6922
  128OSM    H5S13684   5.172   1.327   6.663 -1.3770  0.2750 -1.5389
  128OSM    C6S13685   5.094   1.350   6.854  0.1755  0.9601 -0.0524
  128OSM    H6S13686   5.135   1.453   6.860  0.7313  0.6771  1.3465
  128OSM    H6T13687   5.164   1.279   6.903 -0.3698  0.1635 -0.4005
  128OSM    C7S13688   4.975   1.336   6.951  0.6749 -0.0596 -0.0359
  128OSM    H7S13689   4.940   1.231   6.955 -0.1159  0.2382  2.7223
  128OSM    H7T13690   4.897   1.398   6.901  1.3599 -1.1522 -2.6152
  128OSM    C8S13691   5.005   1.390   7.094  0.1024 -0.3330  0.2077
  128OSM    H8S13692   5.064   1.484   7.086  0.7035 -0.7127  0.0554
  128OSM    H8T13693   5.068   1.315   7.147  1.1743 -1.2533 -2.2006
  128OSM    C9S13694   4.882   1.419   7.181  1.2477 -0.1468  0.1879
  128OSM    H9S13695   4.802   1.343   7.168  1.7262 -0.7632  0.8299
  128OSM    H9T13696   4.844   1.518   7.146 -0.2543 -0.3701  1.1086
  128OSM   C10S13697   4.908   1.437   7.325 -0.1258  0.1297 -0.1673
  128OSM   H10S13698   4.965   1.359   7.378  1.8095  2.3252  1.1949
  128OSM   H10T13699   4.811   1.438   7.380 -0.1348  1.1137 -0.1717
  128OSM   C11S13700   4.985   1.563   7.361  0.0829 -0.3683  0.0674
  128OSM   H11S13701   4.934   1.644   7.306  0.3076  0.4323  1.0056
  128OSM   H11T13702   5.091   1.542   7.336  0.3000  0.0994  0.5815
  128OSM   C12S13703   4.974   1.604   7.510 -0.3094 -0.4471 -0.3877
  128OSM   H12S13704   4.866   1.625   7.525 -0.3059 -1.6109  1.6730
  128OSM   H12T13705   5.023   1.704   7.512  1.6519 -1.3535 -0.8634
  128OSM   C13S13706   5.026   1.501   7.612 -0.1434 -0.1069 -0.3325
  128OSM   H13S13707   5.136   1.506   7.625 -0.1113 -1.8797  0.2908
  128OSM   H13T13708   5.017   1.396   7.577 -1.2297 -1.2660  3.1076
  128OSM   C14S13709   4.964   1.524   7.746  0.1746 -0.1313 -0.2028
  128OSM   H14S13710   4.854   1.525   7.734 -0.0218 -2.3454  0.8656
  128OSM   H14T13711   5.004   1.618   7.788  0.3364 -1.2735  2.4103
  128OSM   C15S13712   4.992   1.419   7.844 -0.0777  0.1990  0.1999
  128OSM   H15S13713   5.103   1.407   7.839 -0.2366 -1.9800  0.6027
  128OSM   H15T13714   4.948   1.319   7.824  0.5208 -0.0491  0.0779
  128OSM   C16S13715   4.951   1.466   7.984  0.2788  0.2688 -0.3567
  128OSM   H16S13716   4.841   1.473   7.998  0.0980 -2.5650  0.2181
  128OSM   H16T13717   5.007   1.558   8.012 -0.8921  0.7277  0.5398
  128OSM   C17S13718   4.986   1.359   8.088  0.4123  0.4876  0.8657
  128OSM   H17S13719   4.910   1.279   8.078  0.4392  0.6957 -1.6021
  128OSM   H17T13720   4.979   1.397   8.192 -0.9474  2.9112 -0.0203
  128OSM   C18S13721   5.136   1.314   8.083  0.3387 -0.4278  0.1068
  128OSM   H18S13722   5.155   1.261   8.178  2.1385  1.5451  0.9416
  128OSM   H18T13723   5.208   1.399   8.082  1.5358 -1.2364  3.7594
  128OSM   H18U13724   5.165   1.250   7.997  2.5763  0.9721 -0.2786
  128OSM    C1F13725   5.007   0.842   6.600  0.9715 -0.6397  0.1166
  128OSM     OF13726   5.118   0.815   6.561 -0.2932 -0.7679 -0.3404
  128OSM    C2F13727   4.914   0.737   6.657 -0.4423  0.0581 -0.0190
  128OSM    H2F13728   4.950   0.637   6.626 -1.3591 -0.0779 -0.6994
  128OSM    H2G13729   4.816   0.748   6.605 -0.7758 -0.1162  0.5713
  128OSM    C3F13730   4.905   0.748   6.807  0.1379 -0.5766  0.7414
  128OSM    H3F13731   4.812   0.691   6.831 -1.7555  1.5821 -1.0443
  128OSM    H3G13732   4.873   0.852   6.831  0.2471 -0.3978  0.1143
  128OSM    C4F13733   5.027   0.705   6.880 -0.1341 -0.1838  0.2185
  128OSM    H4F13734   5.119   0.743   6.832  1.1318 -2.9775  0.2104
  128OSM    H4G13735   5.035   0.594   6.873  1.5434 -0.1894  1.5164
  128OSM    C5F13736   5.027   0.741   7.033 -0.0552  0.5962 -0.3887
  128OSM    H5F13737   5.007   0.850   7.036 -0.3585  0.6877  4.8830
  128OSM    H5G13738   5.125   0.716   7.079 -1.1062 -1.7880  0.7273
  128OSM    C6F13739   4.920   0.666   7.109 -0.0676 -0.5943  0.3463
  128OSM    H6F13740   4.922   0.556   7.092 -0.3550 -0.6720  0.8238
  128OSM    H6G13741   4.826   0.696   7.059  0.0170 -1.3524 -0.2859
  128OSM    C7F13742   4.923   0.702   7.254  0.4547  0.9927  0.2950
  128OSM    H7F13743   4.894   0.807   7.276 -1.5267  0.8665 -1.3481
  128OSM    H7G13744   5.021   0.683   7.302  1.0868  1.7590 -0.6577
  128OSM    C8F13745   4.813   0.628   7.339  0.2050  0.1307 -0.8694
  128OSM    H8F13746   4.823   0.518   7.330  2.8201  0.2780 -0.6540
  128OSM    H8G13747   4.711   0.653   7.304  0.1110 -1.2865 -1.6735
  128OSM    C9F13748   4.831   0.660   7.487  0.7950 -0.1002 -0.0399
  128OSM    H9F13749   4.809   0.765   7.513  0.2398  0.2802 -1.8348
  128OSM   C10F13750   4.892   0.579   7.575  0.0021  0.3140  0.2387
  128OSM   H10F13751   4.899   0.616   7.679 -0.9955 -1.2784  0.9108
  128OSM   C11F13752   4.953   0.441   7.543  0.3143 -0.7618 -0.1136
  128OSM   H11F13753   5.049   0.448   7.486  0.5395 -4.3464 -0.4101
  128OSM   H11G13754   4.892   0.389   7.466  0.6750 -3.3032  1.2224
  128OSM   C12F13755   4.984   0.342   7.652  0.1880 -0.2958  0.6008
  128OSM   H12F13756   5.025   0.250   7.606  0.4834  1.2845 -2.6105
  128OSM   H12G13757   4.890   0.314   7.704  0.4964 -0.4653  1.0763
  128OSM   C13F13758   5.097   0.391   7.749  0.5296 -1.2009  0.5821
  128OSM   H13F13759   5.070   0.487   7.799  2.9490  0.4126 -1.0271
  128OSM   H13G13760   5.184   0.425   7.690 -1.0383  0.4534 -0.8850
  128OSM   C14F13761   5.136   0.289   7.857  0.3772 -0.3592 -0.4984
  128OSM   H14F13762   5.189   0.203   7.810  1.5450  0.7959 -1.3860
  128OSM   H14G13763   5.042   0.257   7.907 -0.8166  1.1934 -1.6565
  128OSM   C15F13764   5.236   0.347   7.957 -0.2227 -0.1773  0.7408
  128OSM   H15F13765   5.190   0.434   8.008 -0.2648  0.8493 -0.9775
  128OSM   H15G13766   5.328   0.393   7.916 -0.0302 -0.2381  1.1033
  128OSM   C16F13767   5.288   0.247   8.066 -0.5837  0.5256 -0.0809
  128OSM   H16F13768   5.375   0.283   8.124 -1.3123 -0.1202  1.4607
  128OSM   H16G13769   5.318   0.158   8.007 -0.5440  0.4244  0.0907
  128OSM   C17F13770   5.188   0.203   8.171  0.1207 -0.5294  0.0208
  128OSM   H17F13771   5.208   0.098   8.201 -0.9124 -1.1202 -1.2352
  128OSM   H17G13772   5.088   0.196   8.122 -0.0775 -0.5227  0.4207
  128OSM   C18F13773   5.187   0.304   8.286 -0.8854 -0.0386 -0.7525
  128OSM   H18F13774   5.155   0.396   8.232 -0.8939 -0.5353 -1.6062
  128OSM   H18G13775   5.287   0.312   8.334 -0.6502 -1.4503 -0.9710
  128OSM   H18H13776   5.107   0.271   8.355  0.9731 -2.4905  0.3643
  129OSM      N13777   4.409   2.468   6.001  0.1601  0.2695 -0.6984
  129OSM    C1513778   4.450   2.605   5.945 -0.1776 -0.3055  0.6423
  129OSM   H15A13779   4.372   2.639   5.878  0.2745  1.4509  0.9657
  129OSM   H15B13780   4.533   2.600   5.877 -1.6164 -0.7982 -1.1485
  129OSM   H15C13781   4.465   2.687   6.014 -1.2539 -0.2058  0.7747
  129OSM    C1413782   4.402   2.372   5.886 -0.1712 -0.1601 -0.1533
  129OSM   H14A13783   4.371   2.273   5.916 -0.2766  0.0494  0.4326
  129OSM   H14B13784   4.497   2.355   5.838 -1.3148 -2.8962 -1.6872
  129OSM   H14C13785   4.337   2.400   5.804  0.6797 -1.9697 -1.5014
  129OSM    C1313786   4.521   2.424   6.094 -0.1711 -0.7997 -0.1551
  129OSM   H13A13787   4.517   2.491   6.179  1.6322 -3.1116  1.9152
  129OSM   H13B13788   4.612   2.436   6.036  1.0740 -2.7074  1.3012
  129OSM   H13C13789   4.510   2.321   6.121  1.0031 -1.5339 -2.2570
  129OSM    C1213790   4.273   2.458   6.067  0.2106  0.2280  0.2592
  129OSM   H12A13791   4.268   2.515   6.158  0.8438  1.2767 -0.3412
  129OSM   H12B13792   4.252   2.352   6.079  0.8027 -0.5335 -3.8047
  129OSM    C1113793   4.147   2.507   5.985 -0.2412  0.3502  0.1834
  129OSM   H11A13794   4.130   2.428   5.908 -0.9722  1.4092 -0.7833
  129OSM   H11B13795   4.167   2.601   5.929  0.4986 -1.1794 -2.3195
  129OSM      P13796   3.916   2.417   6.092 -0.0276 -0.0117  0.2573
  129OSM    O1313797   3.813   2.439   5.986  0.3048  0.7553 -0.0507
  129OSM    O1413798   3.964   2.279   6.113 -0.3958  0.1208  0.4998
  129OSM    O1113799   3.846   2.466   6.221 -0.3033  0.0613 -0.5883
  129OSM    O1213800   4.030   2.521   6.068  0.2234  0.0211  0.3863
  129OSM    C1S13801   3.919   2.511   6.331 -0.6684 -0.0639  0.2772
  129OSM    H1S13802   3.943   2.618   6.310  1.2281 -0.6100 -0.4832
  129OSM    H1T13803   4.017   2.460   6.327 -1.0522 -0.7390 -1.4094
  129OSM     NF13804   3.938   2.568   6.561 -0.2134  0.4815  0.1952
  129OSM    HNF13805   4.004   2.517   6.616 -1.2600  0.3563  1.3794
  129OSM    C2S13806   3.864   2.489   6.473  1.4172  0.8360  0.3969
  129OSM    H2S13807   3.756   2.515   6.478  0.7456 -1.8624  1.1937
  129OSM    C3S13808   3.865   2.333   6.500 -0.8995 -0.1892  0.3013
  129OSM    H3S13809   3.967   2.293   6.481 -0.8532  0.4571 -0.9109
  129OSM     O313810   3.778   2.272   6.406 -0.0382  0.0031  0.8969
  129OSM    HO313811   3.796   2.324   6.327 -2.6524 -2.1604 -1.3502
  129OSM    C4S13812   3.816   2.302   6.637 -0.8749  0.3345 -0.0834
  129OSM    H4S13813   3.712   2.335   6.648 -1.5560 -1.5139 -0.5957
  129OSM    C5S13814   3.891   2.249   6.729 -0.1194  0.4517  0.2503
  129OSM    H5S13815   3.997   2.227   6.709 -0.5238 -2.1123  0.6868
  129OSM    C6S13816   3.839   2.213   6.871 -0.7150 -0.6011  0.5443
  129OSM    H6S13817   3.877   2.115   6.906  0.7303 -0.1762  0.2472
  129OSM    H6T13818   3.728   2.208   6.873 -0.8679  0.6785 -1.6082
  129OSM    C7S13819   3.883   2.317   6.978  0.3310 -0.6893  0.1438
  129OSM    H7S13820   3.838   2.416   6.955 -0.3458 -1.2588 -1.0693
  129OSM    H7T13821   3.994   2.327   6.985  0.3866  2.7869 -2.5755
  129OSM    C8S13822   3.828   2.282   7.113 -0.3017 -0.3954  0.1408
  129OSM    H8S13823   3.849   2.174   7.127 -0.3683 -0.3592  0.5356
  129OSM    H8T13824   3.718   2.300   7.115 -0.5237 -1.6446  2.1035
  129OSM    C9S13825   3.891   2.367   7.231  0.2852  0.0099  0.7873
  129OSM    H9S13826   3.850   2.465   7.199 -1.0294 -0.5439  0.7159
  129OSM    H9T13827   4.002   2.373   7.237  0.3224 -1.2780  2.0534
  129OSM   C10S13828   3.839   2.320   7.376 -0.1626 -0.2739  0.7401
  129OSM   H10S13829   3.840   2.209   7.378 -0.2131 -0.2672  2.1350
  129OSM   H10T13830   3.735   2.358   7.374 -0.3836 -0.8765 -1.0862
  129OSM   C11S13831   3.913   2.388   7.496  0.5234 -0.3766 -0.2745
  129OSM   H11S13832   3.924   2.498   7.484 -4.2444  0.5783  1.9396
  129OSM   H11T13833   4.012   2.341   7.517  0.7615 -0.8284 -2.1927
  129OSM   C12S13834   3.824   2.369   7.625  0.9587  0.0910  0.2742
  129OSM   H12S13835   3.796   2.262   7.637  0.0759  0.2628 -0.1946
  129OSM   H12T13836   3.728   2.425   7.616  1.3933  1.1707  2.0042
  129OSM   C13S13837   3.893   2.403   7.758 -0.4516  0.0381 -0.5221
  129OSM   H13S13838   3.918   2.511   7.760  1.0830 -0.2808  2.0530
  129OSM   H13T13839   3.983   2.338   7.755 -0.8468 -0.8764  2.9942
  129OSM   C14S13840   3.809   2.370   7.885  0.2632 -0.0603  0.3940
  129OSM   H14S13841   3.761   2.269   7.880 -1.8883  0.9525 -1.0516
  129OSM   H14T13842   3.723   2.439   7.891 -0.8956 -1.2270 -1.5572
  129OSM   C15S13843   3.889   2.398   8.012 -0.7141 -0.7949  0.4147
  129OSM   H15S13844   3.944   2.492   7.991  2.4578 -2.4322  0.7481
  129OSM   H15T13845   3.955   2.309   8.025  0.1291 -0.3757 -0.8038
  129OSM   C16S13846   3.802   2.428   8.127  0.2255 -0.4420  0.3258
  129OSM   H16S13847   3.730   2.344   8.132 -1.0666  0.4684 -1.6763
  129OSM   H16T13848   3.753   2.525   8.102 -0.7259 -0.5801  1.5297
  129OSM   C17S13849   3.883   2.468   8.254 -0.4290 -0.1637  0.1990
  129OSM   H17S13850   3.960   2.545   8.231  0.1895 -1.6206 -3.2596
  129OSM   H17T13851   3.949   2.382   8.278  1.7101  1.2870 -0.2683
  129OSM   C18S13852   3.792   2.502   8.375 -0.1278 -0.0605 -0.0803
  129OSM   H18S13853   3.714   2.427   8.400  2.1215 -2.3299  0.6684
  129OSM   H18T13854   3.742   2.600   8.359  1.6049  1.3869  2.6054
  129OSM   H18U13855   3.852   2.519   8.467  0.9361 -1.8700 -0.3790
  129OSM    C1F13856   3.931   2.704   6.573  0.3584 -0.3017  0.3278
  129OSM     OF13857   3.864   2.767   6.495  0.0212  0.3856 -0.0169
  129OSM    C2F13858   4.001   2.768   6.693  0.0409  0.6090  0.0686
  129OSM    H2F13859   4.104   2.777   6.653  1.5239 -2.3090  2.7411
  129OSM    H2G13860   3.991   2.693   6.775 -1.9855 -0.4030 -1.0235
  129OSM    C3F13861   3.950   2.901   6.740  0.0541  0.0423 -0.3138
  129OSM    H3F13862   3.968   2.973   6.658 -0.6159 -0.0332 -0.5358
  129OSM    H3G13863   4.002   2.939   6.831 -0.8710  1.5598 -0.3817
  129OSM    C4F13864   3.802   2.893   6.790 -0.1366  0.2153 -0.4126
  129OSM    H4F13865   3.789   2.789   6.827  0.6372 -0.2358 -1.3502
  129OSM    H4G13866   3.732   2.907   6.704 -1.3637 -3.5710 -0.1896
  129OSM    C5F13867   3.781   2.979   6.917  0.0595 -0.6020 -0.7689
  129OSM    H5F13868   3.796   3.084   6.886 -2.6373  0.0598 -0.1617
  129OSM    H5G13869   3.852   2.962   7.000 -1.5658 -1.1120  0.5884
  129OSM    C6F13870   3.638   2.974   6.974  0.0417  0.5612 -0.2660
  129OSM    H6F13871   3.621   2.864   6.982 -0.2327  0.7316  2.0778
  129OSM    H6G13872   3.564   3.011   6.900 -1.0640 -0.6435  0.1975
  129OSM    C7F13873   3.614   3.047   7.109  0.6993  0.2721 -0.0427
  129OSM    H7F13874   3.509   3.027   7.138 -0.0769  0.9345 -2.1531
  129OSM    H7G13875   3.636   3.153   7.085 -1.6982  0.8464  0.0191
  129OSM    C8F13876   3.701   2.995   7.231 -0.1975  0.4057  0.1888
  129OSM    H8F13877   3.677   3.072   7.306 -1.6330  0.3870 -0.2297
  129OSM    H8G13878   3.807   3.000   7.196 -1.1424 -0.3503 -3.1706
  129OSM    C9F13879   3.662   2.859   7.284  0.0665  0.1299  0.4343
  129OSM    H9F13880   3.556   2.830   7.274  0.2564 -1.2564  2.1143
  129OSM   C10F13881   3.731   2.785   7.369  0.4762 -0.5994  0.3247
  129OSM   H10F13882   3.679   2.696   7.409 -0.1936 -0.4007 -0.0859
  129OSM   C11F13883   3.867   2.815   7.412  0.0727  0.0238 -0.3239
  129OSM   H11F13884   3.929   2.883   7.349  0.3535 -0.1178 -0.2022
  129OSM   H11G13885   3.922   2.720   7.427  1.3354  1.1544  3.2853
  129OSM   C12F13886   3.858   2.873   7.559  0.6242  0.6042  0.3266
  129OSM   H12F13887   3.819   2.977   7.562 -1.1258 -0.0211  0.4269
  129OSM   H12G13888   3.962   2.882   7.599  0.0018  0.7707  1.9777
  129OSM   C13F13889   3.774   2.797   7.659 -0.0995  0.1307  0.3142
  129OSM   H13F13890   3.789   2.687   7.649 -1.4420  0.1122 -2.5078
  129OSM   H13G13891   3.668   2.810   7.628 -0.4407 -0.8311  1.0257
  129OSM   C14F13892   3.791   2.841   7.805  0.1640 -0.0256 -0.1608
  129OSM   H14F13893   3.769   2.950   7.808  0.0992  0.0251 -1.5838
  129OSM   H14G13894   3.895   2.815   7.831  0.3428 -0.0712 -0.8934
  129OSM   C15F13895   3.698   2.767   7.904 -0.3856 -0.2692  0.0742
  129OSM   H15F13896   3.744   2.672   7.938  1.5923  0.5449 -0.2059
  129OSM   H15G13897   3.602   2.743   7.852  0.4801 -1.8840 -0.8299
  129OSM   C16F13898   3.661   2.851   8.029 -0.2444  0.5504  0.0385
  129OSM   H16F13899   3.613   2.949   8.008 -1.5616  0.4914  2.4017
  129OSM   H16G13900   3.755   2.873   8.085 -0.5486  0.1365  0.7349
  129OSM   C17F13901   3.576   2.765   8.126  0.3395 -0.2492  0.1159
  129OSM   H17F13902   3.630   2.669   8.145  0.0472 -0.7656 -1.4762
  129OSM   H17G13903   3.477   2.747   8.079 -0.8203 -0.7033  2.5896
  129OSM   C18F13904   3.552   2.840   8.258 -0.3728 -0.2003 -0.2632
  129OSM   H18F13905   3.477   2.777   8.310  2.1665 -2.2233  1.2176
  129OSM   H18G13906   3.528   2.948   8.257  1.5149  0.2689  0.5044
  129OSM   H18H13907   3.640   2.836   8.326  0.7220 -3.3351 -1.6808
  130OSM      N13908   4.706   6.573   6.008  0.0093  0.7156  0.5560
  130OSM    C1513909   4.652   6.681   6.091  0.2314 -0.0577  0.3677
  130OSM   H15A13910   4.717   6.694   6.176  0.2163  1.2434  0.2045
  130OSM   H15B13911   4.545   6.673   6.109  0.3009 -0.0696  0.7843
  130OSM   H15C13912   4.651   6.780   6.048  0.6987  0.5499  1.6878
  130OSM    C1413913   4.677   6.443   6.071 -0.2565  0.4086  0.0513
  130OSM   H14A13914   4.742   6.376   6.016  0.0642  0.2464  0.6151
  130OSM   H14B13915   4.576   6.406   6.061 -0.2467  0.3352  0.2146
  130OSM   H14C13916   4.699   6.436   6.177  0.0435  0.6182  0.0038
  130OSM    C1313917   4.637   6.570   5.875 -0.2263 -0.5195  0.8209
  130OSM   H13A13918   4.539   6.527   5.889 -0.8390  0.6786  0.3485
  130OSM   H13B13919   4.691   6.506   5.806  0.3104  2.6149 -1.9442
  130OSM   H13C13920   4.627   6.672   5.839 -1.1919 -0.3770  1.4701
  130OSM    C1213921   4.862   6.587   5.994 -0.4410 -0.0298  0.6988
  130OSM   H12A13922   4.891   6.503   5.933  1.4248  0.9052  0.2274
  130OSM   H12B13923   4.916   6.563   6.084 -0.8449  0.7864  1.1698
  130OSM    C1113924   4.924   6.721   5.934 -0.3761 -0.7980  0.4526
  130OSM   H11A13925   4.875   6.732   5.835  1.5092 -2.0545 -0.6846
  130OSM   H11B13926   5.030   6.699   5.908 -0.6061  0.2740 -1.6349
  130OSM      P13927   4.996   6.840   6.157 -0.8592 -0.2221  0.1092
  130OSM    O1313928   4.984   6.712   6.233  0.3741 -0.1799  0.1608
  130OSM    O1413929   5.137   6.879   6.120  0.1731 -0.0807 -0.1697
  130OSM    O1113930   4.921   6.955   6.240  0.0848 -0.8272 -0.7609
  130OSM    O1213931   4.909   6.830   6.029 -0.0161 -0.9727 -0.2093
  130OSM    C1S13932   4.800   6.936   6.316 -0.5848  0.3232 -0.1272
  130OSM    H1S13933   4.757   6.833   6.314 -0.5150  0.2908  0.1421
  130OSM    H1T13934   4.731   7.011   6.270  1.4945  3.3798  1.4150
  130OSM     NF13935   4.683   6.977   6.532 -0.9995  0.0663  0.0464
  130OSM    HNF13936   4.639   7.065   6.545 -0.7805  0.5926 -2.3085
  130OSM    C2S13937   4.816   6.979   6.466  0.7420  0.1326 -0.3541
  130OSM    H2S13938   4.883   6.903   6.511  3.0040  2.9197  1.3444
  130OSM    C3S13939   4.884   7.122   6.482  0.0958  0.7074 -0.0934
  130OSM    H3S13940   4.807   7.199   6.460  1.3243  1.3041 -2.6441
  130OSM     O313941   4.988   7.145   6.396 -0.4001  0.0604  0.2729
  130OSM    HO313942   4.972   7.077   6.330 -0.8834 -0.4927  0.9599
  130OSM    C4S13943   4.905   7.157   6.623  0.4328 -0.4132 -0.1344
  130OSM    H4S13944   4.814   7.192   6.674  1.0722  1.0558  0.0508
  130OSM    C5S13945   5.015   7.142   6.696 -0.4414 -1.3092 -0.5112
  130OSM    H5S13946   5.112   7.120   6.648  0.9316 -0.7458  1.8269
  130OSM    C6S13947   5.051   7.180   6.838 -0.2806 -0.6764  1.0648
  130OSM    H6S13948   4.961   7.221   6.890 -0.2918 -1.4099  1.6371
  130OSM    H6T13949   5.132   7.255   6.825 -0.2601 -0.9033 -0.2181
  130OSM    C7S13950   5.086   7.062   6.919 -0.3491  0.2303 -1.2746
  130OSM    H7S13951   5.171   7.008   6.873  1.0829 -0.0445  1.5046
  130OSM    H7T13952   4.999   6.995   6.938  0.5870 -0.8258 -0.6033
  130OSM    C8S13953   5.132   7.115   7.059  0.4583  1.1019 -0.5099
  130OSM    H8S13954   5.052   7.183   7.096  0.5817  0.4159  1.1215
  130OSM    H8T13955   5.219   7.184   7.051  1.6427 -0.1363  0.9585
  130OSM    C9S13956   5.181   7.013   7.169 -0.1354  0.5776 -0.8756
  130OSM    H9S13957   5.236   6.926   7.128 -0.4961 -0.4145  0.6518
  130OSM    H9T13958   5.088   6.984   7.222  0.0621  1.1149 -0.2176
  130OSM   C10S13959   5.272   7.085   7.274  0.0473 -0.3755 -0.2218
  130OSM   H10S13960   5.225   7.180   7.306 -1.1659 -0.6739 -1.0380
  130OSM   H10T13961   5.364   7.114   7.219 -1.3983  0.5553 -2.2934
  130OSM   C11S13962   5.307   7.005   7.392  0.0587 -0.4067 -0.4408
  130OSM   H11S13963   5.344   6.901   7.374  1.0558  0.1554 -1.7829
  130OSM   H11T13964   5.215   6.983   7.450 -0.8336 -2.0987 -2.3619
  130OSM   C12S13965   5.410   7.070   7.484  0.3165  0.8729 -0.3365
  130OSM   H12S13966   5.356   7.149   7.540 -1.3996 -0.9864  0.7582
  130OSM   H12T13967   5.503   7.113   7.442  0.5528 -0.2355 -0.9927
  130OSM   C13S13968   5.444   6.978   7.601 -0.1712  0.2266 -0.2360
  130OSM   H13S13969   5.492   6.881   7.573 -0.7650 -0.5366  1.2385
  130OSM   H13T13970   5.351   6.950   7.655  0.9418 -2.0430  0.6639
  130OSM   C14S13971   5.545   7.039   7.697  0.6118 -0.1801  0.5998
  130OSM   H14S13972   5.490   7.131   7.728  0.0477  0.3372 -1.7134
  130OSM   H14T13973   5.640   7.058   7.643  2.6488  1.9751  4.5007
  130OSM   C15S13974   5.576   6.958   7.821  0.1724 -0.1939 -0.4702
  130OSM   H15S13975   5.639   6.869   7.803 -0.6969 -0.5436 -1.9616
  130OSM   H15T13976   5.484   6.903   7.850  2.7905 -4.2492  0.9905
  130OSM   C16S13977   5.630   7.050   7.934 -0.6732 -0.1666 -0.4161
  130OSM   H16S13978   5.552   7.117   7.975  0.8501  1.2834  0.2175
  130OSM   H16T13979   5.708   7.117   7.891 -0.2670  0.3029  1.0159
  130OSM   C17S13980   5.687   6.982   8.052  0.1293 -0.1096  0.3398
  130OSM   H17S13981   5.766   6.910   8.023  1.6302  1.4457  0.4339
  130OSM   H17T13982   5.610   6.918   8.100  1.0084  0.2213  2.2758
  130OSM   C18S13983   5.731   7.072   8.162  0.6418  0.0051  0.1486
  130OSM   H18S13984   5.645   7.133   8.199  0.5937  0.1738 -0.2321
  130OSM   H18T13985   5.813   7.143   8.137  0.8751  0.4291  1.9394
  130OSM   H18U13986   5.765   7.015   8.251 -1.7329  0.0157  1.1285
  130OSM    C1F13987   4.616   6.868   6.552 -0.5410 -0.3981  0.0679
  130OSM     OF13988   4.656   6.760   6.512 -0.0497  0.6011 -0.0119
  130OSM    C2F13989   4.487   6.874   6.634 -0.6503 -0.2941  0.3191
  130OSM    H2F13990   4.406   6.834   6.569  0.4051 -0.2923 -1.0431
  130OSM    H2G13991   4.468   6.980   6.664  2.5345  1.0708 -1.9103
  130OSM    C3F13992   4.497   6.790   6.760 -0.7254 -0.0725 -0.9362
  130OSM    H3F13993   4.575   6.835   6.824 -2.6387  0.8816  0.8332
  130OSM    H3G13994   4.524   6.684   6.741 -1.7055 -0.8746  1.7948
  130OSM    C4F13995   4.365   6.800   6.846 -0.3669 -0.7006 -0.7793
  130OSM    H4F13996   4.285   6.745   6.793  0.1607 -2.0583 -0.2034
  130OSM    H4G13997   4.338   6.907   6.858  0.4839 -0.6612  1.2066
  130OSM    C5F13998   4.389   6.739   6.988  0.1775  0.0012  1.0752
  130OSM    H5F13999   4.471   6.793   7.040  1.3729 -2.1029  1.4915
  130OSM    H5G14000   4.426   6.635   6.980 -0.4375 -0.0706 -2.1309
  130OSM    C6F14001   4.267   6.735   7.078 -0.2758 -0.2417 -1.3220
  130OSM    H6F14002   4.182   6.672   7.043 -1.4373  0.3602  0.3083
  130OSM    H6G14003   4.221   6.836   7.084 -0.0902 -0.0555 -2.6509
  130OSM    C7F14004   4.303   6.674   7.221  0.3920 -0.0967 -0.0383
  130OSM    H7F14005   4.386   6.737   7.261  1.4558 -0.1038 -2.1024
  130OSM    H7G14006   4.331   6.568   7.201 -1.5991 -0.4651 -1.0382
  130OSM    C8F14007   4.178   6.679   7.315  0.1201 -0.3011  0.0552
  130OSM    H8F14008   4.098   6.623   7.262  0.4321  0.6562 -1.4956
  130OSM    H8G14009   4.143   6.784   7.320 -0.0383 -0.3626  0.2410
  130OSM    C9F14010   4.210   6.622   7.449 -0.3669 -0.5915 -0.1598
  130OSM    H9F14011   4.219   6.513   7.452 -4.2966 -1.0683 -0.2536
  130OSM   C10F14012   4.196   6.686   7.565 -0.3283  0.3955  0.0514
  130OSM   H10F14013   4.206   6.620   7.653  0.3054 -0.5461 -0.7111
  130OSM   C11F14014   4.164   6.831   7.597  0.1052 -0.0389 -0.3014
  130OSM   H11F14015   4.126   6.894   7.514  1.4736 -0.9528 -1.6748
  130OSM   H11G14016   4.258   6.878   7.632 -0.5877 -0.1759  1.9040
  130OSM   C12F14017   4.061   6.836   7.711  0.2546  0.3568 -0.1803
  130OSM   H12F14018   4.096   6.797   7.809 -0.2483 -0.7898 -0.4471
  130OSM   H12G14019   3.958   6.801   7.690  0.6213  0.0419 -1.5242
  130OSM   C13F14020   4.040   6.988   7.747  0.5254 -0.4093 -0.6279
  130OSM   H13F14021   3.944   7.006   7.800 -0.4248 -0.5896 -2.2108
  130OSM   H13G14022   4.039   7.038   7.647 -0.0239 -0.3047 -0.5718
  130OSM   C14F14023   4.151   7.056   7.833 -0.3450  0.4206 -0.5120
  130OSM   H14F14024   4.139   7.164   7.811 -1.0007  1.0681  2.4565
  130OSM   H14G14025   4.254   7.031   7.801 -0.7319  0.3475 -1.7427
  130OSM   C15F14026   4.132   7.038   7.987 -1.3949 -0.4052  0.1822
  130OSM   H15F14027   4.117   6.931   8.013 -0.2895 -1.2826 -2.4485
  130OSM   H15G14028   4.037   7.092   8.005  0.1625  2.2423  0.9457
  130OSM   C16F14029   4.252   7.095   8.059  0.4656  0.1157 -0.0247
  130OSM   H16F14030   4.255   7.204   8.041 -1.3825  0.2077  0.0056
  130OSM   H16G14031   4.342   7.046   8.016 -0.0137 -1.2491  0.4582
  130OSM   C17F14032   4.241   7.075   8.211  0.2586 -0.1107 -0.2738
  130OSM   H17F14033   4.213   6.967   8.219  1.8761 -0.7402 -2.2857
  130OSM   H17G14034   4.154   7.132   8.252  0.7436  0.4064  0.0491
  130OSM   C18F14035   4.360   7.095   8.306 -0.7509  0.0183  0.5633
  130OSM   H18F14036   4.404   7.197   8.315 -2.2901  0.6949  0.6631
  130OSM   H18G14037   4.431   7.022   8.262 -2.0766 -1.9528  1.5411
  130OSM   H18H14038   4.338   7.076   8.413  1.4591  0.6212  1.1948
  131OSM      N14039   3.506   4.289   5.798  0.2625  0.0477 -0.3683
  131OSM    C1514040   3.447   4.247   5.663 -0.2126  0.4286  0.3506
  131OSM   H15A14041   3.402   4.149   5.672 -0.0865  0.4989  2.1687
  131OSM   H15B14042   3.521   4.241   5.585  1.4295  0.5025  1.8324
  131OSM   H15C14043   3.374   4.322   5.635  0.4034  1.0159  0.2791
  131OSM    C1414044   3.626   4.196   5.820 -0.3298 -0.1778  0.2650
  131OSM   H14A14045   3.674   4.209   5.915 -1.1908 -2.3197  1.0614
  131OSM   H14B14046   3.702   4.218   5.747 -1.7970 -0.4537 -1.4445
  131OSM   H14C14047   3.598   4.092   5.808 -3.0847  0.4149  0.8848
  131OSM    C1314048   3.562   4.431   5.783 -0.2630 -0.7526  0.2044
  131OSM   H13A14049   3.483   4.497   5.750 -0.6889 -1.4116 -0.1257
  131OSM   H13B14050   3.633   4.436   5.701 -1.2384  2.0649 -0.5857
  131OSM   H13C14051   3.615   4.471   5.868  0.5931  0.5294 -0.8875
  131OSM    C1214052   3.406   4.285   5.914  0.3757 -0.1615  0.2442
  131OSM   H12A14053   3.361   4.186   5.914  1.3544 -0.6495 -1.5625
  131OSM   H12B14054   3.327   4.357   5.897  0.1535  0.4443  3.2695
  131OSM    C1114055   3.465   4.314   6.057 -0.3105  0.3345  1.8584
  131OSM   H11A14056   3.378   4.317   6.126 -0.1520 -0.6297  2.1159
  131OSM   H11B14057   3.513   4.414   6.049  3.0396 -1.2283  0.3023
  131OSM      P14058   3.688   4.262   6.183  0.1658  0.2670  0.3179
  131OSM    O1314059   3.744   4.145   6.246 -0.3214  0.3065 -0.7034
  131OSM    O1414060   3.771   4.340   6.099 -0.1557  0.4172 -0.1840
  131OSM    O1114061   3.641   4.352   6.304  0.3818 -0.1573  0.5195
  131OSM    O1214062   3.551   4.212   6.107  0.0160  0.1338 -0.5189
  131OSM    C1S14063   3.531   4.317   6.379 -0.0667  0.3351 -0.8412
  131OSM    H1S14064   3.505   4.211   6.362 -1.3122  0.2721  1.1151
  131OSM    H1T14065   3.443   4.375   6.342  1.1217  1.3418 -2.2108
  131OSM     NF14066   3.421   4.298   6.595 -0.7126 -0.7256  0.1771
  131OSM    HNF14067   3.360   4.370   6.628 -2.0784 -0.1527 -3.2297
  131OSM    C2S14068   3.546   4.338   6.532 -0.3160  1.4560  0.2263
  131OSM    H2S14069   3.626   4.266   6.559 -1.4490  1.1812  3.2153
  131OSM    C3S14070   3.604   4.475   6.582  0.4122 -0.2673  0.5633
  131OSM    H3S14071   3.526   4.547   6.550  0.3005 -0.1032  1.2030
  131OSM     O314072   3.726   4.497   6.517  0.3593  0.3885  0.1922
  131OSM    HO314073   3.701   4.461   6.432  1.4060 -0.5287  0.2374
  131OSM    C4S14074   3.631   4.483   6.724  0.2674 -0.1383 -0.6097
  131OSM    H4S14075   3.717   4.421   6.755  1.5324  0.4628 -2.7321
  131OSM    C5S14076   3.553   4.546   6.813 -0.1366 -0.2550 -0.2919
  131OSM    H5S14077   3.458   4.587   6.775 -0.2805 -0.2327  0.0858
  131OSM    C6S14078   3.565   4.565   6.968 -0.0167 -0.0463  0.5995
  131OSM    H6S14079   3.537   4.668   7.001  0.9559  0.0361  1.2042
  131OSM    H6T14080   3.670   4.546   6.997  0.4232  0.9784 -0.2403
  131OSM    C7S14081   3.482   4.465   7.046 -0.6989  0.9351  0.0976
  131OSM    H7S14082   3.493   4.361   7.009  1.3747  0.9643  0.5183
  131OSM    H7T14083   3.381   4.502   7.015 -0.8983  0.2782 -0.0478
  131OSM    C8S14084   3.496   4.467   7.205  0.2984 -0.2159  0.0870
  131OSM    H8S14085   3.599   4.438   7.233  0.1071 -1.2806 -0.2817
  131OSM    H8T14086   3.426   4.391   7.245 -1.2131  1.2291  0.3244
  131OSM    C9S14087   3.448   4.606   7.261  0.4191  0.2072  0.1093
  131OSM    H9S14088   3.352   4.636   7.212 -0.6450 -1.7098  0.9207
  131OSM    H9T14089   3.528   4.676   7.227  0.4196  1.1133  1.8842
  131OSM   C10S14090   3.456   4.615   7.411 -0.0839 -0.0739  0.0765
  131OSM   H10S14091   3.460   4.723   7.437 -2.6553 -0.0297  0.5585
  131OSM   H10T14092   3.554   4.571   7.441 -0.0582  0.0127  0.1196
  131OSM   C11S14093   3.344   4.538   7.490 -0.0541  0.1404 -0.2416
  131OSM   H11S14094   3.350   4.433   7.454 -0.3467 -0.1246  0.4636
  131OSM   H11T14095   3.242   4.578   7.471  0.1867  1.5560  1.1787
  131OSM   C12S14096   3.363   4.533   7.646 -0.4272  0.1006  0.2925
  131OSM   H12S14097   3.406   4.628   7.684  0.8462 -0.0661 -0.6670
  131OSM   H12T14098   3.428   4.455   7.691 -1.2001  0.6996  2.5957
  131OSM   C13S14099   3.232   4.508   7.724 -0.5557 -0.0530  0.7127
  131OSM   H13S14100   3.193   4.411   7.687  0.7457  1.0409 -4.2709
  131OSM   H13T14101   3.161   4.590   7.702 -0.9046 -0.3478  0.7235
  131OSM   C14S14102   3.247   4.508   7.871  0.2871 -0.6199 -0.6168
  131OSM   H14S14103   3.300   4.602   7.899  0.1615 -0.2482 -1.6165
  131OSM   H14T14104   3.303   4.423   7.916 -0.1751  0.3802  2.0714
  131OSM   C15S14105   3.112   4.484   7.943  0.6002  0.8995 -0.5037
  131OSM   H15S14106   3.121   4.414   8.028 -0.4689 -2.4133 -2.9013
  131OSM   H15T14107   3.040   4.420   7.887  0.3718  0.8588 -0.1704
  131OSM   C16S14108   3.037   4.614   8.002 -0.2108  0.1865 -0.0444
  131OSM   H16S14109   2.992   4.674   7.921 -1.0425 -3.1616 -2.2738
  131OSM   H16T14110   3.113   4.667   8.064 -1.6683 -0.6090  2.5748
  131OSM   C17S14111   2.922   4.593   8.092  0.0307  0.1869 -0.8169
  131OSM   H17S14112   2.948   4.522   8.173 -0.5405  0.4554 -0.3933
  131OSM   H17T14113   2.847   4.541   8.028 -0.1263 -1.5473  0.7000
  131OSM   C18S14114   2.858   4.709   8.154 -0.6870  0.0379 -0.2752
  131OSM   H18S14115   2.792   4.676   8.237 -0.7453 -1.5764 -0.9256
  131OSM   H18T14116   2.812   4.781   8.083  0.0783 -0.7028 -1.5622
  131OSM   H18U14117   2.936   4.767   8.208 -1.0481  1.1236 -0.8954
  131OSM    C1F14118   3.389   4.166   6.588  0.6144 -0.3205 -0.2487
  131OSM     OF14119   3.468   4.078   6.571 -0.0395  0.5684  0.3576
  131OSM    C2F14120   3.242   4.129   6.603 -0.4540 -0.3430  0.2762
  131OSM    H2F14121   3.250   4.018   6.615 -0.4112 -0.3805 -0.0899
  131OSM    H2G14122   3.189   4.147   6.507 -0.5063  1.0409  0.5542
  131OSM    C3F14123   3.162   4.195   6.712 -0.1785 -0.1388 -0.5021
  131OSM    H3F14124   3.059   4.154   6.697 -0.1626 -1.0955  1.5769
  131OSM    H3G14125   3.145   4.302   6.691 -0.2915 -0.1883 -0.6649
  131OSM    C4F14126   3.203   4.171   6.857  0.3663  0.3148 -0.0322
  131OSM    H4F14127   3.309   4.204   6.866  0.4964 -0.1225  0.0450
  131OSM    H4G14128   3.212   4.062   6.876 -0.2731 -0.0491 -1.6819
  131OSM    C5F14129   3.111   4.241   6.950 -0.0070  0.5395 -0.4194
  131OSM    H5F14130   3.007   4.207   6.932 -0.5438  0.8427  1.8692
  131OSM    H5G14131   3.114   4.348   6.922  1.0066  0.1649 -1.8453
  131OSM    C6F14132   3.141   4.222   7.102  0.6337  0.3511  0.2570
  131OSM    H6F14133   3.246   4.257   7.115  0.2434  1.6071  0.2033
  131OSM    H6G14134   3.136   4.112   7.113  0.6124  0.0878 -1.9392
  131OSM    C7F14135   3.041   4.294   7.194 -0.0162 -0.4786 -0.3832
  131OSM    H7F14136   2.938   4.277   7.155 -1.1028  2.1460  1.1078
  131OSM    H7G14137   3.056   4.404   7.199 -1.2101 -0.3683  1.3978
  131OSM    C8F14138   3.045   4.239   7.340  0.1019  0.3733 -0.2474
  131OSM    H8F14139   3.150   4.235   7.376 -0.1320  1.2360  0.5792
  131OSM    H8G14140   2.989   4.144   7.326  0.3834  0.4611 -2.3852
  131OSM    C9F14141   2.978   4.328   7.443  0.2892  0.5149  0.6040
  131OSM    H9F14142   2.976   4.435   7.417  1.2556  0.3669 -0.1616
  131OSM   C10F14143   2.904   4.285   7.552 -0.0745 -0.1311  0.1344
  131OSM   H10F14144   2.851   4.364   7.607  0.4848 -0.6731  1.5196
  131OSM   C11F14145   2.888   4.144   7.599 -0.3550  0.3257 -0.0290
  131OSM   H11F14146   2.874   4.076   7.512  1.9366 -0.5340  0.2100
  131OSM   H11G14147   2.795   4.158   7.659  0.3999 -0.0343  1.2586
  131OSM   C12F14148   3.002   4.078   7.678 -0.7661  0.2777  0.1142
  131OSM   H12F14149   3.099   4.078   7.624 -1.0210  0.4270 -0.3468
  131OSM   H12G14150   2.977   3.971   7.691  0.0976 -0.0526 -0.7736
  131OSM   C13F14151   3.035   4.148   7.812  0.9650  0.4367 -0.0546
  131OSM   H13F14152   2.936   4.174   7.853 -0.0412 -0.4532 -1.8145
  131OSM   H13G14153   3.089   4.244   7.800  0.7217  0.4733 -0.8632
  131OSM   C14F14154   3.111   4.073   7.917 -0.5114  0.6362 -0.0119
  131OSM   H14F14155   3.127   4.121   8.016 -2.2270 -0.6943  0.9724
  131OSM   H14G14156   3.196   4.052   7.849 -1.5295  1.4836 -1.6005
  131OSM   C15F14157   3.047   3.937   7.964 -0.3436  0.1662 -0.5451
  131OSM   H15F14158   3.042   3.872   7.874  2.8410 -0.8473 -0.1112
  131OSM   H15G14159   2.947   3.965   8.002  0.3567  1.5936  0.3309
  131OSM   C16F14160   3.120   3.868   8.079  0.1743 -0.2132 -0.0669
  131OSM   H16F14161   3.130   3.929   8.171 -1.7543  1.1497 -0.7073
  131OSM   H16G14162   3.225   3.851   8.045  0.0758  2.0128 -1.6933
  131OSM   C17F14163   3.053   3.735   8.106  0.1663  0.1636 -0.1702
  131OSM   H17F14164   3.058   3.681   8.009  0.5768  1.7778 -1.0902
  131OSM   H17G14165   2.947   3.751   8.134  0.8016  1.6367  1.6115
  131OSM   C18F14166   3.128   3.650   8.207 -0.2354  0.4569 -0.1042
  131OSM   H18F14167   3.237   3.672   8.199 -0.0227 -0.1701  0.9316
  131OSM   H18G14168   3.112   3.540   8.201 -2.5472  0.7583 -0.3140
  131OSM   H18H14169   3.118   3.688   8.311 -0.6067 -0.9424  0.3912
  132OSM      N14170   6.470   1.726   5.913  0.5785 -0.8558 -0.2877
  132OSM    C1514171   6.448   1.829   5.803 -0.7145 -0.8292 -0.2081
  132OSM   H15A14172   6.346   1.824   5.768  0.0143 -2.8384 -2.3353
  132OSM   H15B14173   6.521   1.812   5.725  0.5436  0.7318  0.5693
  132OSM   H15C14174   6.469   1.929   5.836 -0.4575 -1.0031  0.1701
  132OSM    C1414175   6.471   1.594   5.846 -0.5845 -0.1024 -0.3829
  132OSM   H14A14176   6.560   1.581   5.785  1.1505 -1.1527  2.1987
  132OSM   H14B14177   6.381   1.582   5.787  1.3092 -0.3454 -3.4400
  132OSM   H14C14178   6.480   1.512   5.915  4.6614 -0.7471 -1.3927
  132OSM    C1314179   6.601   1.753   5.974  0.3612 -0.2184 -0.1453
  132OSM   H13A14180   6.630   1.856   5.989 -1.4312  0.8286 -3.0298
  132OSM   H13B14181   6.690   1.708   5.931  1.6403  0.6069  1.5076
  132OSM   H13C14182   6.601   1.697   6.067  0.8457 -2.2317 -1.3011
  132OSM    C1214183   6.355   1.734   6.007  0.0224 -0.1595 -0.0298
  132OSM   H12A14184   6.269   1.690   5.958 -1.8842  1.3182  1.8020
  132OSM   H12B14185   6.333   1.837   6.032 -1.5231  0.0250 -1.9024
  132OSM    C1114186   6.375   1.652   6.139 -0.4724  0.0191 -0.6113
  132OSM   H11A14187   6.396   1.548   6.108  2.1992  1.1703 -3.1115
  132OSM   H11B14188   6.274   1.655   6.186 -0.0719  2.3753  0.2597
  132OSM      P14189   6.432   1.830   6.312 -0.2062  0.1226  0.2928
  132OSM    O1314190   6.541   1.871   6.402 -0.0733 -0.3978  0.2827
  132OSM    O1414191   6.374   1.934   6.227  0.2380 -0.0989  0.3284
  132OSM    O1114192   6.310   1.772   6.396  0.4494 -0.5372  0.4014
  132OSM    O1214193   6.480   1.705   6.218 -0.6010 -0.6792  0.7036
  132OSM    C1S14194   6.333   1.668   6.484  0.5299 -0.3313  0.0961
  132OSM    H1S14195   6.434   1.667   6.532  1.2791  0.8777 -1.3351
  132OSM    H1T14196   6.309   1.569   6.441 -1.1728  0.3587 -0.6380
  132OSM     NF14197   6.271   1.595   6.706  0.1587 -0.3391  0.0189
  132OSM    HNF14198   6.229   1.506   6.721  0.9158 -0.4280  1.9690
  132OSM    C2S14199   6.224   1.671   6.592 -0.1847 -0.4266 -0.1207
  132OSM    H2S14200   6.222   1.775   6.628  2.3129 -0.4188  0.1257
  132OSM    C3S14201   6.088   1.620   6.548  0.5146 -0.2274 -0.3552
  132OSM    H3S14202   6.095   1.515   6.515 -0.6823 -0.3197 -0.3554
  132OSM     O314203   6.035   1.694   6.440  0.2340 -0.0731  0.8096
  132OSM    HO314204   6.111   1.744   6.411  1.3331 -1.1231  1.8066
  132OSM    C4S14205   5.994   1.634   6.658 -0.0795 -0.6790 -0.3604
  132OSM    H4S14206   5.948   1.733   6.674  3.0598  0.7954  0.1692
  132OSM    C5S14207   5.937   1.528   6.716 -0.5478 -0.3358 -0.3114
  132OSM    H5S14208   5.947   1.426   6.677  0.5622 -0.1744 -0.4618
  132OSM    C6S14209   5.846   1.542   6.831  0.0571  0.3734 -0.6022
  132OSM    H6S14210   5.812   1.440   6.859  1.0985  0.2426  0.2203
  132OSM    H6T14211   5.756   1.606   6.819 -0.2882  0.3992  1.7574
  132OSM    C7S14212   5.935   1.585   6.947 -0.4797 -0.0474 -0.5946
  132OSM    H7S14213   5.952   1.694   6.936  0.8440  0.1016  2.2159
  132OSM    H7T14214   6.038   1.545   6.948  0.6205  2.5938  0.3949
  132OSM    C8S14215   5.874   1.548   7.088 -0.2367  0.1878 -0.1305
  132OSM    H8S14216   5.882   1.438   7.087  2.3454  0.3189 -1.3065
  132OSM    H8T14217   5.765   1.571   7.088 -0.1252  0.8480  1.4453
  132OSM    C9S14218   5.954   1.595   7.216 -0.2582 -0.0883 -0.0728
  132OSM    H9S14219   5.935   1.704   7.226 -0.4542 -0.2921  2.1086
  132OSM    H9T14220   6.064   1.579   7.203 -0.2934 -1.0617  0.7323
  132OSM   C10S14221   5.916   1.517   7.338  0.5264  0.6059  0.5755
  132OSM   H10S14222   5.956   1.414   7.326 -1.9097 -0.4576  1.0819
  132OSM   H10T14223   5.805   1.509   7.341  0.5655 -0.4220 -0.1615
  132OSM   C11S14224   5.970   1.572   7.469 -0.1837  0.2589  0.7764
  132OSM   H11S14225   5.970   1.683   7.467 -0.1128  0.2564  0.6210
  132OSM   H11T14226   6.074   1.538   7.488  0.0444 -0.1222 -0.9502
  132OSM   C12S14227   5.893   1.512   7.588  0.2665 -0.4484 -0.3370
  132OSM   H12S14228   5.883   1.402   7.575 -1.0480 -0.5594  1.3430
  132OSM   H12T14229   5.787   1.545   7.586  1.2115  3.0630 -3.3759
  132OSM   C13S14230   5.965   1.545   7.715  0.5654 -0.7806 -0.7548
  132OSM   H13S14231   5.935   1.650   7.733 -0.2990 -1.2285  0.5212
  132OSM   H13T14232   6.076   1.540   7.718  0.8212  2.6943  2.7514
  132OSM   C14S14233   5.909   1.474   7.837  0.2002  0.4327  0.3734
  132OSM   H14S14234   5.916   1.363   7.828  2.6424  0.5834 -0.2950
  132OSM   H14T14235   5.800   1.498   7.843 -0.2933 -1.2988 -0.9847
  132OSM   C15S14236   5.979   1.514   7.970 -0.0501 -0.1030  0.0403
  132OSM   H15S14237   5.973   1.624   7.985  1.4369  0.3393 -2.1224
  132OSM   H15T14238   6.087   1.486   7.964  0.2129  0.2720  2.1274
  132OSM   C16S14239   5.914   1.438   8.086  0.1317 -0.5135  0.1531
  132OSM   H16S14240   5.936   1.329   8.081  0.6566 -0.3650 -1.7368
  132OSM   H16T14241   5.806   1.461   8.089 -0.1966 -1.9701  0.3145
  132OSM   C17S14242   5.968   1.485   8.222 -0.0393 -0.0647  0.3057
  132OSM   H17S14243   5.950   1.594   8.226  1.6360  0.2281  0.8216
  132OSM   H17T14244   6.079   1.477   8.231  0.2386  1.5133 -1.1676
  132OSM   C18S14245   5.895   1.423   8.345 -0.8114 -0.0722  0.3084
  132OSM   H18S14246   5.786   1.417   8.327 -0.5503 -2.0070 -0.9300
  132OSM   H18T14247   5.915   1.481   8.437 -0.2463 -2.3334  1.6874
  132OSM   H18U14248   5.937   1.322   8.363  0.4327 -0.3357 -3.1717
  132OSM    C1F14249   6.370   1.631   6.779  0.6950 -0.2481 -0.2230
  132OSM     OF14250   6.430   1.735   6.758 -0.4942  0.2496  0.3335
  132OSM    C2F14251   6.408   1.539   6.890 -0.1219 -0.5955  0.7205
  132OSM    H2F14252   6.433   1.444   6.837  1.4591  0.0486  0.2605
  132OSM    H2G14253   6.318   1.527   6.955 -0.5290 -0.3919  0.2078
  132OSM    C3F14254   6.515   1.596   6.975 -0.4948  0.3079  0.0624
  132OSM    H3F14255   6.482   1.692   7.020  0.7365 -0.2227  2.2556
  132OSM    H3G14256   6.611   1.614   6.921 -0.5943 -1.0867 -0.6510
  132OSM    C4F14257   6.541   1.496   7.089  0.0533  0.3152  1.1037
  132OSM    H4F14258   6.641   1.517   7.132 -0.2803 -0.8942  2.5541
  132OSM    H4G14259   6.540   1.391   7.052 -0.8270 -0.0232  2.0653
  132OSM    C5F14260   6.441   1.491   7.205 -0.0880 -0.0689 -0.0797
  132OSM    H5F14261   6.346   1.438   7.183 -0.1977 -0.3658  1.0652
  132OSM    H5G14262   6.406   1.594   7.231 -0.8846 -0.2440 -0.4294
  132OSM    C6F14263   6.505   1.426   7.325  0.3154  0.9307 -0.9719
  132OSM    H6F14264   6.605   1.472   7.338  0.4452 -0.0487  2.3376
  132OSM    H6G14265   6.510   1.318   7.299  0.8318  0.5577  0.5775
  132OSM    C7F14266   6.416   1.447   7.450  0.0061  0.4496  0.2015
  132OSM    H7F14267   6.321   1.403   7.414 -0.3007  2.4068 -1.6000
  132OSM    H7G14268   6.397   1.557   7.454  1.1577  0.6611  0.3725
  132OSM    C8F14269   6.473   1.406   7.585 -0.5486  0.0433 -0.0068
  132OSM    H8F14270   6.578   1.442   7.587  0.9557 -3.8398  0.6126
  132OSM    H8G14271   6.490   1.296   7.581  0.0828  0.1044  0.7555
  132OSM    C9F14272   6.392   1.455   7.707  0.7451 -0.3078 -0.4394
  132OSM    H9F14273   6.289   1.418   7.700  0.8291 -0.7110  0.2823
  132OSM   C10F14274   6.425   1.526   7.820  0.4529  0.6231  0.1950
  132OSM   H10F14275   6.346   1.544   7.894  0.5466 -0.0264  0.4631
  132OSM   C11F14276   6.560   1.585   7.862 -0.0840  0.7920 -0.5593
  132OSM   H11F14277   6.562   1.695   7.842  0.9070  1.7248  3.6856
  132OSM   H11G14278   6.642   1.535   7.805  0.2056 -1.0089  1.3277
  132OSM   C12F14279   6.587   1.550   8.007  0.2237  0.1660 -0.8341
  132OSM   H12F14280   6.697   1.560   8.014  0.4070 -0.9317 -1.9334
  132OSM   H12G14281   6.553   1.450   8.043 -1.0453  1.2680  1.2490
  132OSM   C13F14282   6.521   1.645   8.102  0.3609 -0.4474  0.2504
  132OSM   H13F14283   6.412   1.632   8.089  0.0924  2.1199 -0.6775
  132OSM   H13G14284   6.539   1.750   8.069 -3.2472  0.1090 -0.3179
  132OSM   C14F14285   6.546   1.625   8.252 -0.2050 -0.1442  0.7013
  132OSM   H14F14286   6.522   1.720   8.304  0.3355  0.5060 -0.1995
  132OSM   H14G14287   6.651   1.595   8.275  0.8953  1.6041 -1.5955
  132OSM   C15F14288   6.453   1.516   8.307  0.4772  0.3068 -0.4592
  132OSM   H15F14289   6.491   1.420   8.267  0.6870 -0.4504  1.4489
  132OSM   H15G14290   6.347   1.533   8.277  0.2212 -2.0074 -1.0396
  132OSM   C16F14291   6.451   1.526   8.463  0.2921  0.4051 -0.9431
  132OSM   H16F14292   6.452   1.633   8.493  4.8332 -0.2017  2.0100
  132OSM   H16G14293   6.548   1.501   8.509  0.6736  2.4711 -0.4975
  132OSM   C17F14294   6.361   1.432   8.538  1.0667 -0.1810 -0.2304
  132OSM   H17F14295   6.377   1.327   8.504  0.0571 -0.7587  0.9756
  132OSM   H17G14296   6.257   1.455   8.506  0.9635  0.6065  0.6072
  132OSM   C18F14297   6.372   1.424   8.696  0.3184 -0.1350  0.7560
  132OSM   H18F14298   6.477   1.392   8.712 -0.2940 -2.9548 -0.2754
  132OSM   H18G14299   6.305   1.348   8.741  2.0759 -1.0660  1.9050
  132OSM   H18H14300   6.353   1.519   8.750 -0.9254 -0.7176  1.3753
  133SAPE     N14301   0.007   5.729  10.805  0.0206  0.1472  0.5189
  133SAPE   HN114302   0.105   5.760  10.820  0.5623 -1.5233  0.6041
  133SAPE   HN214303  -0.058   5.805  10.835  0.3131  0.5290  0.1849
  133SAPE   HN314304  -0.007   5.643  10.861 -2.9509 -1.4631 -2.3616
  133SAPE   C1214305  -0.025   5.705  10.661 -0.3650  0.6495 -0.2275
  133SAPE  H12A14306   0.061   5.687  10.594 -0.6540 -1.0042 -0.2193
  133SAPE  H12B14307  -0.065   5.797  10.615  1.2407  0.2967 -2.4995
  133SAPE   C1114308  -0.125   5.585  10.634 -0.8184  0.0308  0.5895
  133SAPE  H11A14309  -0.053   5.500  10.631  0.1558  0.7919  1.3893
  133SAPE  H11B14310  -0.166   5.600  10.532  3.4280  0.0864 -1.3089
  133SAPE     P14311  -0.270   5.460  10.811 -0.1490 -0.0024  0.1334
  133SAPE   O1314312  -0.160   5.438  10.909 -0.1087 -0.0540 -0.0946
  133SAPE   O1414313  -0.404   5.466  10.867  0.1178  0.1271  0.0562
  133SAPE   O1214314  -0.233   5.593  10.727 -0.6041 -0.3620 -0.5932
  133SAPE   O1114315  -0.263   5.355  10.695 -0.5125 -0.1717 -0.2659
  133SAPE    C114316  -0.263   5.215  10.720  0.7537 -0.2034 -0.4537
  133SAPE    HA14317  -0.253   5.182  10.826 -2.8819  0.1565  0.1351
  133SAPE    HB14318  -0.368   5.186  10.701 -0.7679  2.8351  2.3129
  133SAPE    C214319  -0.180   5.139  10.615 -0.2540  0.4429  0.1341
  133SAPE    HS14320  -0.083   5.192  10.627 -0.0184 -0.0109  0.2190
  133SAPE   O2114321  -0.237   5.160  10.484 -0.2062  0.5817  0.2780
  133SAPE   C2114322  -0.155   5.197  10.396  0.4633  0.2979 -0.5386
  133SAPE   O2214323  -0.043   5.246  10.412 -0.0537  0.5197 -0.4645
  133SAPE   C2214324  -0.217   5.171  10.258  0.3178 -0.2938 -0.2549
  133SAPE   H2R14325  -0.291   5.088  10.267  2.0773 -1.6772  4.2149
  133SAPE   H2S14326  -0.273   5.265  10.240 -1.1929 -1.0056  0.5381
  133SAPE    C314327  -0.150   4.988  10.649 -0.1925 -0.1871 -0.4378
  133SAPE    HX14328  -0.252   4.945  10.661 -0.2367 -0.5446 -1.9188
  133SAPE    HY14329  -0.083   4.983  10.737  0.2379  0.7417 -0.6988
  133SAPE   O3114330  -0.108   4.912  10.532  0.1411  0.3999 -0.2078
  133SAPE   C3114331   0.017   4.884  10.535 -0.5281  0.6215 -0.5782
  133SAPE   O3214332   0.098   4.894  10.629  0.1593 -0.0345 -0.0576
  133SAPE   C3214333   0.047   4.819  10.399 -0.6778  0.1972 -0.1875
  133SAPE   H2X14334   0.005   4.878  10.314 -1.8138  2.0147  1.5520
  133SAPE   H2Y14335  -0.016   4.728  10.401  0.1030 -0.3848 -1.1937
  133SAPE   C2314336  -0.111   5.142  10.157 -0.2289  0.2146  0.0157
  133SAPE   H3R14337  -0.051   5.051  10.178  0.0599  0.2012 -0.8366
  133SAPE   H3S14338  -0.026   5.213  10.152  0.7726 -0.8696  1.0032
  133SAPE   C2414339  -0.176   5.126  10.017 -0.3756 -0.5832 -0.3803
  133SAPE   H4R14340  -0.219   5.225   9.988  0.9957 -0.6792 -3.0939
  133SAPE   H4S14341  -0.264   5.060  10.019 -0.9690  0.1826  2.0671
  133SAPE   C2514342  -0.075   5.074   9.916 -0.4568 -0.3878 -0.0137
  133SAPE   H5R14343   0.007   5.023   9.968  0.7728  0.5932 -0.9018
  133SAPE   C2614344  -0.058   5.111   9.785 -0.0400 -0.0807  0.3061
  133SAPE   H6R14345   0.033   5.081   9.732  0.8960 -0.3092  1.9579
  133SAPE   C2714346  -0.147   5.207   9.713 -0.6237 -0.0160  0.4503
  133SAPE   H7R14347  -0.190   5.288   9.775 -0.4361  0.6444 -0.2810
  133SAPE   H7S14348  -0.236   5.152   9.675  0.0276 -0.5903 -0.2742
  133SAPE   C2814349  -0.083   5.273   9.591 -0.5558  0.6362 -0.0165
  133SAPE   H8R14350  -0.029   5.363   9.624  0.4362 -0.0221  0.1736
  133SAPE   C2914351  -0.092   5.234   9.467  0.2573  0.2708 -0.4272
  133SAPE   H9R14352  -0.069   5.306   9.388 -0.4478 -0.0868 -0.9742
  133SAPE  C21014353  -0.161   5.101   9.426 -0.3512  0.2459  0.0521
  133SAPE  H10R14354  -0.268   5.107   9.454  0.2146  1.0805  2.2328
  133SAPE  H10S14355  -0.116   5.016   9.482  2.7126  0.9351 -1.1811
  133SAPE  C21114356  -0.165   5.063   9.278  0.3702  0.3370  0.1964
  133SAPE  H11R14357  -0.259   5.084   9.225 -0.4429 -5.0390 -1.1399
  133SAPE  C21214358  -0.072   4.992   9.214  0.7061 -0.0909  0.4866
  133SAPE  H12R14359  -0.086   4.971   9.107  3.5012 -1.2932  0.2691
  133SAPE  C21314360   0.055   4.926   9.270  1.0239  0.2606  0.3996
  133SAPE  H13R14361   0.073   4.971   9.370 -0.5435  3.2886 -0.5289
  133SAPE  H13S14362   0.143   4.958   9.211  0.7064 -0.9124 -0.7312
  133SAPE  C21414363   0.049   4.771   9.266 -0.1628  0.6970 -1.2505
  133SAPE  H14R14364  -0.009   4.724   9.186 -2.4174  1.8690 -0.3868
  133SAPE  C21514365   0.104   4.698   9.368  0.0482  0.1505  0.5203
  133SAPE  H15R14366   0.096   4.588   9.368  1.2826  0.0448 -0.4863
  133SAPE  C21614367   0.187   4.740   9.488  0.1537 -0.1590  0.1293
  133SAPE  H16R14368   0.255   4.824   9.463 -0.8742  0.3269 -1.1531
  133SAPE  H16S14369   0.248   4.657   9.530  0.8918 -0.5789 -1.6696
  133SAPE  C21714370   0.105   4.797   9.604 -0.1787  0.6131  0.1302
  133SAPE  H17R14371   0.045   4.881   9.561  0.6145  0.4555 -1.3566
  133SAPE  H17S14372   0.178   4.855   9.664 -0.7945  2.5254 -0.8691
  133SAPE  C21814373   0.018   4.695   9.667  1.2563 -0.5884 -0.2071
  133SAPE  H18R14374  -0.076   4.683   9.609  0.2934  3.4526  0.2092
  133SAPE  H18S14375  -0.023   4.742   9.758  1.3027 -3.0672  1.1935
  133SAPE  C21914376   0.062   4.549   9.702  0.6681  0.1367  0.3104
  133SAPE  H19R14377   0.173   4.548   9.696  0.7019 -1.0212  0.8318
  133SAPE  H19S14378   0.034   4.489   9.612  0.8426  0.3411  0.1209
  133SAPE  C22014379   0.007   4.498   9.834  0.5096 -0.0509  0.1261
  133SAPE  H20R14380   0.062   4.539   9.921  0.9374 -0.9152  0.2759
  133SAPE  H20S14381  -0.010   4.389   9.843  2.9081 -0.4036  1.1820
  133SAPE  H20T14382  -0.086   4.559   9.839  0.9541  0.6999 -0.4718
  133SAPE   C3314383   0.202   4.795  10.378  0.2206 -0.0347 -0.2890
  133SAPE   H3X14384   0.236   4.742  10.470 -3.2202 -1.0147  0.5815
  133SAPE   H3Y14385   0.258   4.891  10.373 -0.1816  0.2019 -0.2536
  133SAPE   C3414386   0.236   4.720  10.261 -0.4242 -0.6070  0.4712
  133SAPE   H4X14387   0.178   4.627  10.241 -1.5957  0.4310 -1.2249
  133SAPE   H4Y14388   0.343   4.689  10.265  0.2990  1.6117 -0.0482
  133SAPE   C3514389   0.239   4.796  10.122 -1.2952 -0.0458 -0.3022
  133SAPE   H5X14390   0.274   4.897  10.150 -1.2394 -0.3840  0.8898
  133SAPE   H5Y14391   0.134   4.797  10.086 -1.5253 -3.8231 -0.1524
  133SAPE   C3614392   0.328   4.735  10.014 -0.0201  0.4541 -0.0273
  133SAPE   H6X14393   0.311   4.629   9.985 -0.8735  1.1262 -2.1943
  133SAPE   H6Y14394   0.435   4.746  10.044  0.1227  1.3177 -0.8048
  133SAPE   C3714395   0.323   4.798   9.878 -0.6437 -0.0876  0.4028
  133SAPE   H7X14396   0.324   4.908   9.896  0.4291 -0.2344  1.3416
  133SAPE   H7Y14397   0.227   4.764   9.833  0.6173 -0.3949 -2.1902
  133SAPE   C3814398   0.423   4.748   9.769  0.1412 -0.3537  0.3775
  133SAPE   H8X14399   0.414   4.795   9.669  1.2834  0.3634  0.5814
  133SAPE   H8Y14400   0.387   4.646   9.745 -3.0582  0.0713  2.7381
  133SAPE   C3914401   0.568   4.759   9.814 -0.2839 -0.1257  0.4515
  133SAPE   H9X14402   0.597   4.695   9.900 -0.2298 -0.4535  0.1905
  133SAPE   H9Y14403   0.573   4.861   9.857 -3.6424  0.2063  0.3563
  133SAPE  C31014404   0.661   4.732   9.698  0.0366  0.0669 -0.0542
  133SAPE  H10X14405   0.625   4.794   9.613  1.7040  1.3095  0.0930
  133SAPE  H10Y14406   0.637   4.628   9.669 -0.4781  0.2884 -0.4366
  133SAPE  C31114407   0.812   4.732   9.729 -0.1013 -0.3370  0.3181
  133SAPE  H11X14408   0.828   4.838   9.758  0.6487 -0.2259 -0.4749
  133SAPE  H11Y14409   0.868   4.716   9.635  1.4608  1.9158  0.7953
  133SAPE  C31214410   0.854   4.635   9.839 -0.7152  0.0673  0.0924
  133SAPE  H12X14411   0.798   4.658   9.932  0.3533  2.7011  0.1520
  133SAPE  H12Y14412   0.964   4.631   9.855 -0.7440 -1.5008  0.0976
  133SAPE  C31314413   0.827   4.489   9.797 -0.5370 -0.6366 -0.5830
  133SAPE  H13X14414   0.871   4.475   9.695 -1.7296  0.4503 -1.2765
  133SAPE  H13Y14415   0.718   4.473   9.785 -0.7689  1.1299 -1.0164
  133SAPE  C31414416   0.873   4.394   9.908 -0.3026 -0.5729 -0.4014
  133SAPE  H14X14417   0.971   4.412   9.958 -0.2655 -1.9226  0.0656
  133SAPE  H14Y14418   0.884   4.290   9.870  0.5546 -1.4321  2.0157
  133SAPE  C31514419   0.778   4.394  10.027 -0.0283  1.1699 -0.3027
  133SAPE  H15X14420   0.688   4.334  10.002 -0.9055  2.0040  0.7627
  133SAPE  H15Y14421   0.721   4.489  10.031 -1.2040  0.5389 -1.3691
  133SAPE  C31614422   0.845   4.363  10.159 -0.7181  0.6437  0.8388
  133SAPE  H16X14423   0.911   4.451  10.177 -0.1912  0.5493 -0.5401
  133SAPE  H16Y14424   0.906   4.272  10.144 -0.4324  0.5676  2.2647
  133SAPE  C31714425   0.747   4.346  10.271  0.6670 -0.2868 -0.0565
  133SAPE  H17X14426   0.691   4.251  10.262  0.1192  0.0425 -0.1220
  133SAPE  H17Y14427   0.678   4.433  10.266 -0.7147 -1.4118 -1.0889
  133SAPE  C31814428   0.817   4.337  10.407  0.3537 -0.2060  0.2018
  133SAPE  H18X14429   0.742   4.301  10.481 -1.8007  1.7812 -0.8849
  133SAPE  H18Y14430   0.838   4.440  10.442 -1.6897  0.3290 -0.0063
  133SAPE  H18Z14431   0.912   4.279  10.401 -0.3551 -1.3028 -1.1797
  134SAPE     N14432   4.372   4.172  10.851 -0.4990  0.8288  0.3941
  134SAPE   HN114433   4.278   4.132  10.835  0.0492 -1.0700  1.6278
  134SAPE   HN214434   4.430   4.109  10.911  1.3417  1.9118 -0.1575
  134SAPE   HN314435   4.368   4.264  10.900 -2.0581  0.3784  1.1808
  134SAPE   C1214436   4.444   4.183  10.715 -0.2866  0.2592 -0.1511
  134SAPE  H12A14437   4.435   4.087  10.660 -0.1166  0.7356 -1.0169
  134SAPE  H12B14438   4.553   4.198  10.729  0.0555 -0.8130 -1.4386
  134SAPE   C1114439   4.389   4.292  10.621 -0.2558 -0.8147 -0.4889
  134SAPE  H11A14440   4.283   4.265  10.600 -0.1950  1.0446 -3.9003
  134SAPE  H11B14441   4.434   4.286  10.520 -0.0029 -1.4944 -0.3395
  134SAPE     P14442   4.512   4.509  10.679 -0.1397  0.0375  0.2694
  134SAPE   O1314443   4.470   4.644  10.708 -0.0233 -0.0222  0.4942
  134SAPE   O1414444   4.613   4.453  10.774  0.1310 -0.8266 -0.1034
  134SAPE   O1214445   4.383   4.423  10.683 -0.1142 -0.0312 -0.0924
  134SAPE   O1114446   4.552   4.503  10.528  0.1133 -0.7383 -0.1676
  134SAPE    C114447   4.459   4.544  10.428 -0.5611  0.2879 -0.4839
  134SAPE    HA14448   4.362   4.490  10.429 -0.6199  0.2032 -3.0857
  134SAPE    HB14449   4.433   4.652  10.439 -0.9989  0.3653 -1.9992
  134SAPE    C214450   4.530   4.520  10.291  0.2024  0.7671 -0.5432
  134SAPE    HS14451   4.546   4.410  10.290 -2.4277  0.0891  4.0276
  134SAPE   O2114452   4.663   4.574  10.299  0.7639 -0.0165  0.2281
  134SAPE   C2114453   4.756   4.516  10.221  0.6606 -0.5599  0.1551
  134SAPE   O2214454   4.747   4.402  10.180 -0.3592 -0.3758  0.5956
  134SAPE   C2214455   4.883   4.605  10.223 -0.0082  0.1342 -0.2756
  134SAPE   H2R14456   4.857   4.705  10.265  0.0707 -0.3861  1.0807
  134SAPE   H2S14457   4.949   4.576  10.308 -2.3917 -3.0743  0.7136
  134SAPE    C314458   4.445   4.561  10.169  0.0670  0.1830 -0.6733
  134SAPE    HX14459   4.443   4.673  10.172  2.2044  0.2378  1.0581
  134SAPE    HY14460   4.338   4.537  10.183 -0.0086  0.5043 -0.6769
  134SAPE   O3114461   4.512   4.526  10.046  0.5222  0.0181  0.4611
  134SAPE   C3114462   4.472   4.414   9.994 -0.3839  0.2512 -0.2595
  134SAPE   O3214463   4.390   4.339  10.045 -0.8397  0.1149 -0.0744
  134SAPE   C3214464   4.566   4.376   9.877  0.8490 -0.0035  0.1326
  134SAPE   H2X14465   4.670   4.379   9.916  1.6740 -0.6751 -1.9131
  134SAPE   H2Y14466   4.562   4.464   9.810  1.6666 -0.9736 -1.2347
  134SAPE   C2314467   4.972   4.607  10.099 -0.5231  0.4960  0.3740
  134SAPE   H3R14468   4.975   4.501  10.066 -0.3441 -0.3474  2.9275
  134SAPE   H3S14469   5.078   4.618  10.129 -0.2962  0.5149 -0.4158
  134SAPE   C2414470   4.939   4.700   9.982 -0.2192 -0.0900  0.1693
  134SAPE   H4R14471   5.024   4.686   9.912 -0.3914 -2.1981  0.3224
  134SAPE   H4S14472   4.954   4.800  10.029 -0.0211 -0.9155  1.9593
  134SAPE   C2514473   4.804   4.699   9.919  0.3754  0.0617  0.0731
  134SAPE   H5R14474   4.725   4.699   9.995  1.1933  0.1647  0.9458
  134SAPE   C2614475   4.768   4.696   9.787 -0.3817  0.0116 -0.2033
  134SAPE   H6R14476   4.661   4.710   9.762 -1.1338 -1.0571  2.0876
  134SAPE   C2714477   4.874   4.712   9.673  0.4725 -0.1260 -0.7573
  134SAPE   H7R14478   4.970   4.741   9.720  1.2904 -2.8793 -0.5465
  134SAPE   H7S14479   4.834   4.793   9.608 -1.1095  1.5569  2.0907
  134SAPE   C2814480   4.875   4.572   9.616 -0.6502 -0.2919 -0.1782
  134SAPE   H8R14481   4.856   4.484   9.679  1.4210 -0.8461 -0.2339
  134SAPE   C2914482   4.894   4.536   9.485  0.1914  0.1213 -0.2285
  134SAPE   H9R14483   4.891   4.428   9.469 -0.4126  0.1986 -0.6942
  134SAPE  C21014484   4.933   4.639   9.377  0.0038  0.1087 -0.0129
  134SAPE  H10R14485   5.043   4.649   9.368 -0.0209 -0.7222 -1.4326
  134SAPE  H10S14486   4.897   4.742   9.402  3.2632  0.7775  2.7515
  134SAPE  C21114487   4.887   4.605   9.234 -0.1059  0.2843 -0.0576
  134SAPE  H11R14488   4.786   4.643   9.217 -0.5893 -0.5907  0.7544
  134SAPE  C21214489   4.954   4.536   9.143  0.1689  0.1472 -0.1876
  134SAPE  H12R14490   4.895   4.509   9.054  0.9092 -0.9114 -0.3838
  134SAPE  C21314491   5.086   4.476   9.163 -0.5680  0.4109 -0.2848
  134SAPE  H13R14492   5.107   4.467   9.272  2.0220 -1.1787 -0.8124
  134SAPE  H13S14493   5.166   4.546   9.130 -0.4185  0.1988 -0.3775
  134SAPE  C21414494   5.098   4.340   9.103 -0.1915  0.7105 -0.6340
  134SAPE  H14R14495   5.083   4.256   9.172 -0.4927 -0.0721 -1.6192
  134SAPE  C21514496   5.134   4.319   8.974 -0.5491  0.0706  0.6072
  134SAPE  H15R14497   5.119   4.221   8.926 -0.7224  0.8208 -0.9349
  134SAPE  C21614498   5.151   4.427   8.863  0.2138 -0.1712  0.0188
  134SAPE  H16R14499   5.256   4.440   8.829 -0.1727  0.4033 -0.9678
  134SAPE  H16S14500   5.120   4.526   8.901 -1.9189 -0.8035  0.0613
  134SAPE  C21714501   5.062   4.409   8.738  0.4352 -0.1061  0.4180
  134SAPE  H17R14502   5.109   4.340   8.664  1.9438  1.4622 -0.1398
  134SAPE  H17S14503   5.066   4.508   8.688  0.2323  1.0285  2.5584
  134SAPE  C21814504   4.919   4.372   8.769 -0.2784  0.0344 -0.6554
  134SAPE  H18R14505   4.872   4.445   8.838  0.5839  0.6154 -0.6668
  134SAPE  H18S14506   4.919   4.271   8.816  1.8141 -1.8578 -4.2700
  134SAPE  C21914507   4.828   4.345   8.644  0.4151 -0.0002 -0.5517
  134SAPE  H19R14508   4.736   4.294   8.681 -0.7984  2.4046 -0.0298
  134SAPE  H19S14509   4.894   4.276   8.588  0.9360 -0.2390  0.3328
  134SAPE  C22014510   4.812   4.471   8.559 -0.0794  0.2006  0.7867
  134SAPE  H20R14511   4.753   4.552   8.607  1.4867  0.1499  2.9608
  134SAPE  H20S14512   4.756   4.448   8.466  0.0921  1.2448  0.4131
  134SAPE  H20T14513   4.910   4.517   8.533 -0.1502  0.7319  1.4358
  134SAPE   C3314514   4.527   4.249   9.790 -0.5327 -0.0720 -0.3813
  134SAPE   H3X14515   4.495   4.173   9.865  1.1822 -0.5864 -0.1398
  134SAPE   H3Y14516   4.627   4.222   9.750 -0.1686 -0.5417  0.7897
  134SAPE   C3414517   4.439   4.259   9.667  0.0687  0.1213 -0.0842
  134SAPE   H4X14518   4.338   4.280   9.708 -0.4406 -0.6611 -0.9042
  134SAPE   H4Y14519   4.417   4.166   9.612 -1.5052 -0.7649  1.8959
  134SAPE   C3514520   4.481   4.363   9.563  0.3761 -0.0835  0.6234
  134SAPE   H5X14521   4.591   4.351   9.550  0.3465 -0.1996  0.4745
  134SAPE   H5Y14522   4.469   4.464   9.606 -0.4271  1.6389 -3.2477
  134SAPE   C3614523   4.413   4.368   9.427 -0.6875  0.5999 -0.0906
  134SAPE   H6X14524   4.307   4.339   9.437 -1.0301  1.7622 -0.1167
  134SAPE   H6Y14525   4.465   4.295   9.362 -1.1912  0.3949 -0.2666
  134SAPE   C3714526   4.408   4.506   9.371  0.2633 -0.4658  0.2342
  134SAPE   H7X14527   4.509   4.552   9.366  0.8998 -1.4410  2.8410
  134SAPE   H7Y14528   4.334   4.561   9.433  0.6376 -0.8463  1.0214
  134SAPE   C3814529   4.339   4.502   9.234  0.0266 -0.4357  0.0076
  134SAPE   H8X14530   4.311   4.607   9.215  0.1470 -0.2245  0.9222
  134SAPE   H8Y14531   4.243   4.446   9.239 -0.8336  0.9533 -0.4405
  134SAPE   C3914532   4.443   4.466   9.128  0.2926  0.4304 -0.0307
  134SAPE   H9X14533   4.463   4.359   9.150  1.0794  0.9554  2.0702
  134SAPE   H9Y14534   4.534   4.528   9.141 -0.2592  1.4448 -0.8238
  134SAPE  C31014535   4.386   4.462   8.985  0.0347 -0.7843 -0.3586
  134SAPE  H10X14536   4.373   4.563   8.940 -0.1339  0.9578  3.2310
  134SAPE  H10Y14537   4.285   4.416   8.992 -0.7888  1.1508  1.6487
  134SAPE  C31114538   4.475   4.373   8.900 -0.2874  0.2298  0.0820
  134SAPE  H11X14539   4.497   4.275   8.947  0.1583  0.1446 -0.2907
  134SAPE  H11Y14540   4.578   4.414   8.888 -0.4664  0.8414  0.6256
  134SAPE  C31214541   4.412   4.352   8.755 -0.1830  0.0088 -0.2525
  134SAPE  H12X14542   4.313   4.302   8.759 -0.5356  0.7101 -0.1428
  134SAPE  H12Y14543   4.480   4.284   8.699  1.0616  1.3501 -0.4547
  134SAPE  C31314544   4.404   4.487   8.669  1.2596  0.3448 -0.7963
  134SAPE  H13X14545   4.498   4.537   8.701  1.8104 -1.3484  0.3177
  134SAPE  H13Y14546   4.325   4.553   8.709  0.5297 -0.9361 -0.0894
  134SAPE  C31414547   4.414   4.463   8.517 -1.1732 -0.2139  0.9777
  134SAPE  H14X14548   4.322   4.413   8.479 -1.1047 -0.6803  1.3998
  134SAPE  H14Y14549   4.505   4.399   8.505 -0.2525  1.3707 -0.8936
  134SAPE  C31514550   4.435   4.599   8.440 -0.4634 -0.4547  0.0676
  134SAPE  H15X14551   4.539   4.631   8.463 -0.2312 -1.2775  0.2227
  134SAPE  H15Y14552   4.366   4.677   8.478  0.4206  0.6054 -0.4486
  134SAPE  C31614553   4.420   4.590   8.287  0.0133 -0.6360  0.0436
  134SAPE  H16X14554   4.314   4.563   8.271 -0.4487 -0.3831  2.3699
  134SAPE  H16Y14555   4.486   4.507   8.253 -0.1585 -0.9278  0.4157
  134SAPE  C31714556   4.467   4.713   8.201  0.0969 -0.6508 -0.5200
  134SAPE  H17X14557   4.409   4.804   8.226  2.5479  0.7766  0.3577
  134SAPE  H17Y14558   4.440   4.689   8.096  0.7505  0.8231 -1.0647
  134SAPE  C31814559   4.615   4.747   8.208 -0.0060 -0.1809  0.1983
  134SAPE  H18X14560   4.654   4.790   8.303  0.8738  2.0900 -1.0871
  134SAPE  H18Y14561   4.644   4.819   8.128 -2.3307  0.0320 -0.5246
  134SAPE  H18Z14562   4.676   4.658   8.181  1.4796  0.4186  1.4275
  135SAPE     N14563   2.768   3.003  10.710  0.4498 -0.2900 -0.6368
  135SAPE   HN114564   2.690   2.945  10.747  0.7706  0.0779  0.6836
  135SAPE   HN214565   2.851   2.955  10.753 -1.3257 -3.3612 -0.3329
  135SAPE   HN314566   2.759   3.100  10.746 -2.5510 -0.4569 -0.7583
  135SAPE   C1214567   2.755   2.985  10.562  0.3313 -0.4396 -0.4685
  135SAPE  H12A14568   2.680   3.062  10.535  0.5077  0.0063  0.2860
  135SAPE  H12B14569   2.725   2.882  10.531  0.5801 -1.2898  1.8820
  135SAPE   C1114570   2.889   3.014  10.495 -0.3142 -0.3031 -0.2887
  135SAPE  H11A14571   2.862   2.985  10.391 -2.0466  0.5301 -0.1042
  135SAPE  H11B14572   2.968   2.943  10.528  0.3189 -0.4531 -2.0158
  135SAPE     P14573   3.060   3.213  10.552  0.2589  0.2272 -0.2076
  135SAPE   O1314574   3.072   3.357  10.522  0.2464  0.4256 -0.1852
  135SAPE   O1414575   3.090   3.187  10.695  0.1304  0.5870  0.3908
  135SAPE   O1214576   2.921   3.153  10.517  0.4318 -0.1877  0.0590
  135SAPE   O1114577   3.166   3.130  10.468  0.7885 -0.3229  0.2831
  135SAPE    C114578   3.164   3.137  10.326 -0.0292 -0.1234  0.0045
  135SAPE    HA14579   3.190   3.038  10.283  1.7507  0.8807 -1.3747
  135SAPE    HB14580   3.065   3.160  10.280  0.7171  3.9584  0.0521
  135SAPE    C214581   3.270   3.235  10.266  0.0899  0.6853  0.5789
  135SAPE    HS14582   3.229   3.334  10.295  0.7498  1.7841 -2.0236
  135SAPE   O2114583   3.284   3.206  10.123  0.0390 -0.0129 -0.3902
  135SAPE   C2114584   3.316   3.314  10.050  0.7532  0.4248  0.7428
  135SAPE   O2214585   3.312   3.428  10.082  0.1547 -0.6626  0.3195
  135SAPE   C2214586   3.361   3.260   9.910  0.6385 -0.5630  0.8199
  135SAPE   H2R14587   3.466   3.225   9.918  0.8498 -0.8226 -2.0868
  135SAPE   H2S14588   3.302   3.169   9.889  0.2538  0.0600 -0.9854
  135SAPE    C314589   3.405   3.217  10.335 -0.3794 -0.2661  0.0119
  135SAPE    HX14590   3.431   3.109  10.333 -0.0647 -0.2049  0.5280
  135SAPE    HY14591   3.380   3.243  10.440 -1.8768 -1.0046 -0.1382
  135SAPE   O3114592   3.501   3.307  10.273  0.3703  0.5407  0.0000
  135SAPE   C3114593   3.523   3.424  10.325  0.5212 -0.7821 -0.1678
  135SAPE   O3214594   3.444   3.489  10.390 -0.5832 -0.2833  0.1367
  135SAPE   C3214595   3.659   3.485  10.284  0.2420  0.5595  0.1766
  135SAPE   H2X14596   3.726   3.449  10.365 -1.2897 -0.2633  1.1023
  135SAPE   H2Y14597   3.649   3.596  10.288 -1.6425  0.4290  0.0121
  135SAPE   C2314598   3.348   3.360   9.793 -0.3256  0.4629  0.4326
  135SAPE   H3R14599   3.371   3.459   9.838 -1.6112  0.2974  1.5274
  135SAPE   H3S14600   3.238   3.371   9.785 -0.6427 -2.0557  0.2806
  135SAPE   C2414601   3.423   3.331   9.660 -0.6531  0.2667  0.3231
  135SAPE   H4R14602   3.531   3.331   9.686 -0.6072  3.3891  0.4559
  135SAPE   H4S14603   3.405   3.414   9.589  2.6628 -0.7990 -1.9642
  135SAPE   C2514604   3.409   3.201   9.592 -0.4900  0.1229 -0.1281
  135SAPE   H5R14605   3.408   3.111   9.655  0.4781 -0.1276 -0.4512
  135SAPE   C2614606   3.399   3.181   9.452  0.2371  0.8881  0.4238
  135SAPE   H6R14607   3.384   3.078   9.416 -1.9695  1.3380 -0.0642
  135SAPE   C2714608   3.404   3.295   9.344 -0.3091 -0.3907  0.0980
  135SAPE   H7R14609   3.398   3.395   9.392  1.5285  0.2576 -0.9120
  135SAPE   H7S14610   3.309   3.313   9.289 -0.4528 -1.8240 -0.1554
  135SAPE   C2814611   3.522   3.284   9.241 -0.3182  0.4404 -0.7992
  135SAPE   H8R14612   3.614   3.257   9.294 -0.6125  0.6967 -0.1468
  135SAPE   C2914613   3.512   3.311   9.112  0.6099 -0.6420  0.0109
  135SAPE   H9R14614   3.604   3.298   9.053  0.6508  0.0241 -0.0786
  135SAPE  C21014615   3.394   3.358   9.023 -0.1538  0.3257 -0.7607
  135SAPE  H10R14616   3.299   3.342   9.079  0.0402  0.5838 -0.3545
  135SAPE  H10S14617   3.387   3.281   8.943 -0.8924 -0.0471 -0.3541
  135SAPE  C21114618   3.392   3.500   8.970  0.3775  0.3261  0.1736
  135SAPE  H11R14619   3.341   3.570   9.038 -1.2980 -1.5806  0.9824
  135SAPE  C21214620   3.434   3.541   8.849 -0.2543  0.3918 -0.0402
  135SAPE  H12R14621   3.414   3.643   8.815 -2.1659 -0.3653 -1.3995
  135SAPE  C21314622   3.499   3.449   8.747 -0.1756  0.3565  0.3523
  135SAPE  H13R14623   3.455   3.347   8.757  2.7965 -0.8633  2.2384
  135SAPE  H13S14624   3.604   3.430   8.778  0.7061  1.3441 -1.8028
  135SAPE  C21414625   3.499   3.510   8.610  0.6866  0.5603  0.0924
  135SAPE  H14R14626   3.530   3.616   8.607  0.3441  0.6511 -0.3474
  135SAPE  C21514627   3.454   3.449   8.497  1.0175 -0.3465 -0.3498
  135SAPE  H15R14628   3.455   3.512   8.406  2.5087  1.1770  0.6513
  135SAPE  C21614629   3.397   3.311   8.489 -0.0528 -0.2045  0.2924
  135SAPE  H16R14630   3.412   3.254   8.583 -1.9941 -1.5260 -0.1423
  135SAPE  H16S14631   3.462   3.253   8.420  1.8841  2.0055  0.1218
  135SAPE  C21714632   3.253   3.323   8.444  0.0659  0.2915 -0.4703
  135SAPE  H17R14633   3.216   3.223   8.415  0.0385 -0.3452  1.6230
  135SAPE  H17S14634   3.258   3.386   8.352  2.3686  0.3152 -0.3968
  135SAPE  C21814635   3.150   3.394   8.537 -0.8536  0.1077  0.3845
  135SAPE  H18R14636   3.059   3.394   8.473  0.8557  2.4839 -2.2947
  135SAPE  H18S14637   3.174   3.502   8.552 -0.3872  0.3370 -1.6911
  135SAPE  C21914638   3.112   3.333   8.667  0.0581 -0.0235 -0.7509
  135SAPE  H19R14639   3.049   3.396   8.733  1.9320  0.2443  0.8742
  135SAPE  H19S14640   3.214   3.321   8.710  0.2070 -0.6736 -1.2616
  135SAPE  C22014641   3.067   3.189   8.661  0.6041  0.1345  0.0097
  135SAPE  H20R14642   3.054   3.157   8.767  3.7882 -1.5630  0.0007
  135SAPE  H20S14643   3.148   3.135   8.607  1.6033  2.3749 -0.8713
  135SAPE  H20T14644   2.977   3.160   8.603  0.4945 -0.5518  0.5098
  135SAPE   C3314645   3.722   3.455  10.154 -0.0568 -0.4416 -0.2043
  135SAPE   H3X14646   3.721   3.350  10.119 -0.0573  0.1122 -1.9709
  135SAPE   H3Y14647   3.831   3.477  10.152 -0.1999  0.2413 -1.0167
  135SAPE   C3414648   3.657   3.534  10.037  0.5575 -0.2054  1.0277
  135SAPE   H4X14649   3.656   3.643  10.062 -0.7998  0.5945 -1.9902
  135SAPE   H4Y14650   3.553   3.497  10.025  0.6501 -0.2023  0.1559
  135SAPE   C3514651   3.721   3.505   9.893  0.2500  0.0194  0.1813
  135SAPE   H5X14652   3.719   3.394   9.890 -0.7820  0.0426 -0.5734
  135SAPE   H5Y14653   3.827   3.534   9.904 -0.1634  1.5776  0.2588
  135SAPE   C3614654   3.663   3.572   9.770  0.5713  1.3273 -0.5106
  135SAPE   H6X14655   3.656   3.680   9.794 -1.5778  1.4128 -1.3242
  135SAPE   H6Y14656   3.560   3.530   9.763  1.0731 -0.9702  3.1551
  135SAPE   C3714657   3.745   3.544   9.639 -0.1034 -0.1642 -0.9252
  135SAPE   H7X14658   3.745   3.433   9.630  1.0706 -0.1459 -1.2420
  135SAPE   H7Y14659   3.848   3.580   9.656 -0.3893  0.7574 -1.0577
  135SAPE   C3814660   3.682   3.605   9.517  0.6193 -0.5733  0.2437
  135SAPE   H8X14661   3.681   3.716   9.516 -1.4625 -0.4014  3.6722
  135SAPE   H8Y14662   3.578   3.568   9.515 -1.1262  3.5969  2.1030
  135SAPE   C3914663   3.751   3.559   9.388  0.0533 -0.0012 -0.4271
  135SAPE   H9X14664   3.675   3.571   9.307 -1.9156  0.1834  1.3501
  135SAPE   H9Y14665   3.785   3.454   9.389  1.7177  0.4999  1.1871
  135SAPE  C31014666   3.882   3.636   9.359  0.2671  0.2233 -0.7875
  135SAPE  H10X14667   3.947   3.627   9.449 -0.5606  1.7581  0.0011
  135SAPE  H10Y14668   3.854   3.743   9.345  1.0102  0.4876 -0.3468
  135SAPE  C31114669   3.966   3.573   9.240 -0.1202 -0.0425 -0.2515
  135SAPE  H11X14670   3.971   3.462   9.241 -1.1912 -0.2428 -4.0448
  135SAPE  H11Y14671   4.072   3.607   9.241  0.1688 -0.8914  1.0080
  135SAPE  C31214672   3.893   3.604   9.109 -0.0546 -0.2514  0.6978
  135SAPE  H12X14673   3.866   3.711   9.108  2.6030  0.5208 -1.0813
  135SAPE  H12Y14674   3.798   3.547   9.104 -0.4822  0.5331 -2.7875
  135SAPE  C31314675   3.975   3.553   8.994  0.2662  0.3206  0.2460
  135SAPE  H13X14676   3.999   3.445   9.001 -2.8795 -0.4078  1.6303
  135SAPE  H13Y14677   4.066   3.613   8.975  1.0744 -1.3213 -1.3348
  135SAPE  C31414678   3.896   3.565   8.862 -0.9708  0.9549 -0.8492
  135SAPE  H14X14679   3.850   3.665   8.876 -0.2782  0.9630  2.0943
  135SAPE  H14Y14680   3.812   3.492   8.860  1.9204 -2.6448 -1.5138
  135SAPE  C31514681   3.972   3.567   8.736 -0.2724  0.5943  0.5351
  135SAPE  H15X14682   4.010   3.464   8.721 -1.1010  0.3281  0.2258
  135SAPE  H15Y14683   4.066   3.625   8.749 -0.3283  1.2005 -1.4438
  135SAPE  C31614684   3.892   3.622   8.618 -0.2623 -0.0385 -0.0083
  135SAPE  H16X14685   3.854   3.724   8.641  0.6039 -0.1136  1.9146
  135SAPE  H16Y14686   3.798   3.564   8.613 -1.3211  1.6661 -0.9744
  135SAPE  C31714687   3.966   3.607   8.489 -0.6499  0.0729  0.1690
  135SAPE  H17X14688   3.999   3.505   8.462  0.9274  0.9195 -1.2879
  135SAPE  H17Y14689   4.062   3.664   8.492  1.1640 -2.7517 -0.6005
  135SAPE  C31814690   3.878   3.663   8.369 -0.2988  0.4763 -0.4439
  135SAPE  H18X14691   3.792   3.597   8.342 -0.4864  0.5880 -0.1250
  135SAPE  H18Y14692   3.956   3.681   8.292  0.6513 -3.6423 -0.6664
  135SAPE  H18Z14693   3.831   3.761   8.391 -1.1669  0.0052 -0.1172
  136SAPE     N14694   5.257   4.649  10.747 -0.5428  0.3146  0.6081
  136SAPE   HN114695   5.239   4.703  10.834  1.8742 -0.1643  1.4882
  136SAPE   HN214696   5.261   4.716  10.667  1.0105 -0.3000  0.1375
  136SAPE   HN314697   5.178   4.584  10.732 -0.2865  0.1432 -0.0220
  136SAPE   C1214698   5.387   4.572  10.772 -0.1180 -0.0376 -0.2238
  136SAPE  H12A14699   5.399   4.504  10.685 -0.9395 -2.0405  1.1317
  136SAPE  H12B14700   5.365   4.524  10.870  0.1110  2.0663  0.9193
  136SAPE   C1114701   5.502   4.679  10.778 -0.0712 -0.1522 -1.0041
  136SAPE  H11A14702   5.493   4.746  10.866  3.0058  0.3806 -0.9860
  136SAPE  H11B14703   5.522   4.747  10.692  1.0966  0.4720 -0.2661
  136SAPE     P14704   5.759   4.683  10.833  0.1891  0.1908 -0.0740
  136SAPE   O1314705   5.732   4.802  10.916 -0.0784  0.5288 -0.4749
  136SAPE   O1414706   5.865   4.602  10.885 -0.7235  0.9767 -0.2588
  136SAPE   O1214707   5.623   4.605  10.798  0.4014 -0.1528 -0.3961
  136SAPE   O1114708   5.812   4.737  10.692 -0.7145 -0.4769 -0.2265
  136SAPE    C114709   5.926   4.688  10.622  0.1134  0.1178  0.3845
  136SAPE    HA14710   5.990   4.774  10.591 -2.4349  1.1179 -2.6979
  136SAPE    HB14711   5.992   4.626  10.686  1.0907  1.3309  0.5906
  136SAPE    C214712   5.884   4.614  10.495  0.6100  0.3105 -0.5404
  136SAPE    HS14713   5.979   4.581  10.447  1.2862  2.0911 -0.5120
  136SAPE   O2114714   5.799   4.709  10.409 -0.9353 -0.1467 -0.5388
  136SAPE   C2114715   5.869   4.812  10.355 -0.5652 -0.0033 -0.6296
  136SAPE   O2214716   5.987   4.834  10.374  0.5947 -0.0840  0.4980
  136SAPE   C2214717   5.780   4.901  10.272  0.7053  0.5404  0.2211
  136SAPE   H2R14718   5.711   4.947  10.346  0.0382  0.4727 -0.3472
  136SAPE   H2S14719   5.845   4.981  10.231  1.6130  0.1141  0.8126
  136SAPE    C314720   5.805   4.485  10.514 -0.3716 -0.1606 -0.4645
  136SAPE    HX14721   5.725   4.511  10.587 -1.0093 -0.5230 -1.0175
  136SAPE    HY14722   5.873   4.415  10.568  0.0490  2.0733  2.1533
  136SAPE   O3114723   5.761   4.431  10.388 -0.6527  0.2445 -0.2675
  136SAPE   C3114724   5.635   4.453  10.360  0.6737 -0.9658  0.4027
  136SAPE   O3214725   5.545   4.504  10.424  0.4470 -0.1689  0.3431
  136SAPE   C3214726   5.617   4.403  10.223 -0.1143 -0.1946  0.5190
  136SAPE   H2X14727   5.643   4.295  10.215 -0.6015 -0.4309  1.8659
  136SAPE   H2Y14728   5.692   4.445  10.152 -0.9940 -0.8712 -0.8485
  136SAPE   C2314729   5.699   4.814  10.165 -0.8260 -0.1014  0.0004
  136SAPE   H3R14730   5.635   4.886  10.110 -0.7102 -0.7090 -0.9475
  136SAPE   H3S14731   5.622   4.746  10.207 -1.2131  2.0187  3.0304
  136SAPE   C2414732   5.783   4.737  10.057  0.0055 -0.0966 -0.1243
  136SAPE   H4R14733   5.727   4.658  10.002 -0.1156 -2.5517  3.2226
  136SAPE   H4S14734   5.849   4.677  10.122 -2.6070 -1.5041  1.4199
  136SAPE   C2514735   5.862   4.822   9.959 -0.4952 -0.5330 -0.7028
  136SAPE   H5R14736   5.890   4.920  10.000 -1.7910  0.2794 -1.6743
  136SAPE   C2614737   5.893   4.800   9.827 -0.2217 -0.0920  0.0501
  136SAPE   H6R14738   5.943   4.880   9.771  0.3356  1.5714  2.7131
  136SAPE   C2714739   5.849   4.677   9.750  0.1584  0.7514 -0.0173
  136SAPE   H7R14740   5.792   4.605   9.811 -0.4810 -0.1160 -1.5691
  136SAPE   H7S14741   5.941   4.615   9.747 -1.0517 -1.0790 -2.1907
  136SAPE   C2814742   5.781   4.693   9.613  0.4034  0.0013 -0.0992
  136SAPE   H8R14743   5.679   4.652   9.604  0.1093 -0.0593  2.6276
  136SAPE   C2914744   5.831   4.746   9.504 -0.5853  0.0401 -0.4325
  136SAPE   H9R14745   5.774   4.749   9.411  1.3666  0.0486 -1.6862
  136SAPE  C21014746   5.973   4.809   9.485  0.5102 -0.6686  0.3837
  136SAPE  H10R14747   6.028   4.721   9.446  1.3015  0.3753 -0.9811
  136SAPE  H10S14748   6.021   4.836   9.581  0.8091  1.1069 -0.2298
  136SAPE  C21114749   5.960   4.918   9.375  0.1137 -0.2061 -0.4699
  136SAPE  H11R14750   5.951   5.017   9.421 -0.0849 -1.2814  1.9606
  136SAPE  C21214751   5.977   4.903   9.244  0.2073  0.0897  0.2394
  136SAPE  H12R14752   5.977   4.994   9.181  0.9420  1.4424  2.0938
  136SAPE  C21314753   6.005   4.775   9.175  0.5836 -0.3032  0.0431
  136SAPE  H13R14754   5.959   4.793   9.076 -1.0117  4.6591  1.4054
  136SAPE  H13S14755   5.945   4.693   9.221  0.4343  2.1054  4.8193
  136SAPE  C21414756   6.149   4.725   9.159  0.0825 -0.3651  0.2003
  136SAPE  H14R14757   6.164   4.637   9.224 -0.7705  1.0380  2.4021
  136SAPE  C21514758   6.252   4.771   9.082 -0.1130 -0.1418 -0.5431
  136SAPE  H15R14759   6.347   4.716   9.077 -1.1489 -2.0636  0.1146
  136SAPE  C21614760   6.257   4.896   8.993 -0.2320  0.3585  0.4633
  136SAPE  H16R14761   6.332   4.968   9.032  0.5941  0.1343 -0.6686
  136SAPE  H16S14762   6.162   4.954   8.999  0.7329  2.2462 -1.3528
  136SAPE  C21714763   6.269   4.863   8.839 -0.5074  0.4803  0.1504
  136SAPE  H17R14764   6.244   4.948   8.771 -0.8891 -0.7519 -1.2859
  136SAPE  H17S14765   6.203   4.779   8.811  0.3857  0.1431 -1.0298
  136SAPE  C21814766   6.412   4.821   8.801  0.1384  0.0750  0.3922
  136SAPE  H18R14767   6.400   4.775   8.701  0.4828  0.2906  0.2491
  136SAPE  H18S14768   6.458   4.741   8.864 -1.4180 -0.3550  1.0274
  136SAPE  C21914769   6.515   4.940   8.792 -0.3927 -0.8176 -0.1368
  136SAPE  H19R14770   6.525   4.997   8.886  0.8893 -0.7423 -0.2974
  136SAPE  H19S14771   6.472   5.009   8.716 -0.9418 -1.6103 -0.5721
  136SAPE  C22014772   6.653   4.885   8.760  0.0216 -0.3700 -0.7039
  136SAPE  H20R14773   6.709   4.852   8.850  1.1230  0.9382 -0.8635
  136SAPE  H20S14774   6.717   4.967   8.721 -1.2314  1.5504  1.0241
  136SAPE  H20T14775   6.650   4.812   8.676  1.8879 -2.1399  0.6745
  136SAPE   C3314776   5.476   4.419  10.161  0.7888 -0.2806 -0.2339
  136SAPE   H3X14777   5.465   4.529  10.160  0.0735 -0.3358 -1.8431
  136SAPE   H3Y14778   5.402   4.381  10.234 -1.6802 -0.0185 -2.4310
  136SAPE   C3414779   5.451   4.353  10.023  0.1921  1.1627 -0.6972
  136SAPE   H4X14780   5.415   4.254  10.060 -0.3029  0.1076 -3.7598
  136SAPE   H4Y14781   5.549   4.346   9.972  1.9361  3.0669  2.0885
  136SAPE   C3514782   5.344   4.425   9.947  0.6109  0.2141 -0.4023
  136SAPE   H5X14783   5.329   4.521  10.000 -1.6830 -0.1220 -0.3451
  136SAPE   H5Y14784   5.246   4.374   9.938 -0.7969  2.3257  1.7810
  136SAPE   C3614785   5.390   4.456   9.804  0.2803  0.9245 -0.4592
  136SAPE   H6X14786   5.482   4.517   9.818 -0.0761  0.9233  2.4465
  136SAPE   H6Y14787   5.314   4.522   9.757 -0.2096  2.4030  2.2247
  136SAPE   C3714788   5.443   4.344   9.718 -0.0756  0.2160  0.6605
  136SAPE   H7X14789   5.526   4.293   9.771  0.3241  0.8515  0.6517
  136SAPE   H7Y14790   5.493   4.387   9.629  2.1653 -2.7807  0.3149
  136SAPE   C3814791   5.330   4.245   9.680 -0.2970 -0.5461  0.7353
  136SAPE   H8X14792   5.253   4.226   9.758 -0.2592 -0.4970  0.7852
  136SAPE   H8Y14793   5.370   4.144   9.659 -0.0231 -0.2870  0.0048
  136SAPE   C3914794   5.248   4.293   9.560 -0.2962 -0.1877  0.4125
  136SAPE   H9X14795   5.312   4.337   9.481 -0.1535 -0.9512  0.0881
  136SAPE   H9Y14796   5.181   4.377   9.587 -1.6126 -0.5313 -1.5307
  136SAPE  C31014797   5.167   4.184   9.494  1.3447 -0.0601  0.4453
  136SAPE  H10X14798   5.091   4.224   9.424 -0.2583 -2.0802  0.9562
  136SAPE  H10Y14799   5.102   4.137   9.571 -0.2194  1.7384  0.2949
  136SAPE  C31114800   5.244   4.093   9.405  1.0786  0.5360 -0.1579
  136SAPE  H11X14801   5.337   4.058   9.456  2.1403  0.9647 -1.7339
  136SAPE  H11Y14802   5.272   4.148   9.313  2.0118 -0.0527 -0.2367
  136SAPE  C31214803   5.171   3.971   9.359  0.6044  0.0566 -0.0056
  136SAPE  H12X14804   5.072   4.001   9.317  0.6049  1.4587  0.9192
  136SAPE  H12Y14805   5.146   3.898   9.438  1.4032  0.6162  0.7791
  136SAPE  C31314806   5.237   3.900   9.244 -0.6186  0.9468  0.8012
  136SAPE  H13X14807   5.340   3.863   9.262 -0.0596  1.7347 -0.6160
  136SAPE  H13Y14808   5.249   3.976   9.164 -2.2479  0.7022  0.2761
  136SAPE  C31414809   5.140   3.784   9.191 -0.9441 -0.8081  0.1525
  136SAPE  H14X14810   5.049   3.839   9.159 -1.7081 -0.8027  2.1949
  136SAPE  H14Y14811   5.102   3.726   9.278 -1.4662 -0.1376  0.3768
  136SAPE  C31514812   5.204   3.693   9.086  0.4651  0.0962 -0.2729
  136SAPE  H15X14813   5.298   3.652   9.128  0.2437 -1.8218 -1.5221
  136SAPE  H15Y14814   5.236   3.749   8.996  0.3229 -2.4110 -1.9848
  136SAPE  C31614815   5.119   3.576   9.039  0.0259  0.0150  0.7373
  136SAPE  H16X14816   5.193   3.514   8.984  1.5291  0.9682  1.6233
  136SAPE  H16Y14817   5.035   3.612   8.975  1.2712  1.0269 -0.3752
  136SAPE  C31714818   5.058   3.487   9.150 -0.0423 -0.9193 -0.6661
  136SAPE  H17X14819   5.126   3.489   9.239 -1.9270  0.4653  0.8460
  136SAPE  H17Y14820   5.045   3.383   9.115 -1.9616 -1.1740  0.6229
  136SAPE  C31814821   4.916   3.533   9.207  0.0913 -0.4208  0.3144
  136SAPE  H18X14822   4.909   3.639   9.238 -2.0766  0.1648 -1.8745
  136SAPE  H18Y14823   4.874   3.465   9.285 -0.0749 -1.6705 -0.8197
  136SAPE  H18Z14824   4.842   3.518   9.126 -0.1352  0.7071  0.3007
  137SAPE     N14825   4.356   2.083  10.926 -0.5274  0.4541 -0.3134
  137SAPE   HN114826   4.277   2.109  10.864 -0.2914 -0.1141 -0.8622
  137SAPE   HN214827   4.305   2.055  11.012 -1.2327 -1.2699 -1.2570
  137SAPE   HN314828   4.424   2.160  10.944 -0.0036 -0.4646  2.0871
  137SAPE   C1214829   4.430   1.963  10.872  0.8602 -0.2484 -1.2136
  137SAPE  H12A14830   4.344   1.901  10.836 -0.4333  1.7630 -1.7563
  137SAPE  H12B14831   4.473   1.915  10.962  1.6601  0.4108 -1.2353
  137SAPE   C1114832   4.522   2.004  10.754 -0.0510  0.1135 -0.6327
  137SAPE  H11A14833   4.456   2.046  10.675 -1.4908  0.9452  0.9398
  137SAPE  H11B14834   4.565   1.906  10.723 -0.0073  0.3876 -1.4571
  137SAPE     P14835   4.770   2.054  10.786 -0.3241 -0.0972  0.2738
  137SAPE   O1314836   4.849   2.172  10.819  0.0252 -0.2452  0.3593
  137SAPE   O1414837   4.793   1.931  10.868  0.1408 -0.1474 -0.1777
  137SAPE   O1214838   4.620   2.092  10.804  0.4143 -0.5186  0.4474
  137SAPE   O1114839   4.792   2.010  10.633 -1.0945  0.1950 -0.3032
  137SAPE    C114840   4.888   1.909  10.589  0.5082 -0.1313 -0.1469
  137SAPE    HA14841   4.992   1.947  10.579  0.4788 -0.4344 -1.9987
  137SAPE    HB14842   4.897   1.822  10.657  0.8944  0.7247  0.9279
  137SAPE    C214843   4.859   1.860  10.441  0.6903  0.4181 -0.3151
  137SAPE    HS14844   4.912   1.762  10.434  0.5474  0.3029  0.1817
  137SAPE   O2114845   4.897   1.950  10.331 -0.6055  0.6945 -0.9050
  137SAPE   C2114846   5.027   1.948  10.303 -0.5343 -0.6719  0.1931
  137SAPE   O2214847   5.107   1.887  10.367  0.2350 -0.0666  0.2590
  137SAPE   C2214848   5.062   2.053  10.196  0.6401  0.1137  0.4950
  137SAPE   H2R14849   4.966   2.083  10.148  1.8556  0.7505 -1.6906
  137SAPE   H2S14850   5.107   2.138  10.252 -0.9500  0.8396  0.7239
  137SAPE    C314851   4.706   1.829  10.421 -0.2199 -0.5865 -0.3991
  137SAPE    HX14852   4.647   1.920  10.444  0.0265 -0.8950  1.6886
  137SAPE    HY14853   4.668   1.761  10.500 -2.4681  0.2909 -0.6440
  137SAPE   O3114854   4.682   1.797  10.279  0.4747  0.2368 -0.1658
  137SAPE   C3114855   4.615   1.682  10.265 -1.2691 -0.1069  0.2979
  137SAPE   O3214856   4.550   1.625  10.358 -0.3733 -0.3816 -0.2320
  137SAPE   C3214857   4.604   1.636  10.115 -1.1939 -0.2555  0.1422
  137SAPE   H2X14858   4.496   1.618  10.097 -0.5556 -2.0151 -2.3855
  137SAPE   H2Y14859   4.650   1.535  10.116  2.0051  1.0568 -1.6241
  137SAPE   C2314860   5.172   2.002  10.101  0.9452 -0.5301  0.6651
  137SAPE   H3R14861   5.265   1.973  10.156  1.3267 -0.6576 -0.0349
  137SAPE   H3S14862   5.199   2.093  10.044 -0.2721 -0.9229 -0.5819
  137SAPE   C2414863   5.137   1.882  10.009 -0.3633  0.3760 -0.0038
  137SAPE   H4R14864   5.082   1.819  10.082  1.2352  0.3449  1.2486
  137SAPE   H4S14865   5.219   1.826   9.959 -1.8506 -1.6835 -0.2635
  137SAPE   C2514866   5.057   1.937   9.900  0.1804  1.1065  0.0467
  137SAPE   H5R14867   4.962   1.971   9.944  0.3815 -2.0183  3.4047
  137SAPE   C2614868   5.080   1.946   9.770 -0.2789  0.4450 -0.0748
  137SAPE   H6R14869   4.998   1.992   9.714  0.1545  0.3409 -0.8064
  137SAPE   C2714870   5.206   1.901   9.701 -0.8679  0.0777 -0.5421
  137SAPE   H7R14871   5.293   1.923   9.767  2.1052 -1.9108 -3.5232
  137SAPE   H7S14872   5.229   1.962   9.611  4.3032  1.0352  1.0910
  137SAPE   C2814873   5.201   1.755   9.668 -0.5653  0.1011 -0.6452
  137SAPE   H8R14874   5.174   1.689   9.752  1.5957  1.1106  0.9504
  137SAPE   C2914875   5.245   1.714   9.547  0.2331 -0.0642 -1.0436
  137SAPE   H9R14876   5.252   1.607   9.525  2.8306 -0.1685 -0.0982
  137SAPE  C21014877   5.299   1.791   9.436  0.0878 -0.2900  0.0194
  137SAPE  H10R14878   5.391   1.746   9.394 -0.2819  0.5467 -1.8148
  137SAPE  H10S14879   5.341   1.884   9.480 -0.8521 -0.7053  1.8831
  137SAPE  C21114880   5.193   1.835   9.338 -0.1508 -0.7038  1.2984
  137SAPE  H11R14881   5.096   1.851   9.386 -0.7717 -1.4785  0.3561
  137SAPE  C21214882   5.203   1.845   9.199 -0.9579 -0.1011  0.2676
  137SAPE  H12R14883   5.120   1.875   9.134 -1.2553 -0.7548  0.3423
  137SAPE  C21314884   5.332   1.816   9.121  0.2401 -0.4891  0.4415
  137SAPE  H13R14885   5.422   1.812   9.185  0.8450 -0.1007 -0.3752
  137SAPE  H13S14886   5.349   1.905   9.056 -2.3741  1.6143  2.3743
  137SAPE  C21414887   5.316   1.699   9.032  0.3990  0.1342  0.1130
  137SAPE  H14R14888   5.233   1.699   8.960  0.2654 -2.3396  0.1543
  137SAPE  C21514889   5.396   1.592   9.030 -0.0477  0.6065  0.3089
  137SAPE  H15R14890   5.383   1.505   8.964 -0.2091  0.9057 -0.0581
  137SAPE  C21614891   5.498   1.573   9.128  0.4289  0.0884 -0.2097
  137SAPE  H16R14892   5.539   1.469   9.135  0.3797  0.0610 -0.3277
  137SAPE  H16S14893   5.471   1.599   9.233  2.1094  2.3027 -0.2426
  137SAPE  C21714894   5.619   1.670   9.097  0.2463 -0.1251 -0.0317
  137SAPE  H17R14895   5.599   1.773   9.063  2.2952  1.6752  3.6233
  137SAPE  H17S14896   5.677   1.617   9.017 -0.7159  0.0792 -0.8756
  137SAPE  C21814897   5.713   1.676   9.215  0.2649  0.0543 -0.4947
  137SAPE  H18R14898   5.725   1.571   9.248  0.0359  0.5827  1.3640
  137SAPE  H18S14899   5.668   1.734   9.298 -0.6197  1.5458 -1.9433
  137SAPE  C21914900   5.852   1.734   9.184  0.5092 -0.6869 -0.6652
  137SAPE  H19R14901   5.845   1.840   9.149  3.5850 -0.1110  0.1959
  137SAPE  H19S14902   5.898   1.678   9.100  1.1287  1.1576 -1.6316
  137SAPE  C22014903   5.951   1.740   9.297  0.3426  0.0579 -1.0474
  137SAPE  H20R14904   5.983   1.636   9.320  0.9475  0.3299 -0.6078
  137SAPE  H20S14905   5.916   1.786   9.392  1.4666 -2.5826  0.7665
  137SAPE  H20T14906   6.053   1.778   9.274  1.0074 -0.5058  0.7993
  137SAPE   C3314907   4.673   1.724  10.008  1.0237 -0.0429  0.0751
  137SAPE   H3X14908   4.777   1.745  10.042  0.3295 -1.0619  3.1440
  137SAPE   H3Y14909   4.619   1.821  10.004  2.4044  0.7391 -0.3232
  137SAPE   C3414910   4.655   1.665   9.869  0.3599  0.2074 -0.1328
  137SAPE   H4X14911   4.547   1.649   9.849 -0.0680  0.0914  1.9735
  137SAPE   H4Y14912   4.700   1.564   9.877  1.1891  0.3798 -2.0988
  137SAPE   C3514913   4.720   1.748   9.762 -0.1811 -0.9741 -0.4322
  137SAPE   H5X14914   4.830   1.732   9.764  0.0127  0.2925  0.4682
  137SAPE   H5Y14915   4.695   1.854   9.784 -3.1177 -1.9232  1.2888
  137SAPE   C3614916   4.665   1.717   9.630 -0.3598 -0.5637 -0.3295
  137SAPE   H6X14917   4.563   1.759   9.619 -0.4551  0.1908  2.6340
  137SAPE   H6Y14918   4.667   1.610   9.600  3.2103 -0.7790  0.1862
  137SAPE   C3714919   4.749   1.782   9.527 -0.2567  0.2046  0.4486
  137SAPE   H7X14920   4.855   1.748   9.535 -1.1906 -3.4139 -0.6580
  137SAPE   H7Y14921   4.755   1.892   9.539  1.2371  0.0191  1.8116
  137SAPE   C3814922   4.697   1.744   9.382  0.3317 -0.4205 -0.3010
  137SAPE   H8X14923   4.595   1.782   9.361 -0.4832 -2.3580 -0.1318
  137SAPE   H8Y14924   4.687   1.635   9.361 -1.0899  0.0455 -2.3374
  137SAPE   C3914925   4.795   1.808   9.288 -0.5076 -0.1931 -0.1065
  137SAPE   H9X14926   4.898   1.776   9.313 -0.5549  0.0360  0.3856
  137SAPE   H9Y14927   4.792   1.919   9.286  3.4729  0.0807  0.8785
  137SAPE  C31014928   4.754   1.771   9.140  0.3961 -0.1032 -0.2781
  137SAPE  H10X14929   4.651   1.810   9.122  1.1472  1.8206 -0.5800
  137SAPE  H10Y14930   4.736   1.662   9.126 -0.2173  0.0020 -0.3484
  137SAPE  C31114931   4.844   1.828   9.025  0.4091  0.2290  0.5725
  137SAPE  H11X14932   4.951   1.806   9.045  0.5203  0.0010 -0.2109
  137SAPE  H11Y14933   4.832   1.938   9.025  0.7585  0.3462 -2.3352
  137SAPE  C31214934   4.820   1.769   8.885 -0.3282 -0.2060  0.4264
  137SAPE  H12X14935   4.718   1.769   8.843 -1.1332  3.2501  2.0360
  137SAPE  H12Y14936   4.852   1.662   8.886 -2.1726 -0.8127 -1.1508
  137SAPE  C31314937   4.913   1.844   8.793 -0.3093 -1.1185  0.0761
  137SAPE  H13X14938   5.020   1.842   8.822 -0.9338  0.7330  2.8125
  137SAPE  H13Y14939   4.882   1.951   8.796 -0.6611 -1.1979 -0.5576
  137SAPE  C31414940   4.898   1.803   8.647  0.7353  0.3158 -0.2666
  137SAPE  H14X14941   4.797   1.816   8.602 -0.8571 -4.9769  1.1150
  137SAPE  H14Y14942   4.924   1.696   8.635 -0.9154 -0.0454 -0.9243
  137SAPE  C31514943   5.000   1.887   8.563 -0.0768  0.5033 -0.6825
  137SAPE  H15X14944   5.105   1.875   8.594 -0.5764 -0.1270  0.8447
  137SAPE  H15Y14945   4.972   1.994   8.567  0.1404  0.5436  2.8165
  137SAPE  C31614946   5.000   1.843   8.414 -0.4815 -0.6428  0.8231
  137SAPE  H16X14947   5.045   1.925   8.354 -1.2601  0.0056  1.1239
  137SAPE  H16Y14948   4.898   1.811   8.386 -0.9547  0.8398  0.7982
  137SAPE  C31714949   5.090   1.715   8.386 -0.4819  0.1742 -0.4500
  137SAPE  H17X14950   5.025   1.636   8.429  1.5924 -0.7818  1.0835
  137SAPE  H17Y14951   5.176   1.718   8.455  0.2299  0.3180 -1.3274
  137SAPE  C31814952   5.126   1.689   8.245  0.9793 -0.1901 -0.3612
  137SAPE  H18X14953   5.037   1.668   8.183 -1.4858  1.4936  2.3729
  137SAPE  H18Y14954   5.186   1.596   8.235  1.6716  0.3193 -1.1263
  137SAPE  H18Z14955   5.180   1.776   8.201  1.3929  0.3711  1.1715
  138SAPE     N14956   2.130   2.073  10.794  0.5260  0.0808 -0.1352
  138SAPE   HN114957   2.181   2.076  10.704 -1.4976 -1.2368 -1.4126
  138SAPE   HN214958   2.166   2.004  10.863  0.1101  1.1494  1.2106
  138SAPE   HN314959   2.036   2.032  10.772  0.6287 -0.1500 -0.1447
  138SAPE   C1214960   2.118   2.209  10.855 -0.0769  0.2451 -0.1245
  138SAPE  H12A14961   2.213   2.241  10.903 -0.3391 -0.7377  1.0707
  138SAPE  H12B14962   2.041   2.196  10.934 -1.6346 -0.0557 -1.6079
  138SAPE   C1114963   2.071   2.308  10.753  0.1110  0.4978  0.2050
  138SAPE  H11A14964   2.052   2.404  10.806 -0.3768 -0.7974  2.4806
  138SAPE  H11B14965   1.977   2.273  10.705  1.7951 -0.6430 -2.5198
  138SAPE     P14966   2.154   2.326  10.508  0.1607  0.2682  0.0700
  138SAPE   O1314967   2.017   2.386  10.484 -0.1697 -0.0694  0.6990
  138SAPE   O1414968   2.269   2.392  10.442  0.3305 -0.2123 -0.4461
  138SAPE   O1214969   2.183   2.315  10.659  0.2752  0.8326 -0.1174
  138SAPE   O1114970   2.157   2.172  10.453  0.0593 -0.3196 -0.2517
  138SAPE    C114971   2.040   2.088  10.449  0.1564 -0.4990 -0.2652
  138SAPE    HA14972   2.067   1.990  10.495  1.4015 -0.2080 -0.3279
  138SAPE    HB14973   1.961   2.137  10.510  1.1833  0.1862  0.5476
  138SAPE    C214974   1.990   2.050  10.313 -0.1758  0.1670  0.3734
  138SAPE    HS14975   1.892   1.999  10.328 -1.5349  1.7002 -2.4959
  138SAPE   O2114976   2.091   1.974  10.244  0.2319 -0.0083 -0.4376
  138SAPE   C2114977   2.073   1.846  10.245 -0.1800 -1.5397  0.0047
  138SAPE   O2214978   1.981   1.786  10.298 -0.3487 -0.5351 -0.8248
  138SAPE   C2214979   2.178   1.781  10.152  0.5156 -0.1860 -0.2848
  138SAPE   H2R14980   2.237   1.861  10.103 -0.1687 -0.6245 -1.8937
  138SAPE   H2S14981   2.243   1.731  10.227  2.8322  1.5143 -1.0472
  138SAPE    C314982   1.965   2.173  10.224  0.6031  0.5600 -0.4901
  138SAPE    HX14983   2.063   2.226  10.217 -0.5540  2.8784  0.0471
  138SAPE    HY14984   1.890   2.231  10.282  1.0978 -1.3520  2.2664
  138SAPE   O3114985   1.913   2.136  10.096  0.1844 -0.0316 -0.1024
  138SAPE   C3114986   1.875   2.244  10.018  0.4795  0.8046  0.2200
  138SAPE   O3214987   1.872   2.357  10.061 -0.4630  0.2414 -0.2742
  138SAPE   C3214988   1.858   2.199   9.871 -0.0158  0.6249  0.0914
  138SAPE   H2X14989   1.765   2.139   9.873  0.7945 -0.6848 -0.1671
  138SAPE   H2Y14990   1.943   2.133   9.842  0.8447  2.1266 -0.9611
  138SAPE   C2314991   2.109   1.685  10.048  0.7388 -0.6534 -0.1837
  138SAPE   H3R14992   2.044   1.748   9.984 -1.3206 -2.2388  0.2529
  138SAPE   H3S14993   2.051   1.606  10.100  1.6385  1.6682  4.9047
  138SAPE   C2414994   2.211   1.619   9.960  0.1013 -0.0987  0.0668
  138SAPE   H4R14995   2.162   1.530   9.914  1.2236 -0.7613  0.1132
  138SAPE   H4S14996   2.289   1.570  10.021  0.1121  0.2698  0.3518
  138SAPE   C2514997   2.270   1.706   9.848  0.4153 -0.1833 -0.1892
  138SAPE   H5R14998   2.320   1.798   9.883  0.0190 -0.4124  1.0424
  138SAPE   C2614999   2.278   1.691   9.719 -0.2124  0.2921  0.9461
  138SAPE   H6R15000   2.320   1.773   9.658  0.1639  0.3142  1.2340
  138SAPE   C2715001   2.222   1.576   9.633 -0.0007  0.1470 -0.5493
  138SAPE   H7R15002   2.152   1.512   9.692  1.0402 -0.2211  0.3108
  138SAPE   H7S15003   2.315   1.521   9.608 -0.6074 -1.6658  0.9158
  138SAPE   C2815004   2.156   1.613   9.497 -0.9881 -0.4327 -0.0115
  138SAPE   H8R15005   2.051   1.646   9.502 -0.8497 -0.1671  1.4124
  138SAPE   C2915006   2.224   1.617   9.384 -0.6501  0.0245  0.0707
  138SAPE   H9R15007   2.178   1.635   9.286  1.0403  1.0267 -0.5952
  138SAPE  C21015008   2.375   1.585   9.368 -0.0168  0.4876  0.0861
  138SAPE  H10R15009   2.401   1.490   9.419  0.6257  0.1518 -0.8347
  138SAPE  H10S15010   2.439   1.655   9.426  3.9675 -1.2130 -1.8341
  138SAPE  C21115011   2.427   1.593   9.227  0.6164  0.0635  0.0554
  138SAPE  H11R15012   2.511   1.663   9.215 -0.6793  1.8972  1.1352
  138SAPE  C21215013   2.395   1.528   9.115 -0.1671  0.2497 -0.1827
  138SAPE  H12R15014   2.451   1.548   9.023  1.9172  0.4028  1.0415
  138SAPE  C21315015   2.292   1.426   9.111  0.4653  0.0966 -0.0767
  138SAPE  H13R15016   2.268   1.379   9.209  2.2863  0.2960  0.5058
  138SAPE  H13S15017   2.330   1.335   9.061 -1.0459  0.0940 -1.3224
  138SAPE  C21415018   2.171   1.468   9.041  0.8604 -0.3064  0.1858
  138SAPE  H14R15019   2.095   1.497   9.115 -0.3163 -0.7399 -0.8100
  138SAPE  C21515020   2.134   1.460   8.913 -0.4108 -0.1962 -0.0732
  138SAPE  H15R15021   2.034   1.500   8.888 -0.4644  0.0798  0.5763
  138SAPE  C21615022   2.210   1.420   8.790  0.4107  0.0588  0.8321
  138SAPE  H16R15023   2.301   1.358   8.807  0.4153  0.2406  1.5254
  138SAPE  H16S15024   2.243   1.514   8.741 -1.6819  0.5265  0.2148
  138SAPE  C21715025   2.118   1.343   8.686  0.6382 -0.2008  0.3035
  138SAPE  H17R15026   2.021   1.396   8.683  0.6816 -0.1049  0.5792
  138SAPE  H17S15027   2.093   1.243   8.727 -0.2753 -0.1047  0.0072
  138SAPE  C21815028   2.193   1.327   8.559  0.4838 -0.1402  0.1072
  138SAPE  H18R15029   2.285   1.270   8.583 -0.1819 -0.9153  0.8758
  138SAPE  H18S15030   2.217   1.423   8.508  0.4204 -0.7132 -1.0176
  138SAPE  C21915031   2.112   1.251   8.448 -0.4252 -0.6980 -0.3607
  138SAPE  H19R15032   2.164   1.254   8.350 -0.5579  1.5523 -0.4152
  138SAPE  H19S15033   2.017   1.304   8.425 -0.8406 -0.4815  1.6301
  138SAPE  C22015034   2.076   1.105   8.492  0.0061  0.0704  0.4817
  138SAPE  H20R15035   2.028   1.048   8.409 -0.3013  1.9814 -0.7284
  138SAPE  H20S15036   2.003   1.098   8.575 -1.1907  0.3984 -0.5005
  138SAPE  H20T15037   2.166   1.047   8.521  0.3300 -1.6522 -3.2895
  138SAPE   C3315038   1.853   2.314   9.763  0.5450  0.2999  0.1147
  138SAPE   H3X15039   1.953   2.363   9.763  1.1091 -0.8087 -0.5121
  138SAPE   H3Y15040   1.772   2.378   9.802  0.5564 -0.1350  0.8730
  138SAPE   C3415041   1.807   2.263   9.623  0.1454 -0.5204  0.1192
  138SAPE   H4X15042   1.703   2.223   9.633  0.0972 -0.1479  1.3643
  138SAPE   H4Y15043   1.868   2.177   9.589  0.5241 -0.0732 -0.3466
  138SAPE   C3515044   1.808   2.372   9.512 -0.4989  0.1020 -0.3860
  138SAPE   H5X15045   1.897   2.439   9.509 -2.9755  3.6763 -0.2830
  138SAPE   H5Y15046   1.722   2.440   9.534 -0.8573 -0.7284  0.8773
  138SAPE   C3615047   1.809   2.307   9.373 -0.3038 -0.3867 -0.1018
  138SAPE   H6X15048   1.739   2.222   9.373 -1.9448  0.7698  3.3775
  138SAPE   H6Y15049   1.914   2.278   9.351  0.8468  2.2048  1.4119
  138SAPE   C3715050   1.758   2.408   9.267 -0.3015  0.0367  0.2642
  138SAPE   H7X15051   1.822   2.496   9.288  0.8583 -1.2212  2.3631
  138SAPE   H7Y15052   1.652   2.427   9.294 -0.9345 -1.3912 -1.0344
  138SAPE   C3815053   1.759   2.365   9.122  0.0343 -0.5717  0.2884
  138SAPE   H8X15054   1.732   2.462   9.074  0.4623 -0.8239 -0.4761
  138SAPE   H8Y15055   1.694   2.276   9.106 -0.9586  0.3402 -1.0709
  138SAPE   C3915056   1.886   2.322   9.056 -0.6089  0.6991 -0.4760
  138SAPE   H9X15057   1.914   2.223   9.098 -1.8811  0.4298 -0.2449
  138SAPE   H9Y15058   1.974   2.387   9.075 -0.0397  0.2557 -1.5132
  138SAPE  C31015059   1.872   2.318   8.906  0.1387 -0.7726 -0.1124
  138SAPE  H10X15060   1.849   2.422   8.875 -0.0757 -1.0538 -0.9084
  138SAPE  H10Y15061   1.799   2.242   8.873  0.8982 -0.7745 -1.8828
  138SAPE  C31115062   2.005   2.288   8.838  0.0758  0.3088  0.7351
  138SAPE  H11X15063   2.068   2.209   8.884  0.8548 -0.2642 -1.2261
  138SAPE  H11Y15064   2.064   2.382   8.843  0.0877  0.3938 -0.7836
  138SAPE  C31215065   2.007   2.252   8.686 -0.3552  0.0835 -0.0712
  138SAPE  H12X15066   1.939   2.325   8.638  0.2551 -0.3089 -1.5621
  138SAPE  H12Y15067   1.959   2.152   8.680  0.7787 -0.3809 -2.0002
  138SAPE  C31315068   2.149   2.246   8.629 -0.1679 -0.1071  0.0144
  138SAPE  H13X15069   2.152   2.212   8.523 -0.7150  0.0662 -0.0602
  138SAPE  H13Y15070   2.206   2.165   8.680 -0.5403 -1.9894 -2.3469
  138SAPE  C31415071   2.219   2.378   8.629  0.4444  0.0840 -0.1527
  138SAPE  H14X15072   2.326   2.358   8.603  1.3154  3.3581  0.5167
  138SAPE  H14Y15073   2.224   2.427   8.729  0.2263 -0.1235 -0.0391
  138SAPE  C31515074   2.155   2.476   8.536  0.0363  0.3616  0.3160
  138SAPE  H15X15075   2.051   2.498   8.569 -0.1859  0.7664 -0.6290
  138SAPE  H15Y15076   2.153   2.426   8.437  1.5017 -0.3963  0.6371
  138SAPE  C31615077   2.241   2.603   8.513 -0.1857  0.0790  0.3240
  138SAPE  H16X15078   2.212   2.658   8.421  2.2750  0.3194 -0.3794
  138SAPE  H16Y15079   2.345   2.563   8.514 -0.3331 -0.3633  2.6427
  138SAPE  C31715080   2.228   2.701   8.634 -0.2702  0.9881 -0.4663
  138SAPE  H17X15081   2.244   2.638   8.724 -0.2152 -0.9000 -1.7320
  138SAPE  H17Y15082   2.129   2.752   8.636 -1.5191 -1.3172  0.5209
  138SAPE  C31815083   2.319   2.813   8.634  0.2295  0.0673  0.4482
  138SAPE  H18X15084   2.331   2.868   8.538 -2.8889  2.6431  1.3831
  138SAPE  H18Y15085   2.425   2.791   8.660  0.5114  2.2146  1.3131
  138SAPE  H18Z15086   2.304   2.880   8.721 -1.4468 -0.5564  0.6734
  139SAPE     N15087   2.485   4.716  10.704  0.8541 -0.4464 -0.2341
  139SAPE   HN115088   2.393   4.749  10.666  0.3136 -1.9260 -0.2746
  139SAPE   HN215089   2.556   4.703  10.629  0.5959 -3.4764 -0.0676
  139SAPE   HN315090   2.473   4.633  10.765  1.3419  0.1433  0.6801
  139SAPE   C1215091   2.528   4.825  10.802 -0.1698 -0.0958  0.6537
  139SAPE  H12A15092   2.635   4.809  10.823  0.0908  1.3636  0.5546
  139SAPE  H12B15093   2.458   4.817  10.888 -2.1345 -0.9344 -0.9383
  139SAPE   C1115094   2.508   4.965  10.738  0.1231 -0.5586 -0.4040
  139SAPE  H11A15095   2.578   5.001  10.659  1.4226 -0.7137  0.6475
  139SAPE  H11B15096   2.510   5.035  10.824 -0.5209  0.4590 -1.1986
  139SAPE     P15097   2.299   5.088  10.612  0.1928  0.6127 -0.3024
  139SAPE   O1315098   2.158   5.051  10.596  0.2323  0.1816  0.8427
  139SAPE   O1415099   2.327   5.220  10.667 -0.3978 -0.7621 -0.1117
  139SAPE   O1215100   2.369   4.975  10.701  0.5758  0.2978  0.9673
  139SAPE   O1115101   2.369   5.076  10.474  0.1367 -0.7316 -0.1252
  139SAPE    C115102   2.400   4.954  10.399 -0.0367 -0.5876  0.2308
  139SAPE    HA15103   2.507   4.932  10.418  0.3708  1.4467  0.5658
  139SAPE    HB15104   2.348   4.863  10.435 -0.7930  0.5120  2.0630
  139SAPE    C215105   2.368   4.961  10.246  0.6875 -0.1832  0.1781
  139SAPE    HS15106   2.395   4.865  10.199  0.1933 -0.0345 -0.4176
  139SAPE   O2115107   2.441   5.070  10.183 -0.3913 -0.2816  0.9809
  139SAPE   C2115108   2.569   5.055  10.171 -0.8574 -0.0093 -0.7167
  139SAPE   O2215109   2.634   4.956  10.205  0.6666 -0.0456 -0.6303
  139SAPE   C2215110   2.631   5.176  10.115  0.3221 -0.4355 -0.1286
  139SAPE   H2R15111   2.574   5.200  10.022 -1.2104  1.4984  1.2215
  139SAPE   H2S15112   2.611   5.260  10.185 -1.3828  0.4550 -1.6105
  139SAPE    C315113   2.217   4.983  10.227  0.5890 -0.2327 -0.0004
  139SAPE    HX15114   2.181   5.083  10.260  0.3082 -0.9153  1.8880
  139SAPE    HY15115   2.175   4.902  10.291  1.4990  0.3837  1.4190
  139SAPE   O3115116   2.178   4.948  10.094 -0.5041  0.4495  0.0499
  139SAPE   C3115117   2.095   5.022  10.022 -0.1116 -0.6023 -0.4101
  139SAPE   O3215118   2.027   5.119  10.057  0.0305 -0.0406 -0.2744
  139SAPE   C3215119   2.100   4.981   9.874  0.0314  0.0190 -0.2103
  139SAPE   H2X15120   2.077   4.873   9.861 -0.6295 -0.0226  1.1262
  139SAPE   H2Y15121   2.205   5.002   9.846  0.3561 -1.1477  0.0964
  139SAPE   C2315122   2.780   5.165  10.088 -0.9808  0.5168  0.4019
  139SAPE   H3R15123   2.833   5.111  10.170 -0.9236  2.0260  1.3966
  139SAPE   H3S15124   2.818   5.269  10.088  0.0347  0.1575  0.3737
  139SAPE   C2415125   2.825   5.104   9.955  0.2505  0.1319 -0.8433
  139SAPE   H4R15126   2.930   5.137   9.939 -0.1378  2.5685  0.9874
  139SAPE   H4S15127   2.762   5.148   9.875 -3.1535 -2.8792 -0.0744
  139SAPE   C2515128   2.830   4.952   9.950  0.9930  0.0283  0.0861
  139SAPE   H5R15129   2.900   4.904  10.021  2.2642 -0.2507 -1.3147
  139SAPE   C2615130   2.758   4.867   9.876  0.2485  0.0603 -0.4522
  139SAPE   H6R15131   2.783   4.761   9.896  0.0624 -0.2091 -1.5698
  139SAPE   C2715132   2.663   4.917   9.768 -0.6361 -0.8511 -0.6036
  139SAPE   H7R15133   2.648   5.027   9.774 -0.4318 -0.8743  3.8376
  139SAPE   H7S15134   2.557   4.890   9.789 -0.9003 -0.3254 -1.2269
  139SAPE   C2815135   2.687   4.867   9.631  0.2789  0.2516  0.4877
  139SAPE   H8R15136   2.743   4.772   9.628 -1.5872 -0.9156  1.1738
  139SAPE   C2915137   2.640   4.923   9.517 -0.6058  0.9742  0.6231
  139SAPE   H9R15138   2.659   4.877   9.419  1.2219  0.2674  1.2862
  139SAPE  C21015139   2.571   5.058   9.506 -0.3419 -0.1240 -0.5020
  139SAPE  H10R15140   2.552   5.105   9.605  1.4105 -0.8813  0.2433
  139SAPE  H10S15141   2.467   5.032   9.479 -0.1787  0.8568 -2.2005
  139SAPE  C21115142   2.629   5.152   9.402 -0.3750  0.5797 -0.9252
  139SAPE  H11R15143   2.726   5.198   9.426 -0.3938 -0.0634  0.4908
  139SAPE  C21215144   2.572   5.177   9.285 -0.0229  0.0115  0.3636
  139SAPE  H12R15145   2.624   5.245   9.217 -0.8935  1.9133  1.5052
  139SAPE  C21315146   2.446   5.111   9.229 -0.0276 -0.7186  0.3436
  139SAPE  H13R15147   2.437   5.017   9.289 -0.7162 -1.7395 -1.2857
  139SAPE  H13S15148   2.442   5.065   9.128  0.6011 -0.1583  0.0615
  139SAPE  C21415149   2.328   5.204   9.247  0.8413 -0.0046  0.1925
  139SAPE  H14R15150   2.307   5.220   9.354 -0.5831 -1.6288  0.1983
  139SAPE  C21515151   2.245   5.249   9.151 -0.3040  0.7709  0.0931
  139SAPE  H15R15152   2.144   5.279   9.183 -0.5215 -0.1561  0.3168
  139SAPE  C21615153   2.254   5.223   9.004 -0.4388  0.1414 -0.3261
  139SAPE  H16R15154   2.173   5.155   8.970  0.4788 -1.7708  1.1496
  139SAPE  H16S15155   2.347   5.168   8.976  0.5827  0.4950  2.1275
  139SAPE  C21715156   2.238   5.353   8.924 -0.1415 -0.1842 -0.2808
  139SAPE  H17R15157   2.322   5.424   8.937  0.7334 -1.0711 -0.8849
  139SAPE  H17S15158   2.142   5.408   8.932 -0.1953  0.5511 -3.9866
  139SAPE  C21815159   2.241   5.333   8.766 -0.2523 -0.3066 -0.1319
  139SAPE  H18R15160   2.236   5.436   8.724  1.8425 -1.4475 -3.5684
  139SAPE  H18S15161   2.145   5.282   8.743 -0.7837  0.3668  0.5422
  139SAPE  C21915162   2.366   5.267   8.715 -0.3175  0.4599  1.1157
  139SAPE  H19R15163   2.392   5.172   8.765 -0.0122 -0.4266 -0.6571
  139SAPE  H19S15164   2.459   5.327   8.706 -0.0153 -0.3021 -4.5932
  139SAPE  C22015165   2.336   5.232   8.572 -0.8097 -0.2566 -0.4049
  139SAPE  H20R15166   2.411   5.174   8.515 -1.1557 -0.8133 -0.3066
  139SAPE  H20S15167   2.312   5.321   8.510 -2.3858 -0.8554 -0.7186
  139SAPE  H20T15168   2.247   5.165   8.568  0.3117 -1.8913  0.9442
  139SAPE   C3315169   2.005   5.054   9.773 -0.6034  0.0423  0.5375
  139SAPE   H3X15170   2.031   5.162   9.780  0.4398  0.0251 -1.9681
  139SAPE   H3Y15171   1.902   5.029   9.807 -1.3363 -0.5763 -1.9273
  139SAPE   C3415172   2.028   4.993   9.628  0.1629 -1.0065  0.0983
  139SAPE   H4X15173   1.974   4.897   9.623 -0.5676 -0.5600 -0.8021
  139SAPE   H4Y15174   2.132   4.984   9.588  0.3145 -0.6304  0.4044
  139SAPE   C3515175   1.953   5.073   9.525 -0.4898 -0.5564 -0.3187
  139SAPE   H5X15176   1.993   5.177   9.525 -1.6960 -0.0710 -1.3896
  139SAPE   H5Y15177   1.847   5.078   9.560 -0.3302 -2.0749  0.4689
  139SAPE   C3615178   1.966   5.005   9.387 -0.4047 -0.2471 -0.8047
  139SAPE   H6X15179   1.908   4.911   9.398 -1.8602  0.8777  2.5822
  139SAPE   H6Y15180   2.073   4.976   9.374 -0.9766 -2.5669 -0.7134
  139SAPE   C3715181   1.916   5.091   9.272  0.1385  0.1107  0.7815
  139SAPE   H7X15182   1.970   5.188   9.278  0.1499  0.2512 -1.0609
  139SAPE   H7Y15183   1.813   5.123   9.298  0.8232  1.9555  1.4550
  139SAPE   C3815184   1.917   5.022   9.138  0.1678 -0.3473  0.4533
  139SAPE   H8X15185   1.845   4.937   9.147 -0.6075  0.4184  2.0699
  139SAPE   H8Y15186   2.014   4.980   9.104  0.5504 -0.2305  1.3850
  139SAPE   C3915187   1.864   5.111   9.026 -0.4548 -0.2670  0.2819
  139SAPE   H9X15188   1.916   5.209   9.022 -1.6173  0.3191 -1.6450
  139SAPE   H9Y15189   1.758   5.129   9.053 -0.9277 -0.3867 -1.3758
  139SAPE  C31015190   1.883   5.042   8.888  0.0565 -1.3623 -0.6111
  139SAPE  H10X15191   1.957   4.959   8.899 -0.5908 -1.8591  0.1036
  139SAPE  H10Y15192   1.916   5.118   8.813 -0.0387  0.0782  0.7680
  139SAPE  C31115193   1.755   5.003   8.837  0.2739  1.0226  0.1228
  139SAPE  H11X15194   1.685   5.088   8.824 -2.1205 -1.0270 -1.2211
  139SAPE  H11Y15195   1.711   4.925   8.904  0.2952  0.4520 -0.5184
  139SAPE  C31215196   1.774   4.929   8.696  0.7010 -0.2693  0.4116
  139SAPE  H12X15197   1.839   4.841   8.714  0.0538 -0.9847 -0.6123
  139SAPE  H12Y15198   1.804   4.999   8.615  3.1320 -1.7987 -0.1205
  139SAPE  C31315199   1.644   4.859   8.653  0.1552 -0.0834  0.3434
  139SAPE  H13X15200   1.576   4.932   8.604  0.2853  0.8164  1.4577
  139SAPE  H13Y15201   1.599   4.820   8.747 -0.0893 -0.6149  0.0059
  139SAPE  C31415202   1.664   4.746   8.548 -0.2489 -0.2350 -0.9110
  139SAPE  H14X15203   1.725   4.671   8.602 -0.3912 -1.4335 -2.3736
  139SAPE  H14Y15204   1.723   4.780   8.460  2.0384  0.9297  0.9442
  139SAPE  C31515205   1.532   4.675   8.508 -0.5485 -0.2315  0.2128
  139SAPE  H15X15206   1.566   4.600   8.434 -1.0901 -0.0564 -0.2192
  139SAPE  H15Y15207   1.468   4.753   8.463 -0.9396 -1.5513 -1.5993
  139SAPE  C31615208   1.442   4.612   8.611 -0.1659  0.4852  0.3917
  139SAPE  H16X15209   1.477   4.511   8.640 -1.8681 -0.1707  0.2644
  139SAPE  H16Y15210   1.436   4.688   8.691  1.4488  1.5323 -0.4199
  139SAPE  C31715211   1.303   4.578   8.555 -0.2626 -0.2233  0.0263
  139SAPE  H17X15212   1.313   4.507   8.470 -1.6788  1.1512 -1.3442
  139SAPE  H17Y15213   1.245   4.666   8.520 -1.4042 -1.6864 -2.0161
  139SAPE  C31815214   1.220   4.489   8.652  0.3592  0.3523 -0.0172
  139SAPE  H18X15215   1.128   4.451   8.604 -0.7295  2.3024  0.4177
  139SAPE  H18Y15216   1.191   4.560   8.734 -0.2788  1.1900 -0.9430
  139SAPE  H18Z15217   1.275   4.398   8.683 -2.7293 -2.2159 -1.5391
  140SAPE     N15218   3.214   1.368  11.101  0.5912  0.3446  0.3207
  140SAPE   HN115219   3.175   1.285  11.151  2.7152 -0.3756  0.8722
  140SAPE   HN215220   3.134   1.423  11.063 -1.2731 -2.2519  0.2083
  140SAPE   HN315221   3.271   1.352  11.015 -0.3279  4.4870 -1.3090
  140SAPE   C1215222   3.285   1.456  11.194  0.4684 -0.6097 -0.2206
  140SAPE  H12A15223   3.389   1.417  11.208  1.5283  1.7643 -0.9784
  140SAPE  H12B15224   3.231   1.440  11.290  0.5915 -3.1123 -0.5163
  140SAPE   C1115225   3.284   1.602  11.147  0.7883  0.9082  0.7786
  140SAPE  H11A15226   3.356   1.654  11.214  0.9079 -0.0463  1.4141
  140SAPE  H11B15227   3.181   1.643  11.150  0.1838 -0.4070 -0.4951
  140SAPE     P15228   3.373   1.736  10.955 -0.1323  0.1242  0.3202
  140SAPE   O1315229   3.257   1.828  10.950  0.0997 -0.0058  1.5789
  140SAPE   O1415230   3.493   1.786  11.030  0.7307  0.7778 -0.8143
  140SAPE   O1215231   3.328   1.599  11.009 -0.0848 -0.4183 -0.2160
  140SAPE   O1115232   3.428   1.713  10.815  0.2082 -0.0313 -0.1272
  140SAPE    C115233   3.538   1.641  10.766  0.5558  0.2074  0.2897
  140SAPE    HA15234   3.630   1.704  10.764  1.3327 -0.8765  1.0150
  140SAPE    HB15235   3.560   1.556  10.834  0.1563  0.8094  1.2045
  140SAPE    C215236   3.519   1.616  10.614 -0.9369  0.3530 -0.5026
  140SAPE    HS15237   3.606   1.557  10.580  1.2799  2.8101  0.5847
  140SAPE   O2115238   3.502   1.738  10.545 -0.4967 -0.1408 -0.4444
  140SAPE   C2115239   3.613   1.789  10.496  0.3653 -0.4541 -0.6148
  140SAPE   O2215240   3.725   1.747  10.517 -0.3586 -0.1457  0.6039
  140SAPE   C2215241   3.579   1.901  10.404 -0.7758 -0.6550  0.7880
  140SAPE   H2R15242   3.469   1.910  10.417 -1.1163 -2.7410 -0.2417
  140SAPE   H2S15243   3.628   1.990  10.448  0.2349 -1.5971  1.6232
  140SAPE    C315244   3.404   1.524  10.576  0.4536 -0.0971 -0.2527
  140SAPE    HX15245   3.306   1.574  10.565  0.8358  0.0581 -4.2082
  140SAPE    HY15246   3.391   1.447  10.656 -2.3219 -0.2484 -0.7474
  140SAPE   O3115247   3.430   1.461  10.451 -0.7072  0.2138 -0.5932
  140SAPE   C3115248   3.410   1.326  10.430  0.0094 -1.0299  0.1733
  140SAPE   O3215249   3.353   1.254  10.503  0.3826  0.0214 -0.2483
  140SAPE   C3215250   3.481   1.292  10.293  0.0908 -0.0448 -0.3284
  140SAPE   H2X15251   3.467   1.185  10.268 -1.9275 -0.1459  1.0445
  140SAPE   H2Y15252   3.591   1.307  10.301  0.3183 -1.9215  0.6385
  140SAPE   C2315253   3.627   1.862  10.261  0.2107 -0.2854  0.7206
  140SAPE   H3R15254   3.562   1.919  10.191  2.4224  2.3752  0.6519
  140SAPE   H3S15255   3.599   1.755  10.253 -0.2380 -0.1530  0.5009
  140SAPE   C2415256   3.765   1.885  10.218 -0.0944  0.7931  1.0227
  140SAPE   H4R15257   3.826   1.850  10.305  0.2816 -0.6054  0.2246
  140SAPE   H4S15258   3.780   1.992  10.195 -0.8386  0.6051 -0.4500
  140SAPE   C2515259   3.806   1.794  10.105  0.0327  0.7139 -0.2360
  140SAPE   H5R15260   3.850   1.697  10.136 -0.1939  0.3994 -0.8679
  140SAPE   C2615261   3.784   1.823   9.973 -0.7766  0.2567 -0.3648
  140SAPE   H6R15262   3.807   1.746   9.897 -0.1907 -1.7150  1.7091
  140SAPE   C2715263   3.723   1.949   9.924 -0.0883 -1.0301  0.6362
  140SAPE   H7R15264   3.708   2.025  10.004 -1.4524 -0.0416 -0.5150
  140SAPE   H7S15265   3.627   1.926   9.875 -0.1886  0.7488 -0.0880
  140SAPE   C2815266   3.826   2.006   9.828  0.6980  0.3971 -0.5145
  140SAPE   H8R15267   3.927   2.028   9.863  0.1207  1.6051  0.4725
  140SAPE   C2915268   3.815   2.011   9.697 -0.5904  0.2360 -0.4958
  140SAPE   H9R15269   3.898   2.053   9.638  0.9495 -0.0451  1.3925
  140SAPE  C21015270   3.698   1.958   9.618 -0.3827  0.3379  0.6208
  140SAPE  H10R15271   3.660   2.041   9.554  0.6801  0.0183 -0.4695
  140SAPE  H10S15272   3.614   1.911   9.674  0.2447  0.1648  1.4226
  140SAPE  C21115273   3.769   1.846   9.531  0.8671  0.5554 -0.3265
  140SAPE  H11R15274   3.784   1.755   9.592 -4.4743  1.0458  2.2904
  140SAPE  C21215275   3.819   1.855   9.407 -0.4008  0.4107 -0.0313
  140SAPE  H12R15276   3.853   1.763   9.357  0.8208  1.5832 -1.4246
  140SAPE  C21315277   3.824   1.980   9.322  0.2451 -0.2649  0.4862
  140SAPE  H13R15278   3.852   2.066   9.386 -1.5348 -0.3303  1.4081
  140SAPE  H13S15279   3.723   2.001   9.281  0.3277  2.2820  1.4219
  140SAPE  C21415280   3.921   1.964   9.212  0.0300 -0.9347  0.6359
  140SAPE  H14R15281   4.021   2.002   9.240  0.7864 -1.0567 -1.7323
  140SAPE  C21515282   3.894   1.928   9.089  0.6335 -0.5218  0.1721
  140SAPE  H15R15283   3.983   1.917   9.026 -0.1238  1.2138 -1.3077
  140SAPE  C21615284   3.757   1.898   9.033  0.6819 -0.9943  0.0696
  140SAPE  H16R15285   3.678   1.898   9.111 -1.0289 -2.2547 -1.5715
  140SAPE  H16S15286   3.752   1.802   8.977 -1.2851  0.5267 -2.6008
  140SAPE  C21715287   3.697   2.003   8.935 -0.1467  0.0296  0.2206
  140SAPE  H17R15288   3.730   2.101   8.974 -2.6182  2.0702 -2.3963
  140SAPE  H17S15289   3.586   2.002   8.930 -0.1199 -0.4459 -0.4238
  140SAPE  C21815290   3.751   1.999   8.788  0.6742  0.2154  0.4934
  140SAPE  H18R15291   3.754   1.895   8.750  0.4156  0.6178 -0.6690
  140SAPE  H18S15292   3.862   2.010   8.789  0.6242  0.8144 -0.1606
  140SAPE  C21915293   3.691   2.103   8.686 -0.1794  0.3153 -0.4127
  140SAPE  H19R15294   3.700   2.206   8.728  0.4964  0.2089 -0.2853
  140SAPE  H19S15295   3.587   2.070   8.670 -0.7407 -0.2404  3.4835
  140SAPE  C22015296   3.754   2.108   8.546  1.2854  0.4625  0.1084
  140SAPE  H20R15297   3.724   2.017   8.490 -1.8040  1.3495  0.1512
  140SAPE  H20S15298   3.865   2.112   8.541  1.2534  0.2954 -0.9916
  140SAPE  H20T15299   3.716   2.189   8.480  2.3994 -1.2108 -2.7527
  140SAPE   C3315300   3.431   1.385  10.173  0.0434  0.1227  0.4298
  140SAPE   H3X15301   3.406   1.487  10.209  0.6986  1.1922 -1.9439
  140SAPE   H3Y15302   3.336   1.345  10.131  1.9085 -0.7015 -3.3900
  140SAPE   C3415303   3.544   1.403  10.067  0.5239  0.1656 -0.3569
  140SAPE   H4X15304   3.547   1.303  10.019 -2.1815 -0.7667  1.2382
  140SAPE   H4Y15305   3.640   1.415  10.120 -0.8576  1.7636  1.9534
  140SAPE   C3515306   3.522   1.523   9.977 -1.0781 -0.1156 -0.3189
  140SAPE   H5X15307   3.578   1.610  10.018  1.0829 -1.9271  0.7703
  140SAPE   H5Y15308   3.412   1.540   9.981 -1.0903 -0.4349  2.0251
  140SAPE   C3615309   3.552   1.514   9.830  0.2837 -0.7619 -0.0914
  140SAPE   H6X15310   3.659   1.492   9.810  0.0311 -1.4413 -0.7342
  140SAPE   H6Y15311   3.523   1.606   9.774  0.4413 -0.6499  0.0102
  140SAPE   C3715312   3.470   1.405   9.766  0.3346  0.7538  0.3041
  140SAPE   H7X15313   3.364   1.436   9.754  0.5609  1.4184  0.0015
  140SAPE   H7Y15314   3.479   1.316   9.833  0.5398  0.5270 -0.0174
  140SAPE   C3815315   3.506   1.381   9.609  0.4351 -0.1846  0.2385
  140SAPE   H8X15316   3.443   1.301   9.565  1.7599 -0.6487 -0.8596
  140SAPE   H8Y15317   3.612   1.348   9.604  0.9002  0.6815  2.6783
  140SAPE   C3915318   3.491   1.501   9.514 -0.0498  0.5765 -0.7207
  140SAPE   H9X15319   3.573   1.572   9.537 -1.9816  2.9458 -0.7669
  140SAPE   H9Y15320   3.394   1.550   9.538 -0.5131 -0.4063 -0.4923
  140SAPE  C31015321   3.492   1.461   9.367 -0.7148  0.4350  0.2379
  140SAPE  H10X15322   3.413   1.383   9.354 -1.7380  1.4068  0.4433
  140SAPE  H10Y15323   3.589   1.410   9.350 -2.7805 -4.2258  0.7849
  140SAPE  C31115324   3.468   1.589   9.267  0.3260  1.0121 -0.5058
  140SAPE  H11X15325   3.546   1.667   9.281  0.8379  0.3663  0.2958
  140SAPE  H11Y15326   3.377   1.632   9.315 -0.3883  0.4811 -1.3517
  140SAPE  C31215327   3.435   1.565   9.122 -0.3036  0.3634  0.0961
  140SAPE  H12X15328   3.371   1.474   9.112  0.0677  0.2752 -1.9219
  140SAPE  H12Y15329   3.525   1.543   9.061  0.6223  2.6781  0.5373
  140SAPE  C31315330   3.375   1.690   9.049  0.1404  0.5377 -0.0578
  140SAPE  H13X15331   3.450   1.769   9.070  2.3230 -1.9205  2.3265
  140SAPE  H13Y15332   3.278   1.718   9.096 -0.4180  1.5786 -1.7600
  140SAPE  C31415333   3.367   1.676   8.901 -0.0198  0.0884  0.4357
  140SAPE  H14X15334   3.290   1.598   8.879  1.3351 -1.0202 -0.6440
  140SAPE  H14Y15335   3.467   1.631   8.879  0.0180 -0.3409  1.4262
  140SAPE  C31515336   3.347   1.804   8.822 -0.1545  0.3540  0.6647
  140SAPE  H15X15337   3.416   1.878   8.867  2.1451 -1.5221  0.3890
  140SAPE  H15Y15338   3.243   1.839   8.841 -1.1021 -2.0866  0.3803
  140SAPE  C31615339   3.359   1.787   8.671 -0.8060  0.5816  0.2694
  140SAPE  H16X15340   3.342   1.889   8.632  2.3567  1.4699  0.9619
  140SAPE  H16Y15341   3.273   1.725   8.635  1.0226 -2.2890  0.4975
  140SAPE  C31715342   3.499   1.744   8.617  0.6280  0.1931  0.1043
  140SAPE  H17X15343   3.539   1.653   8.667  0.3062 -0.1148 -0.1937
  140SAPE  H17Y15344   3.573   1.823   8.644  1.4764 -0.0743 -1.3617
  140SAPE  C31815345   3.497   1.726   8.462 -0.0509 -0.2486 -0.3057
  140SAPE  H18X15346   3.516   1.619   8.437  1.8454 -0.7709  2.9065
  140SAPE  H18Y15347   3.571   1.794   8.414 -1.1986  1.6006  0.4353
  140SAPE  H18Z15348   3.393   1.743   8.424 -0.3273 -2.0075 -0.3967
  141SAPE     N15349   4.211   2.840  11.191  0.0100 -0.0866  0.4489
  141SAPE   HN115350   4.157   2.923  11.223 -1.5586 -1.4248  1.4200
  141SAPE   HN215351   4.159   2.750  11.195  1.2014 -1.0839 -3.2208
  141SAPE   HN315352   4.296   2.835  11.251 -0.2953 -0.6275  0.8499
  141SAPE   C1215353   4.222   2.864  11.038  0.2051  0.2104  0.3542
  141SAPE  H12A15354   4.307   2.798  11.009 -1.1418 -0.8022 -1.4820
  141SAPE  H12B15355   4.265   2.965  11.022  1.5385 -0.4181 -0.1910
  141SAPE   C1115356   4.091   2.845  10.953 -0.3666  0.4879 -0.0836
  141SAPE  H11A15357   4.098   2.878  10.847 -1.5649  2.7082  0.4638
  141SAPE  H11B15358   4.009   2.909  10.992 -2.7871 -1.6719 -1.3930
  141SAPE     P15359   3.927   2.658  10.877  0.0218  0.0078  0.5159
  141SAPE   O1315360   3.835   2.569  10.959 -0.3406  0.1120 -0.0443
  141SAPE   O1415361   3.862   2.771  10.807  0.1258 -0.1215  0.0786
  141SAPE   O1215362   4.047   2.709  10.959  0.1209 -0.2835 -0.3878
  141SAPE   O1115363   3.988   2.566  10.763  0.1067 -0.0226 -0.3178
  141SAPE    C115364   4.109   2.490  10.773  0.2091 -0.1240 -0.8700
  141SAPE    HA15365   4.132   2.450  10.874  0.9015 -4.0291 -2.4242
  141SAPE    HB15366   4.107   2.399  10.710 -0.3594 -1.9766  1.7017
  141SAPE    C215367   4.229   2.575  10.723 -0.3777 -0.1905  0.0388
  141SAPE    HS15368   4.242   2.658  10.797  1.3345  0.4199 -0.8788
  141SAPE   O2115369   4.196   2.626  10.597 -0.2525 -0.3221  0.7516
  141SAPE   C2115370   4.272   2.720  10.551 -0.2394  0.4727  0.4076
  141SAPE   O2215371   4.372   2.764  10.601  0.1595  0.4611  0.6395
  141SAPE   C2215372   4.223   2.751  10.413 -0.7076 -0.0742 -0.2528
  141SAPE   H2R15373   4.122   2.708  10.393 -0.9463 -0.0073  0.7585
  141SAPE   H2S15374   4.221   2.862  10.414 -0.6510 -0.0557  1.7870
  141SAPE    C315375   4.374   2.500  10.721  0.8610  0.4646  0.1186
  141SAPE    HX15376   4.387   2.453  10.820  1.9722  2.1636  0.8142
  141SAPE    HY15377   4.453   2.578  10.713 -0.1104  1.6272  1.3190
  141SAPE   O3115378   4.402   2.415  10.602  0.2265 -0.3239 -0.5049
  141SAPE   C3115379   4.365   2.297  10.610 -0.0964  0.1146  0.6598
  141SAPE   O3215380   4.304   2.244  10.701 -0.0780 -0.6578  0.1234
  141SAPE   C3215381   4.416   2.224  10.480 -0.2417 -0.1659 -0.6004
  141SAPE   H2X15382   4.511   2.179  10.517  0.2964  1.0461 -0.4473
  141SAPE   H2Y15383   4.435   2.309  10.411  0.3987  1.1997  1.1936
  141SAPE   C2315384   4.317   2.696  10.309 -0.3385  0.2973 -0.0358
  141SAPE   H3R15385   4.298   2.587  10.319  1.9013  0.0093  2.0332
  141SAPE   H3S15386   4.424   2.715  10.334 -0.7905  0.0867  2.2901
  141SAPE   C2415387   4.264   2.760  10.183  0.2031  1.0466  0.8467
  141SAPE   H4R15388   4.317   2.857  10.194  1.8090  0.0980  2.0615
  141SAPE   H4S15389   4.155   2.776  10.185  0.3089  2.0069 -0.0845
  141SAPE   C2515390   4.326   2.699  10.063 -0.6408 -0.1636  0.6744
  141SAPE   H5R15391   4.354   2.594  10.082  1.6044  0.3303  0.4043
  141SAPE   C2615392   4.329   2.743   9.938  0.2051 -0.2339 -0.0951
  141SAPE   H6R15393   4.388   2.687   9.863  2.5686  1.2838  0.5192
  141SAPE   C2715394   4.283   2.878   9.892 -0.5312 -0.1857 -0.5621
  141SAPE   H7R15395   4.228   2.919   9.979  0.3108  0.2934 -0.2374
  141SAPE   H7S15396   4.214   2.862   9.807  0.2614  3.2137 -2.0040
  141SAPE   C2815397   4.389   2.980   9.864 -0.0729  0.4093 -0.0037
  141SAPE   H8R15398   4.418   3.042   9.950 -0.3867 -0.6019  0.8372
  141SAPE   C2915399   4.442   2.999   9.740  0.2674  0.1724 -0.7817
  141SAPE   H9R15400   4.517   3.079   9.735 -0.2681  1.0266  2.4905
  141SAPE  C21015401   4.408   2.926   9.616 -0.5258  0.1535  0.0525
  141SAPE  H10R15402   4.452   2.988   9.534 -0.5281  0.1172  0.0235
  141SAPE  H10S15403   4.298   2.922   9.610 -0.6185  0.6982  1.1507
  141SAPE  C21115404   4.468   2.787   9.608  0.9646  0.0545 -0.5203
  141SAPE  H11R15405   4.540   2.747   9.681 -0.9565 -1.1022  0.8197
  141SAPE  C21215406   4.458   2.714   9.505  1.0210  0.0972  0.2909
  141SAPE  H12R15407   4.512   2.618   9.496 -0.7154 -0.8401 -0.6993
  141SAPE  C21315408   4.383   2.748   9.376  0.0953 -0.4644  0.2121
  141SAPE  H13R15409   4.297   2.810   9.407 -0.4465  0.0960 -2.2159
  141SAPE  H13S15410   4.346   2.656   9.326  0.8425 -0.7799  0.2225
  141SAPE  C21415411   4.479   2.815   9.284 -0.5365 -0.0799 -0.2726
  141SAPE  H14R15412   4.584   2.823   9.316 -0.8489 -0.3169  0.8641
  141SAPE  C21515413   4.466   2.847   9.159  0.3313  0.1382  0.7587
  141SAPE  H15R15414   4.549   2.893   9.102 -0.4295  0.1467 -0.3819
  141SAPE  C21615415   4.348   2.824   9.069 -0.3028  0.1931  0.0821
  141SAPE  H16R15416   4.298   2.735   9.112  0.6047 -0.2327  0.2884
  141SAPE  H16S15417   4.387   2.791   8.970 -1.4797  0.1154 -0.3692
  141SAPE  C21715418   4.259   2.949   9.050 -0.2134 -0.2764 -0.2978
  141SAPE  H17R15419   4.231   2.985   9.151 -0.2069  0.1842 -0.4577
  141SAPE  H17S15420   4.167   2.907   9.005  0.4673 -0.7994 -1.2388
  141SAPE  C21815421   4.316   3.060   8.964 -0.2055 -0.1577 -0.4852
  141SAPE  H18R15422   4.392   3.112   9.026 -1.1179 -0.4869  0.9770
  141SAPE  H18S15423   4.234   3.133   8.945  0.0511 -0.1614 -1.6626
  141SAPE  C21915424   4.384   3.030   8.821  0.2913 -0.2315 -0.2180
  141SAPE  H19R15425   4.309   2.973   8.762  0.8314  0.7873 -1.9758
  141SAPE  H19S15426   4.477   2.970   8.835  0.3246  0.4193  2.9352
  141SAPE  C22015427   4.421   3.160   8.746 -0.5533  0.6443 -0.2725
  141SAPE  H20R15428   4.490   3.214   8.814 -1.8708  3.1766 -0.8409
  141SAPE  H20S15429   4.328   3.220   8.735 -2.1170 -1.5621  0.1895
  141SAPE  H20T15430   4.469   3.129   8.651  1.6570  0.1940  0.9120
  141SAPE   C3315431   4.318   2.114  10.428  0.6708 -0.2725 -0.8314
  141SAPE   H3X15432   4.226   2.167  10.399  1.3735  1.3034 -0.2671
  141SAPE   H3Y15433   4.286   2.034  10.498 -1.1265  1.7212  0.7457
  141SAPE   C3415434   4.385   2.039  10.310  1.0768  0.8048 -0.3829
  141SAPE   H4X15435   4.465   1.972  10.349 -1.5856 -1.3545  1.7293
  141SAPE   H4Y15436   4.416   2.112  10.232  0.0218  3.3675  1.4588
  141SAPE   C3515437   4.278   1.938  10.246  0.1196 -0.5812 -0.1236
  141SAPE   H5X15438   4.182   1.994  10.241 -0.0273 -0.5430  2.0292
  141SAPE   H5Y15439   4.262   1.851  10.313  0.5205 -0.6605 -0.1327
  141SAPE   C3615440   4.304   1.879  10.106  0.3096  0.1202  0.1697
  141SAPE   H6X15441   4.375   1.794  10.096 -0.7387 -0.7708  0.1693
  141SAPE   H6Y15442   4.351   1.961  10.047 -0.6617  1.5055  1.2729
  141SAPE   C3715443   4.165   1.832  10.052 -0.1973  0.7606  0.1494
  141SAPE   H7X15444   4.098   1.920  10.055 -0.6427  0.4107  0.4832
  141SAPE   H7Y15445   4.124   1.758  10.124 -0.8166  0.9041 -0.0526
  141SAPE   C3815446   4.159   1.757   9.914  0.0855  0.5397  0.3218
  141SAPE   H8X15447   4.050   1.744   9.898  0.2019  0.5006 -0.5100
  141SAPE   H8Y15448   4.213   1.660   9.911  3.0617  2.1157 -1.4069
  141SAPE   C3915449   4.224   1.836   9.798 -0.2857  0.0353 -0.3954
  141SAPE   H9X15450   4.335   1.833   9.805 -0.1973 -1.8962 -1.8431
  141SAPE   H9Y15451   4.198   1.944   9.803 -2.1313 -0.4159  0.6420
  141SAPE  C31015452   4.183   1.786   9.657 -0.5358  0.3900 -0.0870
  141SAPE  H10X15453   4.072   1.788   9.647 -0.6056  4.0587  0.0038
  141SAPE  H10Y15454   4.212   1.680   9.642 -2.7819 -0.2476 -0.3030
  141SAPE  C31115455   4.243   1.880   9.553  0.9028 -0.1665  0.6899
  141SAPE  H11X15456   4.349   1.905   9.577  2.0122 -3.1550 -0.5868
  141SAPE  H11Y15457   4.174   1.967   9.556  0.8609 -0.1306 -0.7442
  141SAPE  C31215458   4.249   1.818   9.412  0.6687 -0.3015 -0.1593
  141SAPE  H12X15459   4.148   1.780   9.386  0.1741  1.2658 -0.6555
  141SAPE  H12Y15460   4.314   1.727   9.411 -0.3446 -1.0420 -0.3732
  141SAPE  C31315461   4.293   1.916   9.310  0.0624  0.5157 -0.3226
  141SAPE  H13X15462   4.391   1.960   9.337 -0.4229  2.1494 -1.0671
  141SAPE  H13Y15463   4.231   2.008   9.314  1.0013  1.2122 -1.2040
  141SAPE  C31415464   4.307   1.862   9.170  0.2770  0.1245 -0.5245
  141SAPE  H14X15465   4.208   1.822   9.139 -0.1277  1.6779 -1.2781
  141SAPE  H14Y15466   4.378   1.776   9.170  2.4440  1.8499 -0.4745
  141SAPE  C31515467   4.344   1.977   9.075 -0.7245 -0.1333 -0.4309
  141SAPE  H15X15468   4.452   2.003   9.071 -0.5873 -0.3009  1.3843
  141SAPE  H15Y15469   4.289   2.071   9.101 -1.7943 -1.1663  1.2556
  141SAPE  C31615470   4.308   1.948   8.931  0.4490  0.2382 -0.2462
  141SAPE  H16X15471   4.200   1.925   8.927 -0.4702  4.0281 -1.1357
  141SAPE  H16Y15472   4.363   1.855   8.903 -0.7005 -0.9067  1.1828
  141SAPE  C31715473   4.331   2.051   8.821  0.2442  0.2800 -0.4741
  141SAPE  H17X15474   4.253   2.127   8.840 -2.2400 -1.8562 -1.5554
  141SAPE  H17Y15475   4.302   2.004   8.724  0.6992 -0.4242 -0.2749
  141SAPE  C31815476   4.471   2.108   8.820 -0.0140  0.5031 -0.4010
  141SAPE  H18X15477   4.499   2.180   8.899 -1.1656 -0.3975  0.8790
  141SAPE  H18Y15478   4.492   2.162   8.725 -1.1513  2.7913  0.5783
  141SAPE  H18Z15479   4.541   2.022   8.829  1.3503  1.6880  0.8703
  142SAPE     N15480   5.631   2.774  11.298 -0.6463 -0.1568 -0.3801
  142SAPE   HN115481   5.529   2.765  11.314 -0.8925 -1.6696 -2.3488
  142SAPE   HN215482   5.681   2.721  11.373 -0.6440 -0.1808 -0.3987
  142SAPE   HN315483   5.664   2.873  11.300  0.7809 -0.6088  1.5906
  142SAPE   C1215484   5.655   2.717  11.159  0.0675 -1.0983 -0.2844
  142SAPE  H12A15485   5.608   2.617  11.152 -0.7247 -0.8238  0.7694
  142SAPE  H12B15486   5.765   2.708  11.147 -0.0738 -0.9216 -1.9455
  142SAPE   C1115487   5.595   2.819  11.055  0.5556 -0.1164 -0.1608
  142SAPE  H11A15488   5.487   2.837  11.073  0.4340  1.1782 -1.9043
  142SAPE  H11B15489   5.599   2.786  10.949 -0.0139  2.2064 -0.9838
  142SAPE     P15490   5.798   2.975  10.991  0.2721 -0.5967 -0.0379
  142SAPE   O1315491   5.861   3.111  11.015  0.8071  0.2477  1.0112
  142SAPE   O1415492   5.878   2.856  11.006  0.2888 -0.4562 -0.0711
  142SAPE   O1215493   5.657   2.952  11.071 -0.2856 -0.3083 -0.1751
  142SAPE   O1115494   5.733   2.983  10.849  0.3317  0.1118 -0.3537
  142SAPE    C115495   5.663   3.104  10.806 -0.2570 -0.0883 -0.8642
  142SAPE    HA15496   5.598   3.155  10.881 -0.9972 -1.3358 -0.6227
  142SAPE    HB15497   5.748   3.171  10.780  1.7491 -1.4186  1.7305
  142SAPE    C215498   5.586   3.066  10.668  0.1524 -0.1616  0.3147
  142SAPE    HS15499   5.497   3.006  10.697  1.1241 -1.5303  0.6133
  142SAPE   O2115500   5.679   3.001  10.580 -1.0691 -0.6702  0.1397
  142SAPE   C2115501   5.645   2.883  10.530 -0.8425  0.2884  0.2230
  142SAPE   O2215502   5.545   2.823  10.559 -0.3748 -0.1981 -0.3254
  142SAPE   C2215503   5.746   2.818  10.434  0.4512 -0.1290  0.3273
  142SAPE   H2R15504   5.825   2.891  10.405  2.1065 -2.3587 -1.0938
  142SAPE   H2S15505   5.811   2.741  10.480  0.4850 -0.6428 -0.5561
  142SAPE    C315506   5.542   3.196  10.588 -0.0064 -0.5590  0.0631
  142SAPE    HX15507   5.632   3.254  10.561 -0.1379  0.8000  2.2351
  142SAPE    HY15508   5.483   3.258  10.659 -0.5561 -1.7504  0.6803
  142SAPE   O3115509   5.461   3.163  10.470 -0.4125  0.6743 -0.3217
  142SAPE   C3115510   5.419   3.266  10.395 -0.2452 -1.0003 -0.3184
  142SAPE   O3215511   5.417   3.385  10.429 -0.2182  0.2559  0.5233
  142SAPE   C3215512   5.364   3.205  10.268  0.4569 -0.6062 -0.2713
  142SAPE   H2X15513   5.291   3.136  10.315  0.3403 -0.2761  0.0426
  142SAPE   H2Y15514   5.445   3.148  10.217  1.1739  0.1350  0.0144
  142SAPE   C2315515   5.678   2.746  10.316  0.4732 -0.0509  0.7150
  142SAPE   H3R15516   5.633   2.812  10.238  0.2766 -0.8729  0.1243
  142SAPE   H3S15517   5.589   2.692  10.354  0.2115 -0.5779 -0.5752
  142SAPE   C2415518   5.783   2.669  10.229 -0.3170  0.4359 -0.8506
  142SAPE   H4R15519   5.829   2.586  10.287 -0.6643  1.0877  0.3832
  142SAPE   H4S15520   5.863   2.740  10.201 -0.2031 -0.1825 -2.1985
  142SAPE   C2515521   5.724   2.603  10.103  0.2178 -0.1846  0.0054
  142SAPE   H5R15522   5.693   2.499  10.122 -0.3065  0.0004  0.1778
  142SAPE   C2615523   5.718   2.654   9.975  1.5249  0.7503 -0.4745
  142SAPE   H6R15524   5.656   2.598   9.903  2.5034 -0.8422 -0.1252
  142SAPE   C2715525   5.766   2.793   9.923  0.1539 -0.4938  0.0300
  142SAPE   H7R15526   5.798   2.788   9.817 -2.8571 -0.1014 -0.9925
  142SAPE   H7S15527   5.853   2.820   9.987  0.0955 -0.5266  0.1244
  142SAPE   C2815528   5.651   2.892   9.939  0.4914 -0.3577  0.1553
  142SAPE   H8R15529   5.566   2.877   9.870  0.7089 -1.9897  0.2124
  142SAPE   C2915530   5.645   3.008  10.012  0.4191 -0.0306  0.0026
  142SAPE   H9R15531   5.552   3.065  10.023 -0.1820 -0.7533 -1.1609
  142SAPE  C21015532   5.749   3.069  10.101 -0.1758  0.2947 -0.2065
  142SAPE  H10R15533   5.824   2.988  10.119 -1.6560 -1.7184 -2.4816
  142SAPE  H10S15534   5.708   3.092  10.201 -0.1061  0.9897 -0.3378
  142SAPE  C21115535   5.816   3.195  10.047 -0.3961 -0.0781 -0.7963
  142SAPE  H11R15536   5.798   3.288  10.104 -0.1241 -0.5247  0.0287
  142SAPE  C21215537   5.884   3.212   9.936  0.7626 -0.6661 -0.5766
  142SAPE  H12R15538   5.924   3.311   9.911 -0.4770 -0.2343 -0.8987
  142SAPE  C21315539   5.918   3.108   9.832 -0.6742  0.0998  0.3587
  142SAPE  H13R15540   5.836   3.112   9.756  0.1328 -1.4077 -0.6337
  142SAPE  H13S15541   5.922   3.008   9.879  1.3529 -0.3262 -0.6152
  142SAPE  C21415542   6.052   3.141   9.770 -0.5340  0.9771  0.3429
  142SAPE  H14R15543   6.123   3.183   9.843  1.7851  0.2606 -1.3925
  142SAPE  C21515544   6.091   3.133   9.645  0.2275 -0.2746 -0.5901
  142SAPE  H15R15545   6.187   3.181   9.621  0.7644 -1.0501 -0.0730
  142SAPE  C21615546   6.007   3.085   9.529 -0.4484 -0.0277 -0.1722
  142SAPE  H16R15547   5.901   3.070   9.558 -0.0400  0.3361  1.5885
  142SAPE  H16S15548   6.054   2.991   9.494 -1.0623 -0.5971  0.5135
  142SAPE  C21715549   6.002   3.186   9.409 -0.1640 -0.3269  0.6939
  142SAPE  H17R15550   6.093   3.250   9.404  0.4470 -0.8104  3.8617
  142SAPE  H17S15551   5.925   3.258   9.445  0.3510 -0.1354  1.4308
  142SAPE  C21815552   5.963   3.129   9.269  0.4288  0.0556 -0.6271
  142SAPE  H18R15553   5.867   3.081   9.298  1.9620 -1.3260  2.6963
  142SAPE  H18S15554   6.050   3.065   9.245  1.8237  1.5847  0.1584
  142SAPE  C21915555   5.931   3.234   9.171 -0.3380  0.0770  0.6237
  142SAPE  H19R15556   6.012   3.310   9.159 -1.2139  1.1686  1.3549
  142SAPE  H19S15557   5.846   3.297   9.206  1.1520  1.3868  2.0633
  142SAPE  C22015558   5.889   3.177   9.033 -0.3099  0.3275 -0.5451
  142SAPE  H20R15559   5.818   3.248   8.984  0.2370  0.1918 -1.5474
  142SAPE  H20S15560   5.836   3.079   9.036  1.8687 -0.9022  0.0265
  142SAPE  H20T15561   5.975   3.172   8.964  1.3454  0.7375  1.3776
  142SAPE   C3315562   5.271   3.296  10.183 -0.3076  0.0145  0.3856
  142SAPE   H3X15563   5.331   3.384  10.151  1.8295 -1.1850  0.8563
  142SAPE   H3Y15564   5.180   3.326  10.239 -0.7309 -1.4481  0.5158
  142SAPE   C3415565   5.216   3.225  10.061 -0.5939 -1.0411  0.6790
  142SAPE   H4X15566   5.305   3.184  10.009 -1.2890 -0.5190 -0.9621
  142SAPE   H4Y15567   5.167   3.303   9.999  2.7047  0.9347  0.3175
  142SAPE   C3515568   5.128   3.108  10.107  0.2266  0.5259  0.1296
  142SAPE   H5X15569   5.050   3.135  10.181  0.4414 -1.2739  1.0669
  142SAPE   H5Y15570   5.192   3.029  10.152 -3.1860 -2.6467 -0.1241
  142SAPE   C3615571   5.060   3.033   9.999  0.3607 -0.3824  0.2460
  142SAPE   H6X15572   4.981   3.094   9.951  0.1193  0.4611  1.6645
  142SAPE   H6Y15573   5.018   2.939  10.041 -3.2863  1.4919  1.2530
  142SAPE   C3715574   5.155   2.998   9.881  0.5279  0.1560 -0.8227
  142SAPE   H7X15575   5.255   2.968   9.920  0.1643 -1.4882 -1.0747
  142SAPE   H7Y15576   5.156   3.090   9.818 -2.5429  1.5409  0.9162
  142SAPE   C3815577   5.101   2.874   9.811 -0.2916 -0.5712  0.2737
  142SAPE   H8X15578   4.994   2.885   9.784 -0.0495 -0.2601 -0.5934
  142SAPE   H8Y15579   5.108   2.785   9.876  1.3135 -1.0590 -0.5157
  142SAPE   C3915580   5.179   2.835   9.683  0.1392  0.3717 -0.7912
  142SAPE   H9X15581   5.158   2.916   9.609 -3.2191  0.8479  0.4844
  142SAPE   H9Y15582   5.128   2.745   9.642 -2.0110  0.5743  1.2192
  142SAPE  C31015583   5.332   2.811   9.700  0.4315  0.3073 -0.9192
  142SAPE  H10X15584   5.342   2.734   9.779  1.3184 -0.5267 -1.8128
  142SAPE  H10Y15585   5.378   2.904   9.741 -0.9504  0.5247  0.2292
  142SAPE  C31115586   5.392   2.769   9.570 -0.6324 -0.3168 -0.1702
  142SAPE  H11X15587   5.359   2.827   9.480  0.3400 -1.8411 -1.5676
  142SAPE  H11Y15588   5.363   2.665   9.546  0.1347 -0.4784 -0.4300
  142SAPE  C31215589   5.543   2.766   9.574 -0.1401 -0.1420  0.3399
  142SAPE  H12X15590   5.574   2.695   9.653 -0.9679  0.4323  1.2063
  142SAPE  H12Y15591   5.578   2.867   9.604  1.2075 -1.1446  2.4521
  142SAPE  C31315592   5.607   2.714   9.444  1.0006 -0.1172  0.3047
  142SAPE  H13X15593   5.555   2.741   9.349  0.9487  0.5925  0.5364
  142SAPE  H13Y15594   5.597   2.605   9.462  1.0341  0.1019  1.6991
  142SAPE  C31415595   5.752   2.759   9.417  0.0970  0.2543  0.8113
  142SAPE  H14X15596   5.807   2.729   9.509  2.4111  2.0495  0.1424
  142SAPE  H14Y15597   5.765   2.869   9.411  0.9637  0.0726 -1.6883
  142SAPE  C31515598   5.814   2.713   9.286  0.7338  0.1063  0.1777
  142SAPE  H15X15599   5.783   2.607   9.270 -1.3151  0.4814  1.2712
  142SAPE  H15Y15600   5.924   2.707   9.289  0.8206  1.6461  0.8108
  142SAPE  C31615601   5.783   2.798   9.167  0.0383 -0.6947 -0.3809
  142SAPE  H16X15602   5.828   2.896   9.195  4.5767 -3.1833  2.3728
  142SAPE  H16Y15603   5.673   2.801   9.162 -0.1425 -1.8910  1.7258
  142SAPE  C31715604   5.853   2.748   9.037 -0.0766  0.1560 -0.1523
  142SAPE  H17X15605   5.814   2.814   8.956  2.9194 -0.5750 -2.3931
  142SAPE  H17Y15606   5.822   2.642   9.021  0.4797  0.0184 -0.3274
  142SAPE  C31815607   6.008   2.773   9.033 -0.4301  0.3837  0.7696
  142SAPE  H18X15608   6.019   2.883   9.044 -3.6819  1.0651 -1.3096
  142SAPE  H18Y15609   6.058   2.746   8.938 -1.3255 -1.0579  0.6739
  142SAPE  H18Z15610   6.048   2.709   9.115 -2.5145 -0.7019  1.0164
  143SAPE     N15611   6.675   1.283  11.044 -0.3170 -0.3856 -0.2362
  143SAPE   HN115612   6.745   1.317  11.113 -0.4940  2.7461 -1.4141
  143SAPE   HN215613   6.676   1.353  10.966 -0.7486  0.0528  0.1443
  143SAPE   HN315614   6.576   1.286  11.076 -0.2431  0.7094 -0.0691
  143SAPE   C1215615   6.692   1.145  10.994 -0.1893  0.1713  0.1583
  143SAPE  H12A15616   6.591   1.102  11.006 -1.0535  2.0273 -0.0990
  143SAPE  H12B15617   6.771   1.093  11.053  1.2284  1.1176 -0.8258
  143SAPE   C1115618   6.739   1.135  10.849 -0.5946 -0.9140  0.0443
  143SAPE  H11A15619   6.654   1.169  10.785  0.1867  1.9470  0.3513
  143SAPE  H11B15620   6.766   1.032  10.817 -0.8961 -0.0212 -3.6402
  143SAPE     P15621   7.004   1.169  10.840  0.2621 -0.1764  0.1357
  143SAPE   O1315622   7.092   1.251  10.755  0.0573 -0.5576 -0.2862
  143SAPE   O1415623   7.033   1.167  10.982 -0.3008 -0.0280 -0.0305
  143SAPE   O1215624   6.850   1.220  10.831 -0.6670 -0.0235  0.2048
  143SAPE   O1115625   7.000   1.020  10.801  0.0828  0.6914 -0.5528
  143SAPE    C115626   7.084   0.966  10.703 -0.2016  0.4454 -0.0034
  143SAPE    HA15627   7.182   1.017  10.694 -0.2576  0.2654 -2.1891
  143SAPE    HB15628   7.112   0.860  10.725  0.3332  0.3844 -0.9014
  143SAPE    C215629   7.018   0.971  10.563 -0.6862  0.4386 -0.4113
  143SAPE    HS15630   7.010   1.081  10.548  2.9590  1.0348  0.9457
  143SAPE   O2115631   6.879   0.904  10.567  0.2190 -0.3044  0.1920
  143SAPE   C2115632   6.774   0.983  10.536 -0.5620 -0.0152 -0.3770
  143SAPE   O2215633   6.782   1.096  10.498 -0.1571  0.4263 -0.1792
  143SAPE   C2215634   6.646   0.904  10.562  0.4789  0.0031 -0.1093
  143SAPE   H2R15635   6.656   0.800  10.524  0.6309 -0.5148  1.2962
  143SAPE   H2S15636   6.627   0.896  10.671 -1.3089 -3.1063 -0.5467
  143SAPE    C315637   7.104   0.912  10.451 -0.0527 -0.0843 -0.1511
  143SAPE    HX15638   7.120   0.806  10.482 -0.7686 -0.4609 -1.0023
  143SAPE    HY15639   7.205   0.958  10.454 -0.1296  0.0699  0.0560
  143SAPE   O3115640   7.038   0.928  10.321  0.2846  0.0256 -0.1031
  143SAPE   C3115641   7.067   1.042  10.258 -0.2479  0.6283 -0.0024
  143SAPE   O3215642   7.143   1.121  10.305 -0.1623 -0.8538  1.0080
  143SAPE   C3215643   6.982   1.053  10.138 -0.8232 -0.0192 -0.1860
  143SAPE   H2X15644   6.981   1.164  10.127 -0.2781  0.0257  0.1631
  143SAPE   H2Y15645   6.881   1.019  10.170 -0.1628  1.2096  3.8752
  143SAPE   C2315646   6.519   0.958  10.487  0.4582 -0.2287 -0.0109
  143SAPE   H3R15647   6.501   1.065  10.509 -1.2018 -0.2912 -0.8832
  143SAPE   H3S15648   6.436   0.897  10.528 -0.5649  1.2845  0.2761
  143SAPE   C2415649   6.514   0.949  10.328 -0.5640  0.6443 -0.3600
  143SAPE   H4R15650   6.573   1.033  10.286  1.3373 -0.8872 -0.8784
  143SAPE   H4S15651   6.414   0.980  10.289 -0.0474  3.5850  0.4102
  143SAPE   C2515652   6.552   0.806  10.279  0.9766 -0.2299 -0.1996
  143SAPE   H5R15653   6.553   0.725  10.354 -3.3482 -0.6267 -0.3641
  143SAPE   C2615654   6.607   0.784  10.159 -0.5626  0.1407  0.7533
  143SAPE   H6R15655   6.632   0.683  10.123 -1.2489  1.4328 -4.0569
  143SAPE   C2715656   6.650   0.876  10.048 -0.0632 -0.0815  0.5597
  143SAPE   H7R15657   6.758   0.861  10.027 -0.2984 -0.8766 -0.1255
  143SAPE   H7S15658   6.630   0.982  10.075  0.7415  0.5839 -1.3086
  143SAPE   C2815659   6.576   0.858   9.917 -0.3492 -0.8973  0.1523
  143SAPE   H8R15660   6.471   0.827   9.928 -0.6694  0.7992  2.4311
  143SAPE   C2915661   6.619   0.860   9.786  0.2945 -0.6283  0.1767
  143SAPE   H9R15662   6.545   0.858   9.705  0.5439  1.0856 -0.1399
  143SAPE  C21015663   6.756   0.886   9.730  0.0022 -0.2547  0.0820
  143SAPE  H10R15664   6.829   0.893   9.814  1.2484  0.3135 -1.0064
  143SAPE  H10S15665   6.756   0.988   9.688 -0.7070  0.7302  2.3447
  143SAPE  C21115666   6.802   0.784   9.631 -0.3160 -0.5973  0.3327
  143SAPE  H11R15667   6.847   0.690   9.669  2.4589  0.4917  0.0049
  143SAPE  C21215668   6.790   0.793   9.493 -0.3952  0.1270 -0.1449
  143SAPE  H12R15669   6.836   0.714   9.431 -1.0962  1.2582 -2.1992
  143SAPE  C21315670   6.720   0.904   9.415 -0.1318 -0.9513 -0.1954
  143SAPE  H13R15671   6.796   0.985   9.422 -2.5611  1.5494 -0.8620
  143SAPE  H13S15672   6.634   0.939   9.475 -0.0719 -0.1118 -0.5885
  143SAPE  C21415673   6.678   0.885   9.267  0.2022 -0.6914 -0.6199
  143SAPE  H14R15674   6.570   0.891   9.245 -0.2361 -1.3344  1.1849
  143SAPE  C21515675   6.760   0.851   9.166 -0.1781 -0.2048  0.1285
  143SAPE  H15R15676   6.720   0.839   9.064 -0.0992 -1.0634  0.1952
  143SAPE  C21615677   6.907   0.820   9.178  0.2456  0.3109 -0.0175
  143SAPE  H16R15678   6.931   0.736   9.108 -0.7181 -0.2876  0.3484
  143SAPE  H16S15679   6.931   0.794   9.283 -2.2249 -0.2854  0.4526
  143SAPE  C21715680   7.007   0.933   9.149  0.6220 -0.3055  0.5096
  143SAPE  H17R15681   7.105   0.909   9.196 -0.1391  0.1596  2.4230
  143SAPE  H17S15682   6.963   1.017   9.206 -1.0274 -0.9081  0.1718
  143SAPE  C21815683   7.019   0.975   9.001 -0.0760 -0.6454  0.3719
  143SAPE  H18R15684   6.917   0.997   8.965  0.1582  0.6689  0.4745
  143SAPE  H18S15685   7.070   0.894   8.943 -0.3691 -0.5388 -0.0395
  143SAPE  C21915686   7.110   1.095   8.989  0.8388 -0.7351  0.5359
  143SAPE  H19R15687   7.146   1.095   8.884  4.7583  0.8353  1.7091
  143SAPE  H19S15688   7.194   1.078   9.061 -0.2730  0.5389  2.2133
  143SAPE  C22015689   7.049   1.233   9.011 -0.0899  0.7725 -0.3122
  143SAPE  H20R15690   7.023   1.253   9.117  1.9076  2.6812 -0.1222
  143SAPE  H20S15691   6.953   1.248   8.957  0.8655  0.4834 -2.1483
  143SAPE  H20T15692   7.114   1.315   8.975  1.1384  1.1808  2.5274
  143SAPE   C3315693   7.038   0.980  10.014 -0.9149 -0.5765  0.5105
  143SAPE   H3X15694   6.974   0.899   9.974  0.6423 -1.4553 -0.2907
  143SAPE   H3Y15695   7.136   0.932  10.036  0.2891  1.0552 -1.0261
  143SAPE   C3415696   7.058   1.075   9.895  0.2505 -0.2262 -0.3450
  143SAPE   H4X15697   7.132   1.149   9.932 -1.0330 -0.6685  3.5951
  143SAPE   H4Y15698   6.966   1.127   9.863  0.5650 -0.0461 -0.9802
  143SAPE   C3515699   7.133   1.019   9.774  0.4598 -0.0292  0.3981
  143SAPE   H5X15700   7.088   0.928   9.730 -2.1376  2.0521 -1.5947
  143SAPE   H5Y15701   7.231   0.981   9.811  0.3728  0.0267  0.6917
  143SAPE   C3615702   7.153   1.124   9.658 -0.4276 -0.2338 -0.4367
  143SAPE   H6X15703   7.213   1.210   9.694 -0.4735  0.0613 -1.0475
  143SAPE   H6Y15704   7.065   1.168   9.607 -2.2555 -1.5866  1.3925
  143SAPE   C3715705   7.239   1.059   9.546  0.1014 -0.3677 -0.0666
  143SAPE   H7X15706   7.189   0.967   9.510  1.2706 -0.3403 -1.8513
  143SAPE   H7Y15707   7.331   1.030   9.602  1.1745 -0.6137 -1.8945
  143SAPE   C3815708   7.288   1.155   9.439 -0.6255 -0.1008  0.0795
  143SAPE   H8X15709   7.364   1.222   9.484  0.0641 -0.9915  0.2531
  143SAPE   H8Y15710   7.209   1.226   9.403  0.3523  1.5733  1.1052
  143SAPE   C3915711   7.355   1.072   9.324 -0.6932 -0.7515  0.7796
  143SAPE   H9X15712   7.266   1.030   9.272  1.3599 -2.1230 -1.9038
  143SAPE   H9Y15713   7.427   0.996   9.361 -0.6077 -2.1462 -1.9698
  143SAPE  C31015714   7.434   1.153   9.217 -0.2257 -0.1313  1.6437
  143SAPE  H10X15715   7.503   1.232   9.253  0.2790 -0.5638  1.6495
  143SAPE  H10Y15716   7.349   1.198   9.162 -0.6015 -2.5038  0.1051
  143SAPE  C31115717   7.508   1.061   9.117 -0.0503 -0.0783 -0.5981
  143SAPE  H11X15718   7.459   0.968   9.082  1.3697 -1.6828  1.4583
  143SAPE  H11Y15719   7.594   1.021   9.175 -0.3889 -2.8939 -1.8533
  143SAPE  C31215720   7.557   1.142   8.991  0.2497 -0.3484  0.4419
  143SAPE  H12X15721   7.623   1.228   9.014 -1.3709  0.9334  0.5380
  143SAPE  H12Y15722   7.463   1.176   8.942  0.4033 -0.7182 -0.1167
  143SAPE  C31315723   7.633   1.043   8.906 -0.5399 -0.1167  0.5616
  143SAPE  H13X15724   7.568   0.956   8.882 -3.2609  1.1702  2.6238
  143SAPE  H13Y15725   7.726   1.012   8.958 -0.0626 -0.8172 -0.6777
  143SAPE  C31415726   7.670   1.112   8.774 -0.3080  0.4106  0.7032
  143SAPE  H14X15727   7.706   1.213   8.805 -1.6999  0.8337  1.0034
  143SAPE  H14Y15728   7.573   1.127   8.723  0.8784  1.0150 -1.4706
  143SAPE  C31515729   7.759   1.036   8.675 -0.4526 -0.1996  0.1775
  143SAPE  H15X15730   7.707   0.946   8.634 -1.9276 -0.2439  2.0204
  143SAPE  H15Y15731   7.852   1.000   8.725 -0.2717  1.6178  1.2488
  143SAPE  C31615732   7.792   1.118   8.542  0.4214 -0.2754 -0.6293
  143SAPE  H16X15733   7.818   1.219   8.581 -1.1891 -0.8222  2.1341
  143SAPE  H16Y15734   7.699   1.140   8.486  1.1672 -0.1133 -1.8555
  143SAPE  C31715735   7.899   1.055   8.450  0.4766  0.1956 -0.1713
  143SAPE  H17X15736   7.914   1.136   8.375  1.8752  0.1115 -0.0066
  143SAPE  H17Y15737   7.849   0.968   8.404  0.8866  0.4546 -1.1366
  143SAPE  C31815738   8.035   1.014   8.513  0.1955  0.0489 -0.4713
  143SAPE  H18X15739   8.110   0.992   8.434  0.0059 -2.6539 -0.0188
  143SAPE  H18Y15740   8.017   0.925   8.578 -0.6665  0.4744 -0.1082
  143SAPE  H18Z15741   8.077   1.090   8.583 -0.5129 -0.7369  0.8651
  144SAPE     N15742   1.130   6.449  10.797 -0.2235 -0.3660 -0.3553
  144SAPE   HN115743   1.142   6.445  10.693  0.7810  2.2588 -0.4238
  144SAPE   HN215744   1.061   6.383  10.837 -1.9261  1.2413 -0.4770
  144SAPE   HN315745   1.110   6.542  10.838  0.8154 -0.8746  1.4139
  144SAPE   C1215746   1.266   6.428  10.859  0.0465 -0.1065  0.2035
  144SAPE  H12A15747   1.255   6.325  10.898 -1.1035 -0.9771 -2.1572
  144SAPE  H12B15748   1.281   6.499  10.943  0.0788  0.6226 -0.4074
  144SAPE   C1115749   1.370   6.441  10.742 -0.0702 -0.8115 -0.0985
  144SAPE  H11A15750   1.365   6.547  10.708 -0.4826 -1.2202 -1.3550
  144SAPE  H11B15751   1.343   6.385  10.650  0.4966  0.1217 -0.8431
  144SAPE     P15752   1.585   6.282  10.747  0.4148  0.3321  0.2163
  144SAPE   O1315753   1.723   6.311  10.802  0.4453  0.2289 -0.4556
  144SAPE   O1415754   1.521   6.149  10.771 -0.1896 -0.3555  0.4092
  144SAPE   O1215755   1.495   6.404  10.795  0.2637 -0.0373 -0.0953
  144SAPE   O1115756   1.592   6.300  10.591 -0.5993 -0.2473 -0.4518
  144SAPE    C115757   1.647   6.415  10.532  0.0812  0.0733  0.4413
  144SAPE    HA15758   1.604   6.508  10.575 -0.3134  0.4799 -0.7693
  144SAPE    HB15759   1.756   6.430  10.546  0.0598  1.5421 -0.6056
  144SAPE    C215760   1.609   6.422  10.383  0.2327 -0.1057 -0.0358
  144SAPE    HS15761   1.684   6.355  10.337  2.3404  0.8301  1.8581
  144SAPE   O2115762   1.608   6.559  10.329 -0.4607  0.5683  0.0148
  144SAPE   C2115763   1.736   6.601  10.325  0.4004 -0.3964  0.6344
  144SAPE   O2215764   1.830   6.527  10.334  0.4379 -0.0871  0.3281
  144SAPE   C2215765   1.737   6.748  10.301 -0.0013 -0.2297  0.0889
  144SAPE   H2R15766   1.729   6.769  10.192  0.2062  1.6865  0.3980
  144SAPE   H2S15767   1.650   6.803  10.344 -1.5103 -0.5632 -2.3213
  144SAPE    C315768   1.460   6.364  10.357  0.0120  0.5752 -0.0598
  144SAPE    HX15769   1.405   6.420  10.435  0.1377  0.9200 -0.2158
  144SAPE    HY15770   1.455   6.253  10.366 -0.3331  0.3451 -2.5450
  144SAPE   O3115771   1.411   6.400  10.227  0.1767 -0.1371  0.0521
  144SAPE   C3115772   1.488   6.342  10.131  0.2438 -0.5016 -0.1466
  144SAPE   O3215773   1.565   6.249  10.145  0.4355  0.0003 -0.0215
  144SAPE   C3215774   1.469   6.407  10.000  0.5841  0.3163  0.0130
  144SAPE   H2X15775   1.457   6.517  10.000 -0.2334  0.2416  0.9474
  144SAPE   H2Y15776   1.374   6.361   9.966  0.2116 -0.4155  1.9173
  144SAPE   C2315777   1.865   6.818  10.354  0.2322 -0.3898 -0.0212
  144SAPE   H3R15778   1.846   6.923  10.324  0.1189 -0.5359 -0.4672
  144SAPE   H3S15779   1.951   6.782  10.294  0.5074  0.2148  0.0108
  144SAPE   C2415780   1.889   6.792  10.502  0.1426 -0.1240 -0.3988
  144SAPE   H4R15781   1.992   6.824  10.527 -0.4415  0.4266  1.5365
  144SAPE   H4S15782   1.908   6.684  10.520  1.8153  0.3507  0.8593
  144SAPE   C2515783   1.782   6.846  10.587 -0.2798  0.5583 -0.5919
  144SAPE   H5R15784   1.685   6.793  10.582 -1.2158  2.1499 -0.2170
  144SAPE   C2615785   1.799   6.951  10.669 -0.2383  0.5204 -0.2459
  144SAPE   H6R15786   1.715   6.987  10.729 -0.4315  2.3780 -1.5496
  144SAPE   C2715787   1.932   7.028  10.683  0.0751  0.1117  0.4345
  144SAPE   H7R15788   1.952   7.056  10.577 -0.4128 -0.5542  0.1553
  144SAPE   H7S15789   2.013   6.968  10.728  1.0349  1.7853  1.0027
  144SAPE   C2815790   1.927   7.156  10.761  0.0061 -0.1644 -0.1258
  144SAPE   H8R15791   1.969   7.151  10.863 -1.1377 -1.9102  0.2962
  144SAPE   C2915792   1.888   7.276  10.717  0.3513  0.3389  0.1457
  144SAPE   H9R15793   1.892   7.364  10.783  0.2929 -0.1402  0.8065
  144SAPE  C21015794   1.839   7.295  10.574 -1.0457  0.1194  0.3335
  144SAPE  H10R15795   1.835   7.199  10.519  2.1457 -0.4769  0.9813
  144SAPE  H10S15796   1.916   7.358  10.526 -2.5229  1.4560 -0.3659
  144SAPE  C21115797   1.713   7.371  10.573 -0.7576 -0.7891  0.4234
  144SAPE  H11R15798   1.630   7.336  10.637 -1.0537  0.9035  1.0277
  144SAPE  C21215799   1.690   7.489  10.502 -0.0025  0.4248 -1.0377
  144SAPE  H12R15800   1.592   7.538  10.515  0.8854  1.9326  0.3071
  144SAPE  C21315801   1.788   7.558  10.411  0.0240 -0.2468  0.1982
  144SAPE  H13R15802   1.889   7.566  10.456  1.0126 -2.0285 -1.5303
  144SAPE  H13S15803   1.751   7.663  10.409  0.5462 -0.0026  1.8790
  144SAPE  C21415804   1.799   7.505  10.269 -0.1629 -0.5812  0.5044
  144SAPE  H14R15805   1.701   7.468  10.237  0.4240 -0.9960 -0.9096
  144SAPE  C21515806   1.905   7.489  10.186  0.9522 -0.6144 -0.1922
  144SAPE  H15R15807   1.888   7.453  10.084  1.3872  0.1435 -0.5370
  144SAPE  C21615808   2.051   7.526  10.209  0.1340  0.5908  0.6599
  144SAPE  H16R15809   2.102   7.438  10.255  2.1035  0.8506 -0.8870
  144SAPE  H16S15810   2.047   7.603  10.288 -0.4028  2.0469 -0.7368
  144SAPE  C21715811   2.128   7.577  10.086  0.4975  0.0998  0.2491
  144SAPE  H17R15812   2.151   7.495  10.014 -1.8778 -0.3937 -0.0339
  144SAPE  H17S15813   2.226   7.617  10.118  0.7072  1.0503 -1.4990
  144SAPE  C21815814   2.047   7.692  10.011  0.7297  0.6339  0.4860
  144SAPE  H18R15815   2.020   7.763  10.092  1.2601  1.1090  0.2563
  144SAPE  H18S15816   1.952   7.658   9.963 -0.0760  1.6821  1.3027
  144SAPE  C21915817   2.135   7.767   9.908  0.5373  0.1984  0.2876
  144SAPE  H19R15818   2.194   7.687   9.858  1.6439  0.3051  1.3951
  144SAPE  H19S15819   2.217   7.827   9.952  0.2856  2.3849 -1.9857
  144SAPE  C22015820   2.052   7.847   9.807 -0.0936  1.2608 -0.8490
  144SAPE  H20R15821   2.121   7.893   9.733 -0.1114  0.6333 -1.2592
  144SAPE  H20S15822   2.008   7.927   9.870 -1.3619  0.2241 -0.3861
  144SAPE  H20T15823   1.976   7.789   9.752 -0.0870  0.7545 -0.3337
  144SAPE   C3315824   1.585   6.378   9.912 -0.0550 -0.4051 -0.4488
  144SAPE   H3X15825   1.596   6.267   9.920  0.8221 -0.2584  5.5488
  144SAPE   H3Y15826   1.680   6.425   9.947 -1.2810  1.5355  0.4317
  144SAPE   C3415827   1.562   6.417   9.769  0.3058 -0.4420  0.0618
  144SAPE   H4X15828   1.555   6.528   9.761 -0.4834 -0.3191  2.0057
  144SAPE   H4Y15829   1.462   6.385   9.735  1.7446 -2.7502 -2.3597
  144SAPE   C3515830   1.678   6.372   9.669 -0.0326  0.4657  0.2828
  144SAPE   H5X15831   1.691   6.262   9.666  0.7853  0.5553  0.1705
  144SAPE   H5Y15832   1.767   6.426   9.710 -1.3645  1.5161  1.9206
  144SAPE   C3615833   1.649   6.419   9.532 -0.0307  0.5480 -0.3174
  144SAPE   H6X15834   1.593   6.515   9.535 -0.5861  0.2027  0.8668
  144SAPE   H6Y15835   1.572   6.353   9.487 -1.0249 -0.8596  3.0649
  144SAPE   C3715836   1.766   6.443   9.433  0.0368  0.0751 -0.1326
  144SAPE   H7X15837   1.816   6.355   9.387  2.5266  1.8533 -1.0573
  144SAPE   H7Y15838   1.847   6.481   9.499 -0.6980  2.3594 -0.4488
  144SAPE   C3815839   1.754   6.562   9.335 -0.3591 -0.4069 -0.6510
  144SAPE   H8X15840   1.847   6.590   9.281 -0.0463  0.5404  0.3456
  144SAPE   H8Y15841   1.701   6.651   9.375  0.1341 -0.4075  0.0275
  144SAPE   C3915842   1.671   6.528   9.213  0.7052 -0.6527  0.1453
  144SAPE   H9X15843   1.575   6.483   9.247  0.9462 -2.4373 -1.3917
  144SAPE   H9Y15844   1.718   6.447   9.154 -0.6301 -1.4003  0.0796
  144SAPE  C31015845   1.645   6.649   9.122  0.3776  0.3700 -0.5538
  144SAPE  H10X15846   1.578   6.719   9.177 -1.0342 -0.3231 -1.3311
  144SAPE  H10Y15847   1.590   6.611   9.033  0.0683 -0.5047 -0.0004
  144SAPE  C31115848   1.770   6.726   9.076 -0.1985 -0.4674 -0.7607
  144SAPE  H11X15849   1.834   6.652   9.025 -1.2016 -0.3526 -2.2787
  144SAPE  H11Y15850   1.807   6.779   9.166 -0.2691  0.5478 -1.3048
  144SAPE  C31215851   1.752   6.834   8.969 -0.2822 -0.4295 -0.0762
  144SAPE  H12X15852   1.831   6.912   8.977 -1.4132  1.0562 -2.1736
  144SAPE  H12Y15853   1.653   6.884   8.978 -0.5858 -1.1072  0.4013
  144SAPE  C31315854   1.780   6.774   8.828  0.7250  0.8002 -0.3490
  144SAPE  H13X15855   1.719   6.683   8.808 -3.4065  3.0697  0.7290
  144SAPE  H13Y15856   1.880   6.727   8.819 -0.0303 -0.9852  0.1633
  144SAPE  C31415857   1.755   6.862   8.702  0.1437 -0.4545 -0.1351
  144SAPE  H14X15858   1.827   6.946   8.705  0.1433 -0.4274 -0.8072
  144SAPE  H14Y15859   1.651   6.902   8.708  0.0658 -0.5656 -0.7227
  144SAPE  C31515860   1.774   6.793   8.570  0.0565  0.1248 -0.3514
  144SAPE  H15X15861   1.694   6.718   8.552 -0.7310  1.3237 -2.1896
  144SAPE  H15Y15862   1.879   6.757   8.579 -0.6691 -1.6924  1.9526
  144SAPE  C31615863   1.780   6.886   8.448  0.8145 -0.2523 -0.1352
  144SAPE  H16X15864   1.865   6.955   8.469 -1.1571  2.1702  0.4102
  144SAPE  H16Y15865   1.687   6.948   8.453 -0.8870 -2.7728  1.3812
  144SAPE  C31715866   1.778   6.810   8.320 -0.3568 -0.2264 -0.2494
  144SAPE  H17X15867   1.686   6.748   8.318 -1.9723  1.9474  2.1123
  144SAPE  H17Y15868   1.863   6.738   8.310  1.4412  1.8715 -0.8543
  144SAPE  C31815869   1.790   6.890   8.185 -0.6284  0.3859 -0.0760
  144SAPE  H18X15870   1.703   6.955   8.165 -0.3099  0.8507  0.0278
  144SAPE  H18Y15871   1.803   6.806   8.114 -2.0149 -0.2066  0.3390
  144SAPE  H18Z15872   1.882   6.952   8.182 -0.1183 -0.1269  2.4982
  145SAPE     N15873   5.587   1.498  11.069 -0.3113 -0.2724  0.6145
  145SAPE   HN115874   5.604   1.579  11.132  1.4392  0.4953 -0.7531
  145SAPE   HN215875   5.496   1.497  11.019  0.2485 -3.2685 -0.5245
  145SAPE   HN315876   5.593   1.408  11.120 -1.0959 -1.3648 -1.1121
  145SAPE   C1215877   5.690   1.507  10.962 -0.0204  0.2923  0.1970
  145SAPE  H12A15878   5.655   1.588  10.894 -2.5140  0.4270  1.5183
  145SAPE  H12B15879   5.696   1.408  10.910  0.3593  1.0080 -1.1707
  145SAPE   C1115880   5.828   1.553  11.011  0.2908 -0.1775  0.8148
  145SAPE  H11A15881   5.890   1.561  10.919  0.4216  0.7213  0.9683
  145SAPE  H11B15882   5.865   1.460  11.059 -2.0959 -2.5959 -1.6067
  145SAPE     P15883   5.961   1.739  11.129 -0.0873  0.5584  0.0064
  145SAPE   O1315884   5.937   1.860  11.211 -0.0319  0.5942 -0.2167
  145SAPE   O1415885   6.061   1.640  11.182 -0.7352  0.1450  0.0979
  145SAPE   O1215886   5.827   1.661  11.106 -0.4015 -0.0852  0.2482
  145SAPE   O1115887   6.010   1.787  10.987  0.4356  0.0718 -0.4015
  145SAPE    C115888   5.942   1.898  10.926  0.3536  0.1880 -0.0595
  145SAPE    HA15889   5.848   1.935  10.971 -0.3547  1.3609 -2.3941
  145SAPE    HB15890   6.004   1.990  10.926 -1.6990  1.7148  2.7164
  145SAPE    C215891   5.912   1.869  10.779  0.9359  0.4025  0.4278
  145SAPE    HS15892   5.853   1.775  10.771 -0.0438  1.0180  0.1667
  145SAPE   O2115893   6.027   1.871  10.697  0.2110  0.0739  0.1035
  145SAPE   C2115894   6.086   1.756  10.673 -0.3960  0.6945 -0.3253
  145SAPE   O2215895   6.068   1.651  10.735  0.0949  0.4003  0.5751
  145SAPE   C2215896   6.190   1.772  10.562 -0.3103  0.2264  0.5089
  145SAPE   H2R15897   6.156   1.861  10.505  2.4751 -0.2875 -2.2052
  145SAPE   H2S15898   6.292   1.779  10.605  0.5108 -2.4379 -0.7675
  145SAPE    C315899   5.806   1.980  10.714  0.4447 -0.0704 -0.3966
  145SAPE    HX15900   5.858   2.077  10.727  1.6301 -0.4293 -2.0586
  145SAPE    HY15901   5.712   1.984  10.773 -0.3686  1.2789 -1.7216
  145SAPE   O3115902   5.773   1.942  10.581 -0.1114 -0.3511 -0.8063
  145SAPE   C3115903   5.718   2.044  10.521  0.2699  0.0140 -0.0247
  145SAPE   O3215904   5.694   2.157  10.564  0.6794 -0.0579  0.1665
  145SAPE   C3215905   5.673   1.992  10.388  0.3770 -0.1818  0.4036
  145SAPE   H2X15906   5.645   1.885  10.401  0.3390 -0.4315 -1.3950
  145SAPE   H2Y15907   5.757   1.990  10.315 -0.4909  1.5119 -0.6833
  145SAPE   C2315908   6.187   1.659  10.461  0.1504  0.2499 -0.0649
  145SAPE   H3R15909   6.180   1.695  10.356 -1.0946 -0.4561 -0.2385
  145SAPE   H3S15910   6.091   1.604  10.470  0.9131 -1.2714 -0.7822
  145SAPE   C2415911   6.296   1.549  10.469 -0.2442 -0.5172 -0.4266
  145SAPE   H4R15912   6.264   1.463  10.406  0.2732  0.0010 -1.4203
  145SAPE   H4S15913   6.301   1.527  10.578 -0.3858 -0.3068 -0.3767
  145SAPE   C2515914   6.433   1.599  10.432  0.8795 -0.1708  0.9341
  145SAPE   H5R15915   6.488   1.660  10.506  1.5933  0.1870  0.1187
  145SAPE   C2615916   6.507   1.580  10.318 -0.1024 -0.1065  0.6422
  145SAPE   H6R15917   6.602   1.634  10.301  0.1034 -1.1653 -2.0972
  145SAPE   C2715918   6.470   1.501  10.198 -0.0522 -0.5873  0.0924
  145SAPE   H7R15919   6.546   1.506  10.116  2.0803 -0.2918  1.9671
  145SAPE   H7S15920   6.390   1.560  10.149  1.1507  1.1313  0.0696
  145SAPE   C2815921   6.427   1.364  10.222 -0.1872  0.3101 -0.4036
  145SAPE   H8R15922   6.479   1.311  10.303  2.3959  0.6311 -1.7569
  145SAPE   C2915923   6.324   1.297  10.174 -1.0124 -0.2702  0.2019
  145SAPE   H9R15924   6.307   1.196  10.214  2.4753 -0.3483  1.8748
  145SAPE  C21015925   6.248   1.346  10.058 -0.6348  0.4757  0.3527
  145SAPE  H10R15926   6.307   1.419   9.998  1.7269 -1.7607 -0.2652
  145SAPE  H10S15927   6.155   1.388  10.102  0.5246  1.2806  2.1437
  145SAPE  C21115928   6.204   1.237   9.958  0.1735  0.2398 -0.4622
  145SAPE  H11R15929   6.117   1.178   9.992  0.7254 -0.9268 -1.0204
  145SAPE  C21215930   6.270   1.194   9.847 -0.4132 -0.0373  0.1606
  145SAPE  H12R15931   6.219   1.117   9.788 -2.9468  2.8575 -1.7219
  145SAPE  C21315932   6.400   1.254   9.793  0.5597 -0.4075  0.6483
  145SAPE  H13R15933   6.474   1.277   9.872 -0.3330  4.0644  0.4362
  145SAPE  H13S15934   6.364   1.351   9.751  0.4814 -1.2388 -1.3015
  145SAPE  C21415935   6.473   1.176   9.685 -0.0815 -0.2953  0.7984
  145SAPE  H14R15936   6.536   1.098   9.732  2.3972  0.7731 -0.5674
  145SAPE  C21515937   6.460   1.193   9.546 -0.4011  0.9417 -0.0605
  145SAPE  H15R15938   6.496   1.117   9.476  4.2931  1.2594  1.6839
  145SAPE  C21615939   6.379   1.297   9.469 -0.3146  0.4157 -0.4625
  145SAPE  H16R15940   6.447   1.356   9.404 -0.2285 -0.9504 -1.6649
  145SAPE  H16S15941   6.334   1.378   9.530 -2.2617  0.3702 -1.7665
  145SAPE  C21715942   6.254   1.221   9.415 -0.8305  0.3864 -0.3796
  145SAPE  H17R15943   6.192   1.304   9.375 -2.0953 -0.6755 -0.6697
  145SAPE  H17S15944   6.194   1.173   9.495 -1.4429 -2.8784 -2.5937
  145SAPE  C21815945   6.276   1.108   9.312 -0.3997  0.2875 -0.2449
  145SAPE  H18R15946   6.358   1.036   9.333 -1.3256 -0.8366 -0.3672
  145SAPE  H18S15947   6.303   1.163   9.219  0.9053  0.1912  0.0482
  145SAPE  C21915948   6.143   1.033   9.279 -0.1241  0.3759  0.2698
  145SAPE  H19R15949   6.072   1.105   9.234  1.8232  1.9550 -0.4460
  145SAPE  H19S15950   6.124   0.983   9.377  0.1097 -0.7775 -0.2480
  145SAPE  C22015951   6.167   0.916   9.181  0.3518 -0.2472 -0.7391
  145SAPE  H20R15952   6.079   0.888   9.119  0.3406  1.3137 -1.4612
  145SAPE  H20S15953   6.206   0.829   9.239 -0.3389 -0.4846 -0.6218
  145SAPE  H20T15954   6.249   0.942   9.111  2.6098 -2.4432  0.9401
  145SAPE   C3315955   5.559   2.074  10.323  0.2656 -0.4837 -0.4926
  145SAPE   H3X15956   5.582   2.182  10.338  1.1056 -0.7592  0.2772
  145SAPE   H3Y15957   5.461   2.049  10.368  0.9448 -0.9988  0.7462
  145SAPE   C3415958   5.555   2.059  10.171  0.1714 -0.1092  0.1961
  145SAPE   H4X15959   5.465   2.113  10.135 -0.6477 -1.7500 -0.2953
  145SAPE   H4Y15960   5.535   1.952  10.151 -1.8030 -0.0415  1.5373
  145SAPE   C3515961   5.684   2.122  10.114  0.2764 -0.2324  0.7758
  145SAPE   H5X15962   5.773   2.059  10.137  1.3180  0.3561 -1.4004
  145SAPE   H5Y15963   5.718   2.217  10.161 -0.1758  1.0250 -1.3187
  145SAPE   C3615964   5.662   2.139   9.962 -0.5288  0.0703 -0.0175
  145SAPE   H6X15965   5.660   2.036   9.921  0.2800 -0.3406  0.9407
  145SAPE   H6Y15966   5.750   2.183   9.910 -0.8935  1.0091  0.1403
  145SAPE   C3715967   5.546   2.215   9.900  0.1672 -0.0792 -0.7286
  145SAPE   H7X15968   5.525   2.302   9.965 -1.2802 -1.6629  1.0356
  145SAPE   H7Y15969   5.449   2.162   9.913 -0.4315  1.4064  1.6134
  145SAPE   C3815970   5.569   2.250   9.755 -0.7371 -0.0024 -1.4986
  145SAPE   H8X15971   5.656   2.318   9.746 -2.0071  2.6596  3.0922
  145SAPE   H8Y15972   5.482   2.306   9.715  0.3398  3.2003  0.2653
  145SAPE   C3915973   5.584   2.128   9.665  0.2311 -0.0811  0.3499
  145SAPE   H9X15974   5.522   2.043   9.699  1.0564 -1.2461 -0.9305
  145SAPE   H9Y15975   5.689   2.093   9.675  0.5956  0.4290 -1.3161
  145SAPE  C31015976   5.558   2.161   9.515  0.3509  0.4134 -0.6474
  145SAPE  H10X15977   5.602   2.262   9.498  2.6628 -0.4771 -0.3650
  145SAPE  H10Y15978   5.450   2.164   9.490  0.0697 -1.3335  0.2429
  145SAPE  C31115979   5.624   2.051   9.420  0.3105 -0.5187 -0.8613
  145SAPE  H11X15980   5.597   1.955   9.468 -0.3240 -0.8226 -1.7896
  145SAPE  H11Y15981   5.734   2.066   9.427 -0.1641  2.7691  2.3241
  145SAPE  C31215982   5.563   2.070   9.276  0.0962 -0.0019 -0.2152
  145SAPE  H12X15983   5.455   2.068   9.297  0.2342 -0.8221  0.4657
  145SAPE  H12Y15984   5.593   1.985   9.210 -0.4879  0.1103 -0.6328
  145SAPE  C31315985   5.587   2.211   9.210  0.0515 -0.3500 -0.1306
  145SAPE  H13X15986   5.697   2.221   9.216  0.0016  1.9722 -1.7932
  145SAPE  H13Y15987   5.549   2.295   9.272 -0.3965 -0.1753 -0.6352
  145SAPE  C31415988   5.529   2.219   9.076 -0.0238  0.3558 -0.3228
  145SAPE  H14X15989   5.419   2.204   9.073 -0.0731  0.1574  1.2756
  145SAPE  H14Y15990   5.579   2.138   9.020  0.3619  1.2300 -1.2764
  145SAPE  C31515991   5.553   2.344   8.996 -0.2631  0.2139  0.0427
  145SAPE  H15X15992   5.488   2.342   8.906 -0.4562  0.6284  0.1744
  145SAPE  H15Y15993   5.657   2.348   8.956 -0.2963 -1.6185 -0.3161
  145SAPE  C31615994   5.519   2.465   9.086 -0.1899 -0.1702  0.6487
  145SAPE  H16X15995   5.615   2.486   9.139 -0.0359  0.2204  0.2225
  145SAPE  H16Y15996   5.443   2.433   9.160 -0.5609  1.7020  1.1227
  145SAPE  C31715997   5.471   2.594   9.020  0.2866  0.1743 -0.5426
  145SAPE  H17X15998   5.542   2.635   8.944 -0.2751  1.5805 -0.3482
  145SAPE  H17Y15999   5.465   2.670   9.101  1.9637  0.2741 -0.4885
  145SAPE  C31816000   5.332   2.575   8.953 -0.1022  0.1270  0.0713
  145SAPE  H18X16001   5.271   2.519   9.027  2.5372 -0.3329  2.0280
  145SAPE  H18Y16002   5.354   2.507   8.868  2.4008  1.6110 -0.5484
  145SAPE  H18Z16003   5.278   2.667   8.922 -0.6382  0.2855  1.3895
  146SAPE     N16004   3.208   1.119  10.708  0.4572  0.1986  0.2005
  146SAPE   HN116005   3.245   1.199  10.652 -0.1459  0.1321 -0.3108
  146SAPE   HN216006   3.211   1.150  10.807  2.4378 -1.3337  0.6834
  146SAPE   HN316007   3.274   1.040  10.690  2.2255  1.4748  0.8630
  146SAPE   C1216008   3.063   1.093  10.673 -0.1391  0.4028  0.0954
  146SAPE  H12A16009   3.025   1.021  10.748  2.1160 -1.5576 -0.5047
  146SAPE  H12B16010   3.062   1.042  10.574  1.1214 -1.0696  0.7867
  146SAPE   C1116011   2.995   1.232  10.676 -0.4815  0.4882 -0.5253
  146SAPE  H11A16012   2.887   1.213  10.657 -0.1600 -3.1287  0.3898
  146SAPE  H11B16013   3.033   1.291  10.590 -0.2362  2.3115  0.7760
  146SAPE     P16014   2.937   1.403  10.857  0.0532 -0.2891  0.1206
  146SAPE   O1316015   2.811   1.332  10.894 -0.2607  1.6461  0.5755
  146SAPE   O1416016   3.007   1.472  10.963 -0.0082 -0.6289  0.1168
  146SAPE   O1216017   3.027   1.298  10.798 -0.0160  0.0638 -0.0688
  146SAPE   O1116018   2.915   1.499  10.738  0.4111  0.7429  0.4809
  146SAPE    C116019   3.001   1.591  10.679  0.3372 -0.5204 -0.0291
  146SAPE    HA16020   3.089   1.615  10.742  1.3917  0.6361 -1.8547
  146SAPE    HB16021   3.040   1.542  10.587 -2.5316  2.7728 -3.3188
  146SAPE    C216022   2.941   1.736  10.641  0.2467 -0.4845  0.2320
  146SAPE    HS16023   2.901   1.783  10.733 -0.1952  1.5390 -0.9215
  146SAPE   O2116024   2.835   1.704  10.550  0.3922  0.4142  0.4646
  146SAPE   C2116025   2.744   1.801  10.522 -0.3791  0.2142  0.0178
  146SAPE   O2216026   2.743   1.910  10.577  0.5853  0.0197 -0.1107
  146SAPE   C2216027   2.655   1.756  10.407  0.1003 -0.4000  0.3076
  146SAPE   H2R16028   2.657   1.645  10.402 -3.3813 -0.5968  0.2657
  146SAPE   H2S16029   2.548   1.780  10.429 -0.4444 -0.4573 -1.9626
  146SAPE    C316030   3.054   1.832  10.579 -0.0067 -0.1782  0.5138
  146SAPE    HX16031   3.137   1.843  10.652 -0.4582  0.8804  0.8899
  146SAPE    HY16032   2.998   1.927  10.564 -0.0838  0.0665  2.1115
  146SAPE   O3116033   3.116   1.781  10.460 -0.2377 -0.0052  0.4949
  146SAPE   C3116034   3.089   1.840  10.347  0.7167 -0.0839  0.3365
  146SAPE   O3216035   3.032   1.945  10.324 -0.6736  0.2584 -0.5092
  146SAPE   C3216036   3.152   1.767  10.236 -0.3289  0.1242  0.9769
  146SAPE   H2X16037   3.136   1.658  10.250 -1.9281  0.4619  2.1697
  146SAPE   H2Y16038   3.261   1.785  10.247 -0.2871 -0.9339  2.5866
  146SAPE   C2316039   2.702   1.813  10.275 -0.0421 -0.1732  0.5725
  146SAPE   H3R16040   2.792   1.752  10.251 -0.4694 -1.4934  2.1373
  146SAPE   H3S16041   2.727   1.921  10.272  3.6400 -0.9405 -0.3568
  146SAPE   C2416042   2.594   1.798  10.158  0.1002  0.8471  0.3556
  146SAPE   H4R16043   2.624   1.870  10.080  1.4476 -0.3799 -0.3117
  146SAPE   H4S16044   2.493   1.826  10.194 -0.8090  0.0886 -1.5052
  146SAPE   C2516045   2.609   1.663  10.084  0.3002  0.5293 -0.0366
  146SAPE   H5R16046   2.564   1.573  10.130  0.0638  0.3719 -0.5589
  146SAPE   C2616047   2.696   1.638   9.982  0.4166  0.6915 -0.6938
  146SAPE   H6R16048   2.707   1.538   9.939  0.9197  0.4774 -0.0681
  146SAPE   C2716049   2.779   1.750   9.919 -0.2641  0.2624  0.2575
  146SAPE   H7R16050   2.876   1.709   9.883 -2.0820 -2.2328 -2.2586
  146SAPE   H7S16051   2.807   1.834   9.986 -0.6284  0.0759  0.6571
  146SAPE   C2816052   2.707   1.820   9.809  0.2961  0.2716  1.0096
  146SAPE   H8R16053   2.616   1.876   9.837  2.4464  4.7910 -0.0195
  146SAPE   C2916054   2.727   1.816   9.677  0.1743 -0.1219 -0.5358
  146SAPE   H9R16055   2.666   1.886   9.617  0.0303  1.0934  0.9546
  146SAPE  C21016056   2.826   1.743   9.589 -0.2189 -0.3405  0.0413
  146SAPE  H10R16057   2.888   1.675   9.651 -0.2781 -1.2301 -0.8567
  146SAPE  H10S16058   2.899   1.816   9.547 -0.3707 -1.0682 -1.5646
  146SAPE  C21116059   2.758   1.672   9.471  1.1218  0.2733 -0.3276
  146SAPE  H11R16060   2.689   1.591   9.499 -1.2277  2.2064 -0.2035
  146SAPE  C21216061   2.787   1.685   9.344 -0.4944 -0.2382  0.2954
  146SAPE  H12R16062   2.729   1.641   9.261 -0.0659 -2.4912  1.1057
  146SAPE  C21316063   2.893   1.777   9.284 -0.2389  0.5890 -0.4401
  146SAPE  H13R16064   2.977   1.785   9.356 -0.5601  2.3024 -0.2146
  146SAPE  H13S16065   2.848   1.879   9.284 -1.4314  0.0711 -0.0970
  146SAPE  C21416066   2.950   1.732   9.150  0.4292  0.0525  0.7936
  146SAPE  H14R16067   2.962   1.624   9.137 -1.6891 -0.1561  0.3084
  146SAPE  C21516068   2.974   1.813   9.045  0.3443  0.0521 -0.4869
  146SAPE  H15R16069   3.026   1.766   8.959  1.1901  0.4697 -0.2163
  146SAPE  C21616070   2.957   1.964   9.043  0.9354  0.3274 -0.1468
  146SAPE  H16R16071   2.979   2.003   9.145 -1.8591 -1.1918  1.1403
  146SAPE  H16S16072   2.847   1.978   9.034  0.4912 -0.5565  3.0320
  146SAPE  C21716073   3.042   2.032   8.934  0.9716  0.0564  0.7827
  146SAPE  H17R16074   3.002   1.992   8.838 -0.3629 -2.7880  2.3855
  146SAPE  H17S16075   3.146   1.995   8.947  0.9999 -1.0404 -1.8954
  146SAPE  C21816076   3.036   2.184   8.936  0.4716 -0.5116 -0.1178
  146SAPE  H18R16077   3.081   2.222   9.030 -1.4053 -2.0106  1.4790
  146SAPE  H18S16078   2.927   2.203   8.938  0.4023 -0.8060 -0.7910
  146SAPE  C21916079   3.111   2.232   8.816 -0.1860  0.1342 -0.1496
  146SAPE  H19R16080   3.052   2.193   8.730 -2.6467  0.0627  1.4703
  146SAPE  H19S16081   3.211   2.187   8.800  0.7327  2.2040 -0.6450
  146SAPE  C22016082   3.119   2.382   8.806 -0.2699 -0.1160 -0.5904
  146SAPE  H20R16083   3.162   2.429   8.897 -0.1754  2.0725 -1.7032
  146SAPE  H20S16084   3.017   2.424   8.789  0.6948  1.8009 -1.9789
  146SAPE  H20T16085   3.176   2.415   8.717  0.6446 -0.5885 -0.1994
  146SAPE   C3316086   3.107   1.803  10.096 -0.3462 -0.2324  0.3493
  146SAPE   H3X16087   3.091   1.912  10.082 -1.3310 -0.3653  0.3734
  146SAPE   H3Y16088   3.006   1.762  10.074 -0.1695 -1.0081  0.9639
  146SAPE   C3416089   3.212   1.755   9.990  0.1769 -0.2031  0.3768
  146SAPE   H4X16090   3.230   1.646  10.004 -1.3310 -0.6659 -0.9292
  146SAPE   H4Y16091   3.301   1.819  10.006 -0.1650  0.8509 -1.6511
  146SAPE   C3516092   3.165   1.784   9.844  0.1172  0.1679 -0.8089
  146SAPE   H5X16093   3.077   1.853   9.848 -2.0159 -2.4192  2.2896
  146SAPE   H5Y16094   3.114   1.691   9.810  2.4970 -0.5252 -2.6950
  146SAPE   C3616095   3.287   1.818   9.753  0.5495  0.3806  0.4014
  146SAPE   H6X16096   3.353   1.729   9.761  0.5974  0.4153  0.3992
  146SAPE   H6Y16097   3.352   1.900   9.792  1.3031 -0.3044  0.6199
  146SAPE   C3716098   3.237   1.844   9.612  0.0602 -0.3912  0.3717
  146SAPE   H7X16099   3.170   1.932   9.623 -0.5312 -0.7671 -0.1295
  146SAPE   H7Y16100   3.169   1.768   9.567 -0.3192  0.0573  0.1727
  146SAPE   C3816101   3.357   1.881   9.511  0.4009 -0.2094 -0.2998
  146SAPE   H8X16102   3.433   1.802   9.490 -1.5101 -2.1337 -0.3433
  146SAPE   H8Y16103   3.411   1.963   9.563 -0.4345  0.0656  0.1466
  146SAPE   C3916104   3.311   1.950   9.385 -0.0242 -0.4678 -0.3162
  146SAPE   H9X16105   3.229   2.013   9.426 -0.7476 -2.0398  0.8054
  146SAPE   H9Y16106   3.268   1.880   9.310  0.2924 -2.3083  1.1434
  146SAPE  C31016107   3.417   2.043   9.322 -0.2402  0.4294  0.0971
  146SAPE  H10X16108   3.513   1.988   9.311  0.6484  2.0693 -0.7078
  146SAPE  H10Y16109   3.442   2.123   9.395  1.7270 -1.4495  1.6482
  146SAPE  C31116110   3.363   2.109   9.196 -0.0172  0.0191  0.2565
  146SAPE  H11X16111   3.264   2.154   9.214  1.1065  2.8548 -0.0923
  146SAPE  H11Y16112   3.356   2.042   9.108  0.7029  0.2785 -0.0050
  146SAPE  C31216113   3.459   2.222   9.161 -0.9000  0.5793  0.6525
  146SAPE  H12X16114   3.566   2.200   9.181 -0.8142 -1.3839 -1.5478
  146SAPE  H12Y16115   3.435   2.314   9.219  0.6692  2.9629 -2.1431
  146SAPE  C31316116   3.451   2.259   9.006 -0.0872 -0.2267 -0.4561
  146SAPE  H13X16117   3.347   2.298   9.000 -1.7589 -3.8575  1.6169
  146SAPE  H13Y16118   3.469   2.171   8.940 -0.3909 -1.2819  0.8234
  146SAPE  C31416119   3.549   2.367   8.962 -0.3554  0.7505  0.4514
  146SAPE  H14X16120   3.654   2.331   8.959 -0.3239  0.6659  1.7566
  146SAPE  H14Y16121   3.537   2.449   9.037 -3.7167  0.1129  0.7387
  146SAPE  C31516122   3.525   2.444   8.829  0.2468 -0.4027 -0.7395
  146SAPE  H15X16123   3.433   2.505   8.841  0.1727 -0.7797  0.8450
  146SAPE  H15Y16124   3.502   2.374   8.746 -0.8703 -0.5925 -0.2837
  146SAPE  C31616125   3.640   2.538   8.784 -0.2792  0.0147  0.1504
  146SAPE  H16X16126   3.620   2.550   8.676  1.2482 -0.9375 -0.2683
  146SAPE  H16Y16127   3.732   2.480   8.805  0.3396  1.1031  0.5322
  146SAPE  C31716128   3.640   2.673   8.844  0.0058  0.0216  0.5782
  146SAPE  H17X16129   3.647   2.662   8.954  0.4294  1.2772  0.6911
  146SAPE  H17Y16130   3.549   2.733   8.822 -0.2247 -0.7628 -0.7299
  146SAPE  C31816131   3.757   2.758   8.790 -0.1719  0.3360  0.4255
  146SAPE  H18X16132   3.764   2.857   8.841  0.9133  0.0343  0.8843
  146SAPE  H18Y16133   3.755   2.765   8.679  2.7266  1.1745  0.3214
  146SAPE  H18Z16134   3.858   2.716   8.812  0.2638  1.7479  1.3424
  147SAPE     N16135   1.782   6.367   6.060 -0.5863 -0.5573 -0.3646
  147SAPE   HN116136   1.787   6.469   6.079 -2.6171 -0.3322 -0.7535
  147SAPE   HN216137   1.776   6.317   6.152  0.6813  0.6572  0.3991
  147SAPE   HN316138   1.873   6.341   6.017  1.1559  0.8400  2.2000
  147SAPE   C1216139   1.676   6.331   5.957 -0.3658  0.3162 -0.8502
  147SAPE  H12A16140   1.695   6.232   5.910 -3.7173 -1.1153  0.5053
  147SAPE  H12B16141   1.675   6.405   5.875 -0.8405  1.1928 -0.0738
  147SAPE   C1116142   1.531   6.336   6.022  0.2183  0.0037 -0.8349
  147SAPE  H11A16143   1.521   6.260   6.102  0.0646  0.8669 -0.0177
  147SAPE  H11B16144   1.456   6.327   5.941 -1.8806  3.8107  0.4368
  147SAPE     P16145   1.358   6.503   6.140  0.4582  0.1601 -0.1882
  147SAPE   O1316146   1.355   6.650   6.146  0.2773 -0.0745 -0.3869
  147SAPE   O1416147   1.245   6.433   6.075  0.1532 -0.2480 -0.1447
  147SAPE   O1216148   1.501   6.471   6.068  0.3804 -0.4100 -0.8926
  147SAPE   O1116149   1.374   6.437   6.276 -0.1827  0.1948 -0.4589
  147SAPE    C116150   1.286   6.443   6.382  0.3839  0.2269 -0.3448
  147SAPE    HA16151   1.326   6.472   6.482  0.3438 -0.8524 -0.0098
  147SAPE    HB16152   1.198   6.504   6.350 -0.8761 -0.7535  1.0789
  147SAPE    C216153   1.236   6.301   6.405  0.1233  0.3024  0.3084
  147SAPE    HS16154   1.209   6.254   6.307  1.2981  0.1410  0.0517
  147SAPE   O2116155   1.125   6.313   6.498  0.0588 -0.2315 -0.1513
  147SAPE   C2116156   1.080   6.194   6.532 -0.6339  0.0960  0.0851
  147SAPE   O2216157   1.099   6.089   6.479  0.3782 -0.5658 -0.1732
  147SAPE   C2216158   1.001   6.206   6.668  0.4645  0.0461 -0.5736
  147SAPE   H2R16159   1.039   6.298   6.716  3.0324 -0.2878 -1.8239
  147SAPE   H2S16160   0.895   6.232   6.647  0.4658  0.5298 -0.0063
  147SAPE    C316161   1.355   6.210   6.460 -0.5216 -0.5178  0.0515
  147SAPE    HX16162   1.434   6.221   6.382 -0.5644  2.0638  0.2656
  147SAPE    HY16163   1.337   6.101   6.448 -1.0117 -0.5026  0.6147
  147SAPE   O3116164   1.394   6.250   6.595  0.2637  0.1875  0.1344
  147SAPE   C3116165   1.514   6.217   6.628 -0.3348 -0.8414 -0.3584
  147SAPE   O3216166   1.600   6.164   6.561 -0.4227 -0.5731 -0.2796
  147SAPE   C3216167   1.554   6.273   6.772 -0.0238 -1.2871 -0.3131
  147SAPE   H2X16168   1.519   6.374   6.801  1.4657 -0.6213 -0.7416
  147SAPE   H2Y16169   1.659   6.289   6.740 -0.5563  2.1736 -0.6164
  147SAPE   C2316170   1.010   6.083   6.755  0.0973  0.3510  0.2369
  147SAPE   H3R16171   1.098   6.017   6.740  0.0066 -0.3220  2.3931
  147SAPE   H3S16172   0.927   6.013   6.732  0.8843 -0.4872 -0.1098
  147SAPE   C2416173   1.010   6.109   6.910  0.2632 -0.5570  0.2703
  147SAPE   H4R16174   0.993   6.008   6.953 -1.9840 -0.8766 -1.1973
  147SAPE   H4S16175   0.917   6.168   6.923  0.4016 -0.4528  0.7979
  147SAPE   C2516176   1.141   6.160   6.956 -0.0077 -1.1084 -0.1715
  147SAPE   H5R16177   1.219   6.087   6.930  1.6515  0.6765 -0.3428
  147SAPE   C2616178   1.178   6.262   7.032 -0.2141  0.7659 -0.3574
  147SAPE   H6R16179   1.283   6.284   7.055 -0.9023  2.2505  1.6097
  147SAPE   C2716180   1.082   6.361   7.095 -0.5373 -0.8656 -0.8574
  147SAPE   H7R16181   0.989   6.364   7.035 -1.8521 -1.2419  1.0458
  147SAPE   H7S16182   1.127   6.461   7.078  1.5226 -1.3223  1.3679
  147SAPE   C2816183   1.046   6.342   7.237  0.3017 -0.0647 -0.0612
  147SAPE   H8R16184   0.977   6.259   7.259  0.1574 -0.2241 -1.0615
  147SAPE   C2916185   1.096   6.426   7.332  0.7029 -0.3850 -0.3576
  147SAPE   H9R16186   1.081   6.407   7.439  1.3517 -1.4920 -0.4424
  147SAPE  C21016187   1.184   6.551   7.316  0.2936 -0.0369  0.4816
  147SAPE  H10R16188   1.172   6.616   7.406  0.8526 -2.6080  2.5315
  147SAPE  H10S16189   1.153   6.610   7.226  0.5307  2.1211  1.7343
  147SAPE  C21116190   1.328   6.507   7.300  0.3486  0.9441  0.3618
  147SAPE  H11R16191   1.352   6.418   7.241  0.3379  0.0361  1.6850
  147SAPE  C21216192   1.436   6.577   7.338 -0.3633 -0.5400  0.2188
  147SAPE  H12R16193   1.538   6.534   7.341 -0.0003  0.2820 -0.1611
  147SAPE  C21316194   1.439   6.712   7.402  0.5506 -0.1417 -0.9889
  147SAPE  H13R16195   1.402   6.794   7.336  3.5579  1.1801 -1.2081
  147SAPE  H13S16196   1.548   6.736   7.403  1.1964 -2.5968  2.1865
  147SAPE  C21416197   1.395   6.731   7.546  0.3462  0.0875  0.2577
  147SAPE  H14R16198   1.287   6.754   7.552  0.2373  1.8097 -4.2607
  147SAPE  C21516199   1.468   6.717   7.658  0.3187 -0.3340 -0.5701
  147SAPE  H15R16200   1.410   6.724   7.752 -1.0762  0.6776 -1.4546
  147SAPE  C21616201   1.614   6.680   7.677 -1.0180 -0.1650 -0.7158
  147SAPE  H16R16202   1.648   6.620   7.590 -0.3203  0.7179 -1.0701
  147SAPE  H16S16203   1.634   6.607   7.759 -2.5475 -1.2546 -1.2784
  147SAPE  C21716204   1.702   6.807   7.680 -0.3400 -0.0975 -0.1773
  147SAPE  H17R16205   1.682   6.870   7.591 -0.7411 -1.7800 -1.3150
  147SAPE  H17S16206   1.812   6.792   7.672  0.2760  3.1045  0.9061
  147SAPE  C21816207   1.690   6.884   7.813 -0.2173 -0.4904  0.2586
  147SAPE  H18R16208   1.713   6.827   7.906  1.1341  2.9158  2.2325
  147SAPE  H18S16209   1.585   6.917   7.826 -0.2537  0.1976 -1.5653
  147SAPE  C21916210   1.773   7.014   7.815  0.6941 -0.0691  0.2283
  147SAPE  H19R16211   1.766   7.075   7.907 -1.3885 -0.3253  0.2906
  147SAPE  H19S16212   1.736   7.082   7.735 -2.3431 -2.4237 -0.5530
  147SAPE  C22016213   1.929   6.990   7.805 -0.0071  0.2730 -0.2402
  147SAPE  H20R16214   1.961   6.904   7.743 -1.0227  0.5230 -1.1431
  147SAPE  H20S16215   1.963   6.972   7.909 -1.6795 -1.8413  0.0118
  147SAPE  H20T16216   1.983   7.077   7.761  1.2544 -0.1035  0.5260
  147SAPE   C3316217   1.555   6.168   6.878 -0.1334 -0.7836 -0.3118
  147SAPE   H3X16218   1.617   6.079   6.855  0.3712 -0.3595 -0.6114
  147SAPE   H3Y16219   1.449   6.139   6.896 -0.0334 -0.6881  0.4874
  147SAPE   C3416220   1.610   6.218   7.020  0.3246  0.3866  0.1925
  147SAPE   H4X16221   1.547   6.304   7.050  0.6940  1.3359 -1.6274
  147SAPE   H4Y16222   1.700   6.278   6.995 -0.3855  1.1292 -0.6426
  147SAPE   C3516223   1.629   6.100   7.115  0.5844 -0.3018 -0.1827
  147SAPE   H5X16224   1.696   6.025   7.067 -2.7733 -3.3474 -0.5352
  147SAPE   H5Y16225   1.536   6.041   7.120  1.8298 -2.2465  2.8787
  147SAPE   C3616226   1.686   6.135   7.254  0.9058  0.1153  0.2292
  147SAPE   H6X16227   1.616   6.195   7.316 -0.0997 -0.7005 -0.0851
  147SAPE   H6Y16228   1.775   6.193   7.222  0.2270  0.6798 -0.6985
  147SAPE   C3716229   1.723   6.016   7.344  0.0434  0.6361  0.2481
  147SAPE   H7X16230   1.781   5.937   7.294  1.2497  0.7360  1.4463
  147SAPE   H7Y16231   1.628   5.963   7.366 -0.9120  2.8515  1.8498
  147SAPE   C3816232   1.780   6.062   7.482 -0.0231 -0.2381  0.2834
  147SAPE   H8X16233   1.697   6.111   7.536 -0.8665  1.3885 -2.2903
  147SAPE   H8Y16234   1.864   6.134   7.469 -0.9211  1.1012  1.6641
  147SAPE   C3916235   1.846   5.945   7.558  0.2824  0.2428 -0.0178
  147SAPE   H9X16236   1.930   5.910   7.494 -0.7336  0.9301 -1.8013
  147SAPE   H9Y16237   1.772   5.862   7.560 -2.4321  2.3624 -2.9943
  147SAPE  C31016238   1.882   5.961   7.706  0.0270 -0.2070  0.5160
  147SAPE  H10X16239   1.785   5.995   7.750  0.0531  2.0573 -1.0138
  147SAPE  H10Y16240   1.955   6.045   7.710 -0.5092  0.3218 -0.3328
  147SAPE  C31116241   1.935   5.850   7.787  0.0117  0.0574 -0.4832
  147SAPE  H11X16242   1.985   5.890   7.878  2.0886 -2.2401 -0.4792
  147SAPE  H11Y16243   2.026   5.810   7.736  1.2829  2.1601 -0.0075
  147SAPE  C31216244   1.832   5.744   7.818 -0.2146  0.4959  0.6601
  147SAPE  H12X16245   1.809   5.682   7.728  1.1033  0.5912  0.2338
  147SAPE  H12Y16246   1.735   5.793   7.838 -0.3914  1.2040 -1.5894
  147SAPE  C31316247   1.871   5.655   7.935 -0.3990  0.3241 -0.1166
  147SAPE  H13X16248   1.881   5.709   8.032 -0.8759 -1.9088  1.2383
  147SAPE  H13Y16249   1.971   5.618   7.902  0.4886  3.2900 -1.1144
  147SAPE  C31416250   1.784   5.526   7.961 -0.4590  0.0044  0.2688
  147SAPE  H14X16251   1.762   5.470   7.867  0.7100  0.2491 -0.1721
  147SAPE  H14Y16252   1.690   5.563   8.005 -2.1120 -1.0855 -2.1142
  147SAPE  C31516253   1.851   5.426   8.052 -0.8752  0.8075 -0.0061
  147SAPE  H15X16254   1.926   5.364   7.998 -1.2107 -0.9094  1.3999
  147SAPE  H15Y16255   1.778   5.346   8.078  0.3818 -0.0001  1.2192
  147SAPE  C31616256   1.922   5.489   8.177 -0.4710  0.4495  0.5849
  147SAPE  H16X16257   1.846   5.549   8.229 -0.5032  1.2964 -0.4104
  147SAPE  H16Y16258   2.014   5.540   8.141 -1.4233  0.2138 -2.4303
  147SAPE  C31716259   1.959   5.371   8.273 -0.6259 -1.1001  1.1324
  147SAPE  H17X16260   2.038   5.312   8.221 -0.0066  0.0278  0.7558
  147SAPE  H17Y16261   1.875   5.300   8.292 -1.6522  0.2982  2.0439
  147SAPE  C31816262   2.010   5.432   8.411 -0.2434 -0.7048 -0.3769
  147SAPE  H18X16263   2.081   5.516   8.402 -1.8292  1.0577  2.2559
  147SAPE  H18Y16264   2.059   5.354   8.473 -2.3597 -1.8958 -0.1001
  147SAPE  H18Z16265   1.922   5.464   8.470 -0.1757 -0.1208 -0.5896
  148SAPE     N16266   2.178   4.138   6.256  0.1066  0.0863 -0.0331
  148SAPE   HN116267   2.102   4.073   6.284  0.7874 -0.2752  1.0758
  148SAPE   HN216268   2.183   4.147   6.153 -1.0263  0.8722 -0.0290
  148SAPE   HN316269   2.260   4.097   6.307 -0.9994 -2.5398 -0.2238
  148SAPE   C1216270   2.142   4.272   6.324  0.0575  0.8259  0.6135
  148SAPE  H12A16271   2.135   4.254   6.434 -1.4300 -1.7821  0.1813
  148SAPE  H12B16272   2.039   4.293   6.287 -0.4793  0.2043  1.6814
  148SAPE   C1116273   2.230   4.388   6.276  0.5999  0.5076  0.4916
  148SAPE  H11A16274   2.189   4.484   6.315  1.6978  0.3018  2.2562
  148SAPE  H11B16275   2.237   4.393   6.165 -1.3570 -1.7971  0.1837
  148SAPE     P16276   2.482   4.452   6.288  0.3737  0.0919 -0.2208
  148SAPE   O1316277   2.600   4.375   6.334  0.3933 -0.3854  0.2788
  148SAPE   O1416278   2.473   4.451   6.143 -0.1875  0.4552 -0.2091
  148SAPE   O1216279   2.353   4.380   6.339 -0.0638  0.1047  0.2302
  148SAPE   O1116280   2.485   4.591   6.360 -0.8988  0.6495 -0.0057
  148SAPE    C116281   2.392   4.634   6.454 -0.2965  0.0031 -0.3685
  148SAPE    HA16282   2.290   4.645   6.411 -0.8326  0.1301  0.9035
  148SAPE    HB16283   2.387   4.579   6.550 -0.0038  0.3658 -0.1461
  148SAPE    C216284   2.425   4.786   6.479  1.1457  0.2436  0.7310
  148SAPE    HS16285   2.435   4.826   6.376 -0.1761  0.1485  0.5478
  148SAPE   O2116286   2.554   4.794   6.542 -0.7090  0.3693  0.4725
  148SAPE   C2116287   2.629   4.899   6.514 -0.0714  0.2511 -0.0162
  148SAPE   O2216288   2.595   4.988   6.438  0.4358  0.2525  0.2067
  148SAPE   C2216289   2.763   4.894   6.582 -0.4390  0.7747  0.1154
  148SAPE   H2R16290   2.791   4.787   6.597  0.4663  1.2244  1.8964
  148SAPE   H2S16291   2.832   4.937   6.507  1.3702  0.8797  1.7690
  148SAPE    C316292   2.315   4.865   6.556 -0.0558 -0.2137 -0.0470
  148SAPE    HX16293   2.216   4.860   6.506 -0.0713 -0.2590 -0.0121
  148SAPE    HY16294   2.329   4.975   6.542  0.7102 -0.4201 -1.0210
  148SAPE   O3116295   2.326   4.832   6.697 -0.2151 -0.1333 -0.2344
  148SAPE   C3116296   2.227   4.760   6.753 -0.1830 -0.4831 -0.1927
  148SAPE   O3216297   2.124   4.730   6.707  0.1096  0.0949  0.8446
  148SAPE   C3216298   2.271   4.704   6.890 -0.1263 -0.2704  0.2925
  148SAPE   H2X16299   2.382   4.710   6.899  0.0843 -2.7117  0.2000
  148SAPE   H2Y16300   2.261   4.593   6.882  0.2015 -0.3844  1.3036
  148SAPE   C2316301   2.782   4.988   6.699 -0.4430  0.7233  0.2388
  148SAPE   H3R16302   2.740   5.085   6.666  0.0415  0.8338 -0.0583
  148SAPE   H3S16303   2.892   5.003   6.713 -0.2093 -2.6282  3.6967
  148SAPE   C2416304   2.733   4.930   6.824 -0.1575  0.3969  0.0422
  148SAPE   H4R16305   2.799   4.970   6.904  2.3751  1.9363 -2.6319
  148SAPE   H4S16306   2.752   4.821   6.823  0.1077  0.3948  1.9386
  148SAPE   C2516307   2.585   4.945   6.852 -0.1012  0.0652  0.3133
  148SAPE   H5R16308   2.524   4.913   6.767  0.8578 -0.5154 -0.1795
  148SAPE   C2616309   2.527   4.982   6.965  0.3482 -0.1470  0.5139
  148SAPE   H6R16310   2.418   4.979   6.966  0.3671 -1.9209  0.6867
  148SAPE   C2716311   2.604   5.028   7.086  0.3189  0.6342 -0.0289
  148SAPE   H7R16312   2.567   5.132   7.098 -1.2497  0.3773 -1.9636
  148SAPE   H7S16313   2.711   5.055   7.086  0.3389  0.5796  0.7087
  148SAPE   C2816314   2.583   4.935   7.198 -0.7306  0.1617  0.3812
  148SAPE   H8R16315   2.642   4.841   7.200  0.3084  0.8047  1.4362
  148SAPE   C2916316   2.518   4.958   7.315 -0.7858 -0.2993  0.2543
  148SAPE   H9R16317   2.512   4.879   7.391 -2.3832  1.0610  1.6469
  148SAPE  C21016318   2.458   5.086   7.366 -0.3802 -0.1952  0.2781
  148SAPE  H10R16319   2.457   5.168   7.292  1.1271  0.4757  0.9680
  148SAPE  H10S16320   2.511   5.123   7.457 -0.6068  1.8088 -0.3641
  148SAPE  C21116321   2.307   5.058   7.396  0.3508  0.6780  0.1677
  148SAPE  H11R16322   2.247   5.040   7.306 -0.0812 -1.0557  0.7591
  148SAPE  C21216323   2.254   5.048   7.514  0.3644  0.5335  0.3991
  148SAPE  H12R16324   2.145   5.032   7.515  0.5016 -0.5220  1.6624
  148SAPE  C21316325   2.321   5.061   7.651 -0.4161 -0.0015 -0.6032
  148SAPE  H13R16326   2.288   5.151   7.707  1.2562 -1.3219  2.8179
  148SAPE  H13S16327   2.429   5.089   7.646  0.1346 -0.7891  3.3911
  148SAPE  C21416328   2.308   4.946   7.745 -0.5421  0.5401  0.2679
  148SAPE  H14R16329   2.283   4.851   7.695  2.9357 -1.7128  2.4284
  148SAPE  C21516330   2.322   4.952   7.880  0.6557 -0.3251 -0.0814
  148SAPE  H15R16331   2.305   4.865   7.945  1.5320  0.8056  1.7610
  148SAPE  C21616332   2.360   5.074   7.964 -0.0150  0.2735  0.1051
  148SAPE  H16R16333   2.268   5.117   8.008 -0.7577 -1.8778  0.7688
  148SAPE  H16S16334   2.397   5.150   7.892  0.4589 -0.0297  0.0224
  148SAPE  C21716335   2.472   5.045   8.056  0.6368 -0.3592  0.7157
  148SAPE  H17R16336   2.554   4.994   8.000 -0.2564  0.4523 -1.4764
  148SAPE  H17S16337   2.433   4.974   8.131  1.5733 -2.3406 -0.5737
  148SAPE  C21816338   2.527   5.173   8.112 -0.7875 -0.1941 -0.8147
  148SAPE  H18R16339   2.454   5.209   8.187 -1.1960  0.4168 -1.4915
  148SAPE  H18S16340   2.534   5.252   8.034  1.0845 -0.5052 -1.0104
  148SAPE  C21916341   2.665   5.156   8.186  0.6742  0.5833  0.0709
  148SAPE  H19R16342   2.691   5.251   8.238  0.3132 -0.4143  2.2004
  148SAPE  H19S16343   2.741   5.147   8.105 -0.6226  0.0079 -1.1165
  148SAPE  C22016344   2.662   5.040   8.287  0.4359 -0.4553  0.7531
  148SAPE  H20R16345   2.760   5.020   8.335  0.8006 -1.2712 -0.2960
  148SAPE  H20S16346   2.628   4.946   8.239 -0.8431  0.6010 -0.4799
  148SAPE  H20T16347   2.589   5.064   8.367  0.3069 -0.1054  0.5326
  148SAPE   C3316348   2.185   4.763   7.015  0.5415  0.0859  0.3456
  148SAPE   H3X16349   2.079   4.731   7.005  0.0938  1.4170  0.6303
  148SAPE   H3Y16350   2.188   4.874   7.003  0.7153 -0.0255 -0.7268
  148SAPE   C3416351   2.245   4.729   7.151 -0.0944  1.3641 -0.3017
  148SAPE   H4X16352   2.326   4.800   7.177  0.3341  0.9282 -0.4238
  148SAPE   H4Y16353   2.289   4.627   7.152 -1.1988  0.8609 -1.1053
  148SAPE   C3516354   2.135   4.727   7.249 -0.2457 -0.7074  0.2141
  148SAPE   H5X16355   2.054   4.668   7.203 -2.2044 -0.0142  2.5676
  148SAPE   H5Y16356   2.088   4.828   7.253  1.3730  0.1841 -1.6850
  148SAPE   C3616357   2.162   4.686   7.396  0.0349  0.0749  0.5827
  148SAPE   H6X16358   2.229   4.763   7.440  0.3170 -0.3175  0.8424
  148SAPE   H6Y16359   2.222   4.594   7.411  1.4556  0.8616 -0.0397
  148SAPE   C3716360   2.035   4.672   7.480  0.0325  0.0873  0.7637
  148SAPE   H7X16361   1.966   4.595   7.439 -1.4527  1.7842 -0.0752
  148SAPE   H7Y16362   1.971   4.763   7.472  0.9888  0.6355 -1.6657
  148SAPE   C3816363   2.065   4.641   7.621  0.0396  0.9679 -0.5009
  148SAPE   H8X16364   2.126   4.707   7.686 -2.4197  0.5623  2.4595
  148SAPE   H8Y16365   2.118   4.544   7.626 -0.4381  0.6051 -1.9158
  148SAPE   C3916366   1.935   4.622   7.708  0.3699 -0.0822  0.1980
  148SAPE   H9X16367   1.883   4.528   7.680  0.0471  0.4306 -0.9539
  148SAPE   H9Y16368   1.877   4.711   7.677  0.7376 -0.0976 -0.5566
  148SAPE  C31016369   1.951   4.640   7.863 -0.1954  0.2038  0.2668
  148SAPE  H10X16370   1.998   4.737   7.890 -0.7687  0.3609  0.7244
  148SAPE  H10Y16371   2.024   4.563   7.897 -0.5871 -0.4572 -0.3625
  148SAPE  C31116372   1.823   4.613   7.943  0.1748 -0.2192  0.1046
  148SAPE  H11X16373   1.788   4.509   7.923 -0.1568 -0.4204  1.6063
  148SAPE  H11Y16374   1.737   4.670   7.900 -0.5330 -2.0244 -0.9796
  148SAPE  C31216375   1.835   4.634   8.099 -0.2459  0.6155  0.4197
  148SAPE  H12X16376   1.728   4.644   8.129 -0.9042 -0.3905 -1.4277
  148SAPE  H12Y16377   1.876   4.735   8.115 -1.0132  1.2032 -1.0608
  148SAPE  C31316378   1.905   4.517   8.173 -0.1088 -0.3055 -0.4013
  148SAPE  H13X16379   2.013   4.508   8.151  0.6174 -0.4834  2.7656
  148SAPE  H13Y16380   1.853   4.421   8.154 -2.0896  0.6003  0.2183
  148SAPE  C31416381   1.906   4.532   8.324  0.3789 -1.0624 -0.2236
  148SAPE  H14X16382   1.815   4.500   8.379  2.5596 -2.3505  2.9291
  148SAPE  H14Y16383   1.902   4.641   8.340 -0.3178 -1.3047  1.4159
  148SAPE  C31516384   2.012   4.457   8.399 -0.3238 -0.5030  0.2554
  148SAPE  H15X16385   1.988   4.443   8.507 -1.5078 -2.9232 -0.2456
  148SAPE  H15Y16386   2.106   4.515   8.394  0.1832 -1.0711  2.3082
  148SAPE  C31616387   2.029   4.315   8.346 -0.4390 -0.1138  0.2313
  148SAPE  H16X16388   2.037   4.302   8.236  0.8246 -0.0445  0.2899
  148SAPE  H16Y16389   1.941   4.260   8.385  0.6955  0.5704  4.2242
  148SAPE  C31716390   2.150   4.239   8.397  0.8259  0.3438 -0.3999
  148SAPE  H17X16391   2.148   4.134   8.363  1.4679  0.7057 -1.6035
  148SAPE  H17Y16392   2.162   4.247   8.507  0.6762 -0.3389 -0.3333
  148SAPE  C31816393   2.278   4.302   8.340 -0.2754  0.6075  0.6758
  148SAPE  H18X16394   2.285   4.314   8.230  2.0685  0.2521  0.7290
  148SAPE  H18Y16395   2.371   4.246   8.365  1.5478  2.6809 -0.9965
  148SAPE  H18Z16396   2.288   4.409   8.368 -0.9175  1.2890 -1.5036
  149SAPE     N16397   0.436   0.708   6.546 -0.0481  0.2115 -0.8027
  149SAPE   HN116398   0.408   0.689   6.644  1.0133  0.9534 -0.3311
  149SAPE   HN216399   0.505   0.785   6.534 -1.4687  1.2519 -3.1122
  149SAPE   HN316400   0.347   0.747   6.509 -0.5046 -0.9577 -0.9553
  149SAPE   C1216401   0.475   0.582   6.474 -0.3824 -0.2450 -0.3670
  149SAPE  H12A16402   0.486   0.609   6.367 -1.8379 -0.6259 -0.6236
  149SAPE  H12B16403   0.388   0.514   6.487 -1.2867  0.7898 -0.8941
  149SAPE   C1116404   0.610   0.526   6.523 -0.2713 -0.1106 -0.7787
  149SAPE  H11A16405   0.626   0.422   6.487 -1.1737 -0.3828 -0.4148
  149SAPE  H11B16406   0.608   0.515   6.633  1.8235  1.6446 -0.5054
  149SAPE     P16407   0.859   0.569   6.464  0.2255  0.0722 -0.2106
  149SAPE   O1316408   0.840   0.490   6.341 -0.0227  0.1240 -0.1053
  149SAPE   O1416409   0.951   0.685   6.454 -0.0065 -0.4653 -0.4104
  149SAPE   O1216410   0.717   0.628   6.501  0.0894  0.0570 -0.4071
  149SAPE   O1116411   0.893   0.476   6.580 -0.3298  0.4322  0.5805
  149SAPE    C116412   1.029   0.448   6.613  1.1676 -0.5123  0.8271
  149SAPE    HA16413   1.077   0.410   6.520 -2.3723  1.0319 -1.8822
  149SAPE    HB16414   1.083   0.533   6.659  0.3575  0.6371 -0.2705
  149SAPE    C216415   1.030   0.319   6.703  0.3639 -0.1138  0.9965
  149SAPE    HS16416   1.001   0.235   6.636  0.2458 -1.1439  2.2880
  149SAPE   O2116417   0.939   0.331   6.813 -0.6948  0.3087 -0.3786
  149SAPE   C2116418   0.810   0.293   6.786  0.5074 -0.4716 -0.6140
  149SAPE   O2216419   0.768   0.249   6.684 -0.1322  0.8910 -0.5952
  149SAPE   C2216420   0.720   0.318   6.910 -0.4659 -0.0615  0.9856
  149SAPE   H2R16421   0.666   0.227   6.942 -1.5546  0.9601  2.1777
  149SAPE   H2S16422   0.795   0.360   6.981  2.0158 -1.1368 -0.8438
  149SAPE    C316423   1.179   0.291   6.740  0.3152 -0.3022 -0.0445
  149SAPE    HX16424   1.205   0.358   6.825  2.4737  1.5609 -2.0580
  149SAPE    HY16425   1.254   0.316   6.663  0.0366  0.6000 -0.0325
  149SAPE   O3116426   1.198   0.160   6.797 -0.6791  0.0121  0.2794
  149SAPE   C3116427   1.249   0.061   6.722  0.3217  0.2128  0.4607
  149SAPE   O3216428   1.301   0.082   6.616  0.5578 -0.4138  0.1177
  149SAPE   C3216429   1.233  -0.070   6.797 -0.5269  0.1427 -0.1009
  149SAPE   H2X16430   1.137  -0.124   6.779 -0.3932 -0.4444  0.8254
  149SAPE   H2Y16431   1.256  -0.052   6.905  1.5018 -1.0746 -0.2802
  149SAPE   C2316432   0.618   0.426   6.881  0.5056  0.1499  0.2035
  149SAPE   H3R16433   0.565   0.406   6.786  0.5132 -3.0096  0.7642
  149SAPE   H3S16434   0.661   0.529   6.876 -0.0544  0.3657 -0.2397
  149SAPE   C2416435   0.516   0.447   7.001 -0.4085  0.2928  0.2911
  149SAPE   H4R16436   0.450   0.533   6.978 -1.0903 -0.4740 -0.7180
  149SAPE   H4S16437   0.575   0.475   7.091 -0.2382 -0.4688  0.4284
  149SAPE   C2516438   0.429   0.327   7.024  0.0138 -0.7176 -0.2604
  149SAPE   H5R16439   0.378   0.283   6.937  1.5017 -0.9927 -1.0199
  149SAPE   C2616440   0.409   0.275   7.148 -0.2520 -0.7597  0.5247
  149SAPE   H6R16441   0.323   0.206   7.153 -0.5951 -0.5112 -1.1626
  149SAPE   C2716442   0.465   0.322   7.281  0.6859  0.5522  0.6217
  149SAPE   H7R16443   0.484   0.431   7.287  0.2235  0.8870 -2.2917
  149SAPE   H7S16444   0.558   0.262   7.288 -0.0205 -0.3790  2.8112
  149SAPE   C2816445   0.389   0.285   7.400 -0.3475  0.1285 -0.2466
  149SAPE   H8R16446   0.288   0.328   7.387 -0.1230  0.4093 -1.1189
  149SAPE   C2916447   0.409   0.192   7.497  0.4694 -0.3427  0.6188
  149SAPE   H9R16448   0.338   0.185   7.582 -0.9048  3.5246 -0.0149
  149SAPE  C21016449   0.531   0.107   7.504 -0.3305  0.1518  0.6259
  149SAPE  H10R16450   0.618   0.167   7.537 -0.8340  0.5756  1.2216
  149SAPE  H10S16451   0.561   0.054   7.411 -1.7583 -1.8439  1.2455
  149SAPE  C21116452   0.512  -0.004   7.606  0.8174  0.2395 -0.0777
  149SAPE  H11R16453   0.406  -0.024   7.631  0.3814  1.9118 -0.4420
  149SAPE  C21216454   0.605  -0.077   7.672  0.2560  0.2615 -0.3757
  149SAPE  H12R16455   0.563  -0.154   7.739 -2.1939 -0.7202 -2.8230
  149SAPE  C21316456   0.755  -0.080   7.647  0.6216 -0.2101 -0.6318
  149SAPE  H13R16457   0.808  -0.058   7.742 -0.8220 -1.2101  0.4540
  149SAPE  H13S16458   0.791   0.001   7.580  0.3624  1.2077  0.8802
  149SAPE  C21416459   0.814  -0.211   7.595 -0.0050  0.1790 -0.5685
  149SAPE  H14R16460   0.801  -0.236   7.488  0.5070 -0.2554 -0.5347
  149SAPE  C21516461   0.894  -0.293   7.669 -0.0748 -0.0129 -0.1416
  149SAPE  H15R16462   0.926  -0.384   7.615 -0.2410  0.7953 -1.6702
  149SAPE  C21616463   0.944  -0.268   7.811 -0.3683 -0.0599  0.8517
  149SAPE  H16R16464   0.942  -0.364   7.868 -1.9981 -0.2745  0.4999
  149SAPE  H16S16465   0.886  -0.207   7.884 -1.8626 -1.0131  0.5093
  149SAPE  C21716466   1.095  -0.231   7.826  0.9156 -0.5155 -0.0654
  149SAPE  H17R16467   1.128  -0.143   7.767  2.0432  0.6250  2.1513
  149SAPE  H17S16468   1.151  -0.315   7.781  0.1178  0.1318 -2.3934
  149SAPE  C21816469   1.143  -0.191   7.963  0.5546 -0.0866 -0.8844
  149SAPE  H18R16470   1.253  -0.204   7.967  0.4792 -0.4445  0.7395
  149SAPE  H18S16471   1.103  -0.268   8.032 -1.5563  1.0846 -0.7108
  149SAPE  C21916472   1.084  -0.053   8.000 -0.7001  0.7743  0.3058
  149SAPE  H19R16473   0.974  -0.041   7.998 -0.9555 -1.2736 -1.5590
  149SAPE  H19S16474   1.118   0.023   7.926  1.0566  1.7248  1.9831
  149SAPE  C22016475   1.128  -0.011   8.135  0.4631 -0.4464 -0.0102
  149SAPE  H20R16476   1.079  -0.074   8.213  0.6673  0.4641  0.8871
  149SAPE  H20S16477   1.100   0.094   8.159 -2.7668 -0.8601 -1.4573
  149SAPE  H20T16478   1.239  -0.013   8.140  0.7858  1.4619 -3.5771
  149SAPE   C3316479   1.339  -0.180   6.749 -0.5558 -0.3960 -0.5044
  149SAPE   H3X16480   1.360  -0.157   6.642 -4.5653  0.6401 -1.2658
  149SAPE   H3Y16481   1.303  -0.283   6.769 -0.4278 -0.6042 -1.3136
  149SAPE   C3416482   1.474  -0.173   6.822 -0.3918 -0.5476 -0.0741
  149SAPE   H4X16483   1.513  -0.069   6.826 -2.5845  0.3053  0.7019
  149SAPE   H4Y16484   1.544  -0.242   6.769  0.9977 -0.8068  1.9715
  149SAPE   C3516485   1.479  -0.218   6.976 -0.5855 -0.1361 -0.2682
  149SAPE   H5X16486   1.417  -0.310   6.990 -1.2503  0.2098 -0.8777
  149SAPE   H5Y16487   1.419  -0.145   7.035 -0.6154 -1.1046  0.9618
  149SAPE   C3616488   1.618  -0.218   7.042 -0.0063  0.8154  0.5089
  149SAPE   H6X16489   1.699  -0.257   6.976 -0.2874 -0.2500  0.7777
  149SAPE   H6Y16490   1.623  -0.282   7.133  1.3482  1.4823  0.9352
  149SAPE   C3716491   1.654  -0.076   7.079  0.7228 -0.1605 -0.1421
  149SAPE   H7X16492   1.593  -0.054   7.169 -0.4821  0.2622 -1.0256
  149SAPE   H7Y16493   1.626  -0.001   7.002  0.3370  2.3613  2.3247
  149SAPE   C3816494   1.811  -0.072   7.104 -0.3173 -0.3642  0.0497
  149SAPE   H8X16495   1.853  -0.071   7.001  0.4836  0.5286  0.3670
  149SAPE   H8Y16496   1.838  -0.169   7.150  1.0532 -1.3419 -2.5778
  149SAPE   C3916497   1.871   0.039   7.198 -0.0909 -0.2128  1.0203
  149SAPE   H9X16498   1.834   0.139   7.168 -2.1978 -1.1913  0.1609
  149SAPE   H9Y16499   1.981   0.036   7.178 -0.0105  0.3480  1.3387
  149SAPE  C31016500   1.841   0.016   7.347 -0.1563 -0.2644 -0.5100
  149SAPE  H10X16501   1.839  -0.093   7.366  0.8297  0.2204  2.9224
  149SAPE  H10Y16502   1.744   0.067   7.363 -0.2746 -0.3332 -0.9660
  149SAPE  C31116503   1.951   0.078   7.430 -0.3183 -0.2505  0.0361
  149SAPE  H11X16504   1.917   0.097   7.534  1.1150 -0.1458  0.5111
  149SAPE  H11Y16505   1.973   0.183   7.400 -2.0823  0.7652  2.0190
  149SAPE  C31216506   2.080  -0.010   7.453  0.5619  0.4623 -0.1996
  149SAPE  H12X16507   2.109  -0.045   7.352 -0.5851  1.7916 -1.0285
  149SAPE  H12Y16508   2.051  -0.108   7.496 -1.2716 -0.0063 -2.3452
  149SAPE  C31316509   2.192   0.062   7.530 -0.0178  0.1450  0.1279
  149SAPE  H13X16510   2.143   0.097   7.623  1.0222  0.7788  0.4531
  149SAPE  H13Y16511   2.215   0.148   7.463  0.7922  1.5354  2.0983
  149SAPE  C31416512   2.311  -0.024   7.560 -0.1997  0.2070  0.3541
  149SAPE  H14X16513   2.398   0.036   7.595  0.6601 -0.7626 -0.0548
  149SAPE  H14Y16514   2.322  -0.071   7.460 -0.8392  1.3631 -0.2861
  149SAPE  C31516515   2.272  -0.129   7.659  0.0450  0.0711 -0.3215
  149SAPE  H15X16516   2.165  -0.155   7.651  0.1313  0.1210 -2.0294
  149SAPE  H15Y16517   2.276  -0.080   7.759  0.7417 -1.7760  0.6148
  149SAPE  C31616518   2.364  -0.255   7.673  0.4134  0.3596 -0.0693
  149SAPE  H16X16519   2.471  -0.229   7.660  1.0982 -1.7927  0.6858
  149SAPE  H16Y16520   2.333  -0.306   7.580 -0.0392  1.2274 -0.3948
  149SAPE  C31716521   2.349  -0.338   7.801  0.0790  0.2959  0.3124
  149SAPE  H17X16522   2.406  -0.432   7.785 -0.5791 -0.1476  0.5506
  149SAPE  H17Y16523   2.240  -0.356   7.810  0.1359  0.1071  0.6235
  149SAPE  C31816524   2.386  -0.275   7.934  0.2894 -0.7336  0.2809
  149SAPE  H18X16525   2.496  -0.264   7.942  0.2911 -1.0595  0.7623
  149SAPE  H18Y16526   2.362  -0.341   8.020 -2.2560  0.8300  0.9058
  149SAPE  H18Z16527   2.342  -0.175   7.954  2.4572  0.0521  1.2977
  150SAPE     N16528   1.488   0.794   6.399  0.6325 -0.6534 -0.5194
  150SAPE   HN116529   1.434   0.873   6.440 -1.1649 -1.9571 -0.2541
  150SAPE   HN216530   1.430   0.716   6.363 -1.4531  1.4922 -2.0484
  150SAPE   HN316531   1.556   0.745   6.461  0.4955 -0.2531 -0.0427
  150SAPE   C1216532   1.546   0.852   6.279  0.2240  0.0057  0.5641
  150SAPE  H12A16533   1.473   0.857   6.195  1.1056  2.6179 -0.1324
  150SAPE  H12B16534   1.626   0.783   6.243 -0.7237 -0.5912 -0.4814
  150SAPE   C1116535   1.590   0.997   6.303 -0.7163 -0.4270 -0.5994
  150SAPE  H11A16536   1.498   1.053   6.330 -0.6362 -0.0873 -1.0090
  150SAPE  H11B16537   1.640   1.029   6.209  0.9424 -1.5415 -0.1385
  150SAPE     P16538   1.678   1.119   6.533 -0.2711  0.1123  0.8547
  150SAPE   O1316539   1.813   1.130   6.597 -0.5669 -0.2425 -0.1200
  150SAPE   O1416540   1.605   1.242   6.488 -0.2756  0.6453  0.1122
  150SAPE   O1216541   1.685   1.010   6.406 -0.3798  0.1294 -0.4527
  150SAPE   O1116542   1.586   1.044   6.636  0.4409  0.3605 -0.0173
  150SAPE    C116543   1.625   0.949   6.729 -0.2872  0.9790  0.1623
  150SAPE    HA16544   1.625   0.856   6.668 -0.3243  2.7144 -2.6562
  150SAPE    HB16545   1.723   0.973   6.775  0.6605 -0.4113 -1.0108
  150SAPE    C216546   1.528   0.937   6.855 -0.1070  0.5269 -0.5282
  150SAPE    HS16547   1.566   0.864   6.930 -1.1288  2.9739  2.5722
  150SAPE   O2116548   1.399   0.904   6.805 -0.0296 -0.3061 -0.3515
  150SAPE   C2116549   1.338   0.810   6.888  0.6860  0.1410 -0.3384
  150SAPE   O2216550   1.360   0.778   7.006 -0.2992 -0.7183 -0.0889
  150SAPE   C2216551   1.216   0.755   6.805 -0.2693 -0.1814 -0.0397
  150SAPE   H2R16552   1.205   0.825   6.719  2.5249 -0.4869 -0.7304
  150SAPE   H2S16553   1.249   0.659   6.761  0.8528 -0.4649  1.3691
  150SAPE    C316554   1.524   1.075   6.927 -0.2036 -0.6305  0.6245
  150SAPE    HX16555   1.473   1.153   6.867  1.8126  0.6018  0.3872
  150SAPE    HY16556   1.628   1.111   6.947 -0.2596 -1.4803  2.7377
  150SAPE   O3116557   1.445   1.070   7.050 -0.1588  0.2162  0.5027
  150SAPE   C3116558   1.501   1.000   7.147  0.6249 -0.3925 -0.9103
  150SAPE   O3216559   1.620   0.968   7.151 -0.4910  0.2456  0.3803
  150SAPE   C3216560   1.388   0.977   7.250  0.4921  0.4049 -0.9305
  150SAPE   H2X16561   1.329   0.898   7.199  1.1302 -0.0058 -1.0525
  150SAPE   H2Y16562   1.329   1.070   7.260  0.7336  0.4232  0.5060
  150SAPE   C2316563   1.074   0.749   6.875 -0.6718  0.3301  0.6895
  150SAPE   H3R16564   0.998   0.749   6.795 -2.5372  0.7293  2.3908
  150SAPE   H3S16565   1.061   0.835   6.944 -1.0200  1.4919 -0.7760
  150SAPE   C2416566   1.044   0.628   6.964 -1.0686 -0.0723 -0.7346
  150SAPE   H4R16567   1.125   0.629   7.040 -0.8998 -0.3764 -0.9068
  150SAPE   H4S16568   1.059   0.526   6.922 -1.5896 -1.0551  1.3804
  150SAPE   C2516569   0.904   0.634   7.017  0.1959  0.0340  0.2227
  150SAPE   H5R16570   0.831   0.670   6.943  0.3780 -0.5551 -0.2461
  150SAPE   C2616571   0.857   0.595   7.138 -0.5356  0.0610 -0.1521
  150SAPE   H6R16572   0.751   0.596   7.165  0.2930 -1.0927  3.6325
  150SAPE   C2716573   0.937   0.539   7.249 -0.0536  0.1362  0.5839
  150SAPE   H7R16574   0.990   0.620   7.303  1.1800  0.5356 -1.1358
  150SAPE   H7S16575   1.014   0.470   7.207  0.4501  1.1119 -0.1622
  150SAPE   C2816576   0.842   0.464   7.338 -0.4617  0.9265 -0.6936
  150SAPE   H8R16577   0.801   0.366   7.309  1.9147 -0.2992 -0.1130
  150SAPE   C2916578   0.805   0.500   7.461 -0.0019 -0.4954  0.4081
  150SAPE   H9R16579   0.738   0.440   7.525  2.6642 -2.1741  1.8125
  150SAPE  C21016580   0.848   0.629   7.536  0.6475  0.2985  0.2373
  150SAPE  H10R16581   0.756   0.678   7.573  0.2712 -0.4716  0.3408
  150SAPE  H10S16582   0.893   0.707   7.471  3.2307 -1.0322  0.3120
  150SAPE  C21116583   0.942   0.612   7.650 -0.1208  0.0181  0.3080
  150SAPE  H11R16584   1.040   0.662   7.641  0.3636 -0.5971  1.8272
  150SAPE  C21216585   0.926   0.535   7.759 -0.1666 -0.7061 -0.4283
  150SAPE  H12R16586   1.004   0.520   7.834 -0.5370 -1.1386 -0.1234
  150SAPE  C21316587   0.799   0.462   7.793  0.6140 -0.1900 -0.3582
  150SAPE  H13R16588   0.711   0.473   7.725  0.1261  2.2096  0.5724
  150SAPE  H13S16589   0.762   0.509   7.886  0.4524  2.2630 -1.5815
  150SAPE  C21416590   0.838   0.317   7.823 -0.0316  0.4564 -0.3097
  150SAPE  H14R16591   0.890   0.272   7.738 -0.6088  1.2095 -1.0762
  150SAPE  C21516592   0.849   0.257   7.940 -0.1354  0.5176 -0.6009
  150SAPE  H15R16593   0.897   0.159   7.952 -2.3740 -0.8494 -1.8903
  150SAPE  C21616594   0.821   0.320   8.082  0.5685 -0.0890  0.6283
  150SAPE  H16R16595   0.820   0.429   8.063  1.5932 -0.5377 -2.6090
  150SAPE  H16S16596   0.890   0.286   8.163  1.8715  0.0482 -0.3873
  150SAPE  C21716597   0.670   0.294   8.105  0.0243  0.7178  0.4021
  150SAPE  H17R16598   0.654   0.185   8.115 -1.2436  0.7981 -0.6299
  150SAPE  H17S16599   0.605   0.330   8.023 -0.7129 -1.0364  0.1695
  150SAPE  C21816600   0.625   0.355   8.239 -0.7957  0.1774  0.4149
  150SAPE  H18R16601   0.514   0.353   8.238 -0.8781  1.0246 -2.3305
  150SAPE  H18S16602   0.655   0.462   8.252 -0.7389  0.3630 -1.0675
  150SAPE  C21916603   0.675   0.274   8.364  0.8371  0.1779  0.0607
  150SAPE  H19R16604   0.783   0.259   8.343  0.7018  0.6624 -1.0456
  150SAPE  H19S16605   0.641   0.169   8.350  2.6520 -0.4109 -0.3427
  150SAPE  C22016606   0.626   0.338   8.494  0.2580  0.1788 -0.2956
  150SAPE  H20R16607   0.650   0.287   8.590 -1.1057 -2.3313 -1.2006
  150SAPE  H20S16608   0.517   0.352   8.485  0.1193  0.2834  1.2683
  150SAPE  H20T16609   0.668   0.440   8.507  0.2568  0.0939  0.4117
  150SAPE   C3316610   1.437   0.930   7.385 -0.5358  0.0203 -0.9076
  150SAPE   H3X16611   1.511   1.002   7.427  0.2134 -2.0646  1.6643
  150SAPE   H3Y16612   1.498   0.838   7.377 -1.4531 -0.6248 -0.6770
  150SAPE   C3416613   1.320   0.913   7.486  0.0819 -0.2421  0.2362
  150SAPE   H4X16614   1.238   0.857   7.435 -0.5226 -1.3158  2.2664
  150SAPE   H4Y16615   1.287   1.017   7.507  0.9371 -0.0875  0.8615
  150SAPE   C3516616   1.355   0.843   7.619  0.2189 -0.8251  0.2124
  150SAPE   H5X16617   1.435   0.907   7.660 -0.7737  0.8298 -0.3397
  150SAPE   H5Y16618   1.392   0.739   7.604 -1.4740 -1.4875  0.3126
  150SAPE   C3616619   1.249   0.820   7.732  0.5947 -0.1974 -0.3686
  150SAPE   H6X16620   1.198   0.726   7.702 -0.6529  0.7625 -1.3542
  150SAPE   H6Y16621   1.166   0.894   7.722  1.2493  0.5441 -0.3845
  150SAPE   C3716622   1.293   0.807   7.879 -0.5142  0.4868 -0.0234
  150SAPE   H7X16623   1.341   0.900   7.915  3.2571 -0.9926 -0.7537
  150SAPE   H7Y16624   1.375   0.732   7.882 -0.3905  0.6350  0.3233
  150SAPE   C3816625   1.180   0.760   7.972 -0.4336 -0.0632 -0.2202
  150SAPE   H8X16626   1.214   0.726   8.072 -0.3467  1.3281  0.2465
  150SAPE   H8Y16627   1.124   0.677   7.924 -1.5039  0.6002 -0.1690
  150SAPE   C3916628   1.079   0.879   7.998  0.1607 -0.0897 -0.2247
  150SAPE   H9X16629   1.044   0.903   7.895  0.4224 -0.2921 -0.3619
  150SAPE   H9Y16630   1.145   0.962   8.032 -0.5598  0.2716  0.3187
  150SAPE  C31016631   0.965   0.842   8.096 -0.3719  0.6058 -0.4590
  150SAPE  H10X16632   0.915   0.939   8.116 -2.0071  0.1086 -1.9102
  150SAPE  H10Y16633   1.003   0.803   8.193  0.8128  1.5601 -0.5184
  150SAPE  C31116634   0.867   0.744   8.035  0.1545  0.3543  0.4081
  150SAPE  H11X16635   0.910   0.642   8.040 -1.0666 -0.1845  0.2708
  150SAPE  H11Y16636   0.849   0.754   7.926 -1.4750 -5.2949 -0.1523
  150SAPE  C31216637   0.730   0.742   8.106  0.4272  0.8756  0.2227
  150SAPE  H12X16638   0.670   0.655   8.071  1.0579  0.8950 -0.9647
  150SAPE  H12Y16639   0.670   0.831   8.077  0.3031  0.6357 -0.2647
  150SAPE  C31316640   0.737   0.726   8.267  0.0085 -0.0167 -1.0500
  150SAPE  H13X16641   0.804   0.806   8.304 -0.6754  0.9959 -1.9204
  150SAPE  H13Y16642   0.794   0.633   8.284 -0.9542 -0.3437  0.6222
  150SAPE  C31416643   0.603   0.739   8.343 -0.3105  0.5647 -0.1354
  150SAPE  H14X16644   0.556   0.639   8.354  1.5723 -0.3225  0.2461
  150SAPE  H14Y16645   0.537   0.795   8.274  0.7390  0.2823 -1.4101
  150SAPE  C31516646   0.618   0.807   8.479 -0.4668 -0.3812  0.1053
  150SAPE  H15X16647   0.685   0.894   8.463 -1.0241  0.3594  1.5992
  150SAPE  H15Y16648   0.677   0.734   8.540  2.7927  1.4669 -0.6121
  150SAPE  C31616649   0.486   0.849   8.549  0.3411  0.5455  0.1102
  150SAPE  H16X16650   0.427   0.756   8.562  2.3239 -0.8405 -0.2678
  150SAPE  H16Y16651   0.432   0.923   8.486  2.4285 -0.0169 -2.5146
  150SAPE  C31716652   0.515   0.899   8.692  0.2703 -0.6907  0.4198
  150SAPE  H17X16653   0.433   0.969   8.722 -0.2579 -0.2097 -1.9629
  150SAPE  H17Y16654   0.613   0.950   8.685 -0.4662  0.5556 -2.1360
  150SAPE  C31816655   0.521   0.784   8.804  0.7375 -0.3663  0.2606
  150SAPE  H18X16656   0.427   0.725   8.804  0.2320  0.3803 -1.1318
  150SAPE  H18Y16657   0.546   0.826   8.903 -0.0726  1.3643 -0.2278
  150SAPE  H18Z16658   0.600   0.710   8.777  0.2586  0.1752 -3.1995
  151SAPE     N16659   2.762   4.303   6.129 -0.5338  0.2526 -0.0601
  151SAPE   HN116660   2.709   4.323   6.042 -2.8405 -1.2935  0.8955
  151SAPE   HN216661   2.717   4.353   6.208  2.6079 -0.5084  2.4256
  151SAPE   HN316662   2.855   4.349   6.119  0.5023 -1.5206  0.7150
  151SAPE   C1216663   2.766   4.154   6.163 -0.4961  0.2634  0.7752
  151SAPE  H12A16664   2.809   4.157   6.266  1.4988  0.0995  0.0030
  151SAPE  H12B16665   2.840   4.097   6.102 -0.2596 -0.2419  1.5081
  151SAPE   C1116666   2.619   4.101   6.155  0.0136  0.2595 -0.6471
  151SAPE  H11A16667   2.589   4.121   6.050  2.8591  2.5782 -1.1587
  151SAPE  H11B16668   2.564   4.156   6.234  1.0467  0.3395  0.0317
  151SAPE     P16669   2.498   3.880   6.246  0.0185 -0.3001  0.5999
  151SAPE   O1316670   2.419   3.824   6.131  0.4766 -0.0738 -0.2547
  151SAPE   O1416671   2.540   3.778   6.345  0.7316  0.4967  0.5440
  151SAPE   O1216672   2.621   3.961   6.184 -0.5180 -0.2127  0.8569
  151SAPE   O1116673   2.408   3.993   6.317 -0.1445 -0.6428  0.4921
  151SAPE    C116674   2.433   4.032   6.449  0.3416  0.2709 -0.3430
  151SAPE    HA16675   2.543   4.048   6.455  0.7580 -1.6006 -1.9825
  151SAPE    HB16676   2.386   4.131   6.466  0.6173  0.6278 -1.5469
  151SAPE    C216677   2.375   3.933   6.562 -0.2211  0.0600 -0.4239
  151SAPE    HS16678   2.448   3.850   6.561  2.0151  1.8893  0.3888
  151SAPE   O2116679   2.239   3.916   6.532 -0.2330  0.2499 -0.4069
  151SAPE   C2116680   2.182   3.801   6.579 -0.2837  0.1030 -0.5494
  151SAPE   O2216681   2.242   3.708   6.632 -0.1764 -0.6275 -0.5011
  151SAPE   C2216682   2.032   3.820   6.558  0.1374  1.5318 -0.2174
  151SAPE   H2R16683   2.008   3.925   6.586  0.2296  1.3801  0.4224
  151SAPE   H2S16684   1.998   3.796   6.455 -2.1323 -0.1712  0.8586
  151SAPE    C316685   2.399   4.003   6.697  0.5492 -0.8747  0.4208
  151SAPE    HX16686   2.346   4.101   6.701 -0.1965 -1.2651  0.2898
  151SAPE    HY16687   2.507   4.028   6.689  0.2401  0.3448 -0.3134
  151SAPE   O3116688   2.366   3.934   6.815 -0.0156 -0.2691 -0.8943
  151SAPE   C3116689   2.452   3.850   6.866 -0.0747  0.2417  0.8298
  151SAPE   O3216690   2.566   3.831   6.825  0.0374  0.3423  0.0808
  151SAPE   C3216691   2.401   3.786   6.994 -0.5317  0.2010 -0.2402
  151SAPE   H2X16692   2.305   3.732   6.977  0.0551 -1.0899  0.4136
  151SAPE   H2Y16693   2.374   3.862   7.071  0.1915 -0.7380  0.9957
  151SAPE   C2316694   1.940   3.731   6.642 -0.1266  0.5278  0.7586
  151SAPE   H3R16695   1.964   3.624   6.621  1.7419  0.8647  1.0585
  151SAPE   H3S16696   1.843   3.748   6.590  0.1496  1.4364  0.5319
  151SAPE   C2416697   1.952   3.780   6.790 -0.4935  0.3974 -0.0200
  151SAPE   H4R16698   1.929   3.888   6.793 -1.4137  0.2786 -1.6179
  151SAPE   H4S16699   2.060   3.771   6.815  0.3355 -0.7150 -3.4007
  151SAPE   C2516700   1.851   3.722   6.883 -0.4701  0.1131  0.1882
  151SAPE   H5R16701   1.751   3.741   6.842 -0.7537  0.1362  0.8857
  151SAPE   C2616702   1.883   3.652   6.989 -0.4174  0.9150  0.1418
  151SAPE   H6R16703   1.797   3.616   7.046 -0.3219 -0.0790 -0.3298
  151SAPE   C2716704   2.016   3.612   7.047  0.1278 -0.1816  0.1432
  151SAPE   H7R16705   2.050   3.694   7.114 -0.2300 -1.1213  1.4994
  151SAPE   H7S16706   2.096   3.613   6.970 -1.3396 -2.2173 -1.5205
  151SAPE   C2816707   2.015   3.480   7.126  0.1992  0.2473 -0.5523
  151SAPE   H8R16708   2.010   3.390   7.063 -0.1789  0.4665 -0.8351
  151SAPE   C2916709   2.015   3.460   7.260 -0.4316  0.3238  0.4518
  151SAPE   H9R16710   2.017   3.356   7.294 -0.3433  0.1871  0.0331
  151SAPE  C21016711   2.018   3.561   7.369  0.0961 -0.2910  0.1399
  151SAPE  H10R16712   2.107   3.623   7.347 -0.4916  1.8418  3.0100
  151SAPE  H10S16713   2.043   3.509   7.464 -0.7921 -0.5069  0.2648
  151SAPE  C21116714   1.901   3.653   7.373 -0.2529 -0.1282 -0.0211
  151SAPE  H11R16715   1.888   3.718   7.285 -2.1197 -0.9279 -0.3759
  151SAPE  C21216716   1.824   3.679   7.482  0.4128  0.2205  0.1124
  151SAPE  H12R16717   1.739   3.746   7.468 -1.5060 -2.4524 -2.0575
  151SAPE  C21316718   1.835   3.611   7.613  0.3884 -0.2548  0.1420
  151SAPE  H13R16719   1.942   3.592   7.637 -0.3620 -0.3324  4.2519
  151SAPE  H13S16720   1.783   3.514   7.605 -1.2061  0.5652  0.1586
  151SAPE  C21416721   1.767   3.695   7.718 -0.3195  0.3516  0.0706
  151SAPE  H14R16722   1.756   3.803   7.699  0.9294  0.4143 -0.4125
  151SAPE  C21516723   1.699   3.644   7.826  0.4392  0.3932  0.4267
  151SAPE  H15R16724   1.659   3.713   7.902  0.4438  2.4424 -1.3511
  151SAPE  C21616725   1.686   3.496   7.868  0.1505  0.3942  0.2279
  151SAPE  H16R16726   1.734   3.424   7.799 -1.7316 -1.8823  1.1628
  151SAPE  H16S16727   1.584   3.453   7.866 -0.2296  0.9268  3.3002
  151SAPE  C21716728   1.740   3.476   8.013 -0.3134  0.3008  0.6776
  151SAPE  H17R16729   1.840   3.518   8.034 -1.3703  2.5831  1.5173
  151SAPE  H17S16730   1.765   3.370   8.030  0.3038  0.1223 -1.1053
  151SAPE  C21816731   1.647   3.516   8.124  0.6110 -0.7876  0.1402
  151SAPE  H18R16732   1.558   3.450   8.123  0.2090 -0.2506 -1.0158
  151SAPE  H18S16733   1.605   3.619   8.121 -0.1789 -1.0866  0.6629
  151SAPE  C21916734   1.717   3.505   8.260 -0.0089 -0.0498 -0.0143
  151SAPE  H19R16735   1.815   3.557   8.265  0.2929 -0.7383  2.6680
  151SAPE  H19S16736   1.726   3.395   8.253 -1.5638 -0.1415 -1.3608
  151SAPE  C22016737   1.623   3.549   8.372  0.1511 -0.1260 -0.0031
  151SAPE  H20R16738   1.541   3.474   8.376  1.5298 -1.7446 -0.8716
  151SAPE  H20S16739   1.678   3.544   8.468  0.1762 -0.1523 -0.0184
  151SAPE  H20T16740   1.570   3.644   8.348  1.7431  0.5486 -1.0742
  151SAPE   C3316741   2.499   3.686   7.061  0.5837  0.2885  0.0171
  151SAPE   H3X16742   2.578   3.742   7.116 -1.4109  2.5192  0.8205
  151SAPE   H3Y16743   2.556   3.626   6.987  0.3315 -1.0169  0.8418
  151SAPE   C3416744   2.433   3.583   7.158 -0.3108 -0.1193  0.6440
  151SAPE   H4X16745   2.449   3.478   7.126  0.2145 -0.1545  1.0096
  151SAPE   H4Y16746   2.326   3.612   7.168  0.2131  1.3959  2.7579
  151SAPE   C3516747   2.510   3.590   7.296 -0.2983  0.7073  0.7417
  151SAPE   H5X16748   2.538   3.687   7.341  1.6149  0.1860  0.7844
  151SAPE   H5Y16749   2.599   3.524   7.286 -1.9691 -1.5857  0.1464
  151SAPE   C3616750   2.412   3.540   7.404  0.3471 -0.2956 -0.6986
  151SAPE   H6X16751   2.370   3.439   7.385  0.6506 -0.4905 -0.3553
  151SAPE   H6Y16752   2.329   3.614   7.412  0.2002 -0.6264  1.6496
  151SAPE   C3716753   2.473   3.527   7.549 -0.0129  0.3627  0.9842
  151SAPE   H7X16754   2.573   3.479   7.537 -0.6804 -0.6487 -1.3668
  151SAPE   H7Y16755   2.408   3.458   7.607 -1.8494  2.3135  1.3815
  151SAPE   C3816756   2.484   3.655   7.617  0.0722 -0.4272 -0.5568
  151SAPE   H8X16757   2.386   3.708   7.612  0.4891  0.5291  0.7806
  151SAPE   H8Y16758   2.559   3.717   7.563  0.7231  1.2421  2.0832
  151SAPE   C3916759   2.524   3.645   7.766 -0.2466  0.1786  0.2056
  151SAPE   H9X16760   2.614   3.578   7.769 -0.7321 -0.6602 -1.9605
  151SAPE   H9Y16761   2.437   3.589   7.806  0.7833 -0.3571  1.8096
  151SAPE  C31016762   2.544   3.784   7.838  0.5806  0.3958 -0.8451
  151SAPE  H10X16763   2.448   3.831   7.806 -0.4583 -2.4301 -2.2389
  151SAPE  H10Y16764   2.630   3.838   7.793  2.7003 -0.4373  1.9442
  151SAPE  C31116765   2.550   3.781   7.993 -0.2092 -0.3063 -0.2888
  151SAPE  H11X16766   2.637   3.723   8.032  0.5913 -1.0032 -2.8895
  151SAPE  H11Y16767   2.461   3.717   8.015 -1.5335  1.1613 -1.1185
  151SAPE  C31216768   2.541   3.913   8.070  0.2529 -0.0917 -0.5529
  151SAPE  H12X16769   2.613   3.987   8.029 -1.3629  0.5620 -2.3425
  151SAPE  H12Y16770   2.575   3.890   8.173 -2.7569  0.9113  0.7702
  151SAPE  C31316771   2.402   3.973   8.075 -0.4060 -0.1184 -0.2194
  151SAPE  H13X16772   2.365   3.997   7.973 -1.2245  0.9244  0.2907
  151SAPE  H13Y16773   2.399   4.067   8.135 -1.7889 -0.6655  0.6198
  151SAPE  C31416774   2.298   3.884   8.134 -0.3618  0.6138 -0.7338
  151SAPE  H14X16775   2.292   3.783   8.088 -0.4790 -0.7929  2.1603
  151SAPE  H14Y16776   2.202   3.939   8.126 -0.9587 -0.2740  0.0559
  151SAPE  C31516777   2.326   3.851   8.283  0.1263 -0.4465  0.3205
  151SAPE  H15X16778   2.337   3.951   8.331 -0.9572  1.1109 -2.4279
  151SAPE  H15Y16779   2.420   3.795   8.299  0.1964 -0.6270 -0.6152
  151SAPE  C31616780   2.198   3.788   8.334 -0.0172 -0.8121 -0.2224
  151SAPE  H16X16781   2.183   3.690   8.285  0.8332 -1.1386  0.1318
  151SAPE  H16Y16782   2.120   3.862   8.306 -1.2205 -1.2859  1.6883
  151SAPE  C31716783   2.194   3.764   8.485  0.4550  0.0767  1.4610
  151SAPE  H17X16784   2.237   3.848   8.544 -1.1827  0.2375  2.5145
  151SAPE  H17Y16785   2.245   3.668   8.503  0.5374 -0.0674  0.4957
  151SAPE  C31816786   2.053   3.748   8.524  0.0850  0.6001 -0.4096
  151SAPE  H18X16787   2.045   3.713   8.629  1.9296  3.7524  0.9228
  151SAPE  H18Y16788   2.006   3.674   8.455 -0.0954 -0.2115  0.5624
  151SAPE  H18Z16789   1.999   3.844   8.522 -2.5438 -0.6223 -5.4501
  152SAPE     N16790   6.223   0.978   5.995  0.2674  0.1218 -0.1983
  152SAPE   HN116791   6.302   1.002   5.933 -1.3184  2.4678 -1.4701
  152SAPE   HN216792   6.136   0.988   5.939  1.1760 -0.4051 -1.7537
  152SAPE   HN316793   6.222   1.048   6.072  2.2399 -0.0677  0.0526
  152SAPE   C1216794   6.240   0.843   6.045  0.2076  0.7203 -0.3215
  152SAPE  H12A16795   6.334   0.849   6.104 -0.1931  3.1622  0.1814
  152SAPE  H12B16796   6.243   0.781   5.953 -0.0836  0.6310 -0.2739
  152SAPE   C1116797   6.121   0.803   6.136  0.0611 -0.2122  0.6092
  152SAPE  H11A16798   6.145   0.703   6.177  0.8120 -0.1211  0.4142
  152SAPE  H11B16799   6.035   0.784   6.069  1.1281 -0.1570 -0.8302
  152SAPE     P16800   5.971   0.862   6.334  0.2962  0.4163 -0.0864
  152SAPE   O1316801   5.946   0.983   6.416  0.4902  0.0321 -0.0945
  152SAPE   O1416802   5.860   0.806   6.253  0.0158 -0.7611 -0.4885
  152SAPE   O1216803   6.102   0.888   6.244  0.0271  1.1809 -0.3532
  152SAPE   O1116804   6.010   0.756   6.445  0.3905 -0.4360  0.1978
  152SAPE    C116805   6.134   0.747   6.515  1.3833  0.2172 -0.4547
  152SAPE    HA16806   6.213   0.705   6.449  0.8331  2.0437 -2.4026
  152SAPE    HB16807   6.155   0.854   6.539 -0.2984  0.6298 -0.6897
  152SAPE    C216808   6.137   0.662   6.642  0.0970 -0.0875  0.1871
  152SAPE    HS16809   6.139   0.560   6.598  0.7770  0.2354 -0.5719
  152SAPE   O2116810   6.035   0.693   6.730  0.6217 -0.5206 -1.1260
  152SAPE   C2116811   5.930   0.606   6.723  0.4581 -0.2756 -0.7828
  152SAPE   O2216812   5.927   0.502   6.659 -0.2712 -0.4397  0.1506
  152SAPE   C2216813   5.813   0.667   6.807 -0.3093  0.6910 -0.4665
  152SAPE   H2R16814   5.719   0.609   6.788 -0.4015  1.3065 -1.9728
  152SAPE   H2S16815   5.842   0.669   6.914  0.2044  0.3271 -0.5964
  152SAPE    C316816   6.271   0.678   6.718 -0.2578  0.0039 -0.8994
  152SAPE    HX16817   6.266   0.785   6.750 -2.2917  0.3485 -2.1981
  152SAPE    HY16818   6.340   0.664   6.632  0.7502 -1.2578  0.0833
  152SAPE   O3116819   6.275   0.586   6.830 -0.3973  0.3973 -0.2732
  152SAPE   C3116820   6.372   0.618   6.914  0.4961  0.4241  0.0479
  152SAPE   O3216821   6.453   0.712   6.913  0.1217 -0.6388 -0.2560
  152SAPE   C3216822   6.366   0.519   7.026  0.7818 -0.4399 -0.7610
  152SAPE   H2X16823   6.455   0.453   7.020  0.3087 -1.1330 -0.2846
  152SAPE   H2Y16824   6.277   0.455   7.010  0.1194 -0.4589  2.3770
  152SAPE   C2316825   5.777   0.811   6.769 -0.2601 -0.2085  0.1349
  152SAPE   H3R16826   5.765   0.817   6.659  0.8134 -0.0280  0.0131
  152SAPE   H3S16827   5.868   0.874   6.782 -1.6077  1.5473  1.4664
  152SAPE   C2416828   5.653   0.859   6.850 -0.8642  0.4764  0.5642
  152SAPE   H4R16829   5.562   0.796   6.841  0.2786 -1.1940  0.3044
  152SAPE   H4S16830   5.622   0.960   6.814 -0.2815  0.3804 -0.2409
  152SAPE   C2516831   5.688   0.881   6.995 -0.0129 -0.4812 -0.0731
  152SAPE   H5R16832   5.796   0.884   7.016  0.3839 -2.0288 -1.5332
  152SAPE   C2616833   5.597   0.898   7.094 -0.4074 -0.4629  0.4808
  152SAPE   H6R16834   5.620   0.920   7.199 -1.9664 -0.6963  0.9025
  152SAPE   C2716835   5.446   0.897   7.075 -0.0613  0.0164 -0.5436
  152SAPE   H7R16836   5.406   0.845   7.165  1.1204  1.2948  0.7606
  152SAPE   H7S16837   5.407   0.826   6.998  0.6583 -2.3054  1.1320
  152SAPE   C2816838   5.382   1.032   7.062  0.0787  0.2092 -0.8094
  152SAPE   H8R16839   5.388   1.072   6.960 -1.1754 -0.7556 -1.2803
  152SAPE   C2916840   5.318   1.095   7.161 -0.8288  0.4002  0.0387
  152SAPE   H9R16841   5.279   1.195   7.139 -0.5200  1.0004  1.9986
  152SAPE  C21016842   5.296   1.050   7.304 -0.2733 -0.6214  0.7824
  152SAPE  H10R16843   5.353   1.116   7.372 -2.5851 -0.1574  2.3637
  152SAPE  H10S16844   5.330   0.945   7.316  2.7296  0.2941  0.9920
  152SAPE  C21116845   5.149   1.062   7.338 -0.1461  0.3959  0.0967
  152SAPE  H11R16846   5.076   1.089   7.260  0.1269 -2.7439 -1.3874
  152SAPE  C21216847   5.096   1.033   7.459  0.3448 -0.0933 -0.3221
  152SAPE  H12R16848   4.988   1.045   7.476  0.7507  2.9380  0.5460
  152SAPE  C21316849   5.172   0.978   7.573 -0.2006  0.3327  0.0351
  152SAPE  H13R16850   5.281   1.000   7.563 -0.2319  1.2434  1.4819
  152SAPE  H13S16851   5.163   0.867   7.576  1.9431  0.0249 -1.8177
  152SAPE  C21416852   5.138   1.045   7.702 -0.0076  0.2564  0.3074
  152SAPE  H14R16853   5.155   1.154   7.704  2.9153 -0.0937 -0.9898
  152SAPE  C21516854   5.075   0.992   7.808  0.5502 -0.2232 -0.1338
  152SAPE  H15R16855   5.054   1.060   7.892  0.5991 -1.0840  0.5910
  152SAPE  C21616856   5.025   0.854   7.817  0.2785  0.6016 -0.0144
  152SAPE  H16R16857   5.051   0.796   7.725  3.1988  2.0363 -0.2213
  152SAPE  H16S16858   4.914   0.855   7.820  0.2463 -0.2395 -0.4584
  152SAPE  C21716859   5.075   0.778   7.947  0.0642  0.4658 -0.2505
  152SAPE  H17R16860   5.185   0.793   7.952 -0.1726  1.8978  1.5540
  152SAPE  H17S16861   5.058   0.668   7.940  1.6710  0.1802 -0.0698
  152SAPE  C21816862   5.008   0.840   8.069 -0.2803 -0.8619 -0.0671
  152SAPE  H18R16863   4.913   0.790   8.096 -1.7630  2.3165  1.1161
  152SAPE  H18S16864   4.968   0.942   8.052  1.5373  0.1004  1.1982
  152SAPE  C21916865   5.093   0.835   8.194 -0.5106 -0.1271 -0.5329
  152SAPE  H19R16866   5.186   0.891   8.172 -0.0220 -0.9247 -0.4872
  152SAPE  H19S16867   5.131   0.735   8.221 -1.3659 -0.3515 -0.1342
  152SAPE  C22016868   5.013   0.890   8.309 -0.0851 -0.1338 -0.2068
  152SAPE  H20R16869   5.047   0.855   8.409  0.6594  1.2927  0.0725
  152SAPE  H20S16870   4.905   0.865   8.300  0.2455 -0.9187 -2.6452
  152SAPE  H20T16871   5.004   1.000   8.305 -2.8476 -0.1298  2.4890
  152SAPE   C3316872   6.365   0.592   7.163  0.3056  0.1275 -0.2703
  152SAPE   H3X16873   6.272   0.649   7.184  0.0385 -0.6860  0.8564
  152SAPE   H3Y16874   6.451   0.662   7.166  0.8160 -0.4183  4.2503
  152SAPE   C3416875   6.406   0.492   7.276 -0.4993 -0.4176  0.8230
  152SAPE   H4X16876   6.499   0.438   7.248  1.3394  2.8189  0.2997
  152SAPE   H4Y16877   6.322   0.420   7.274 -1.1899  0.3919  0.2531
  152SAPE   C3516878   6.418   0.575   7.403 -0.2080 -0.5756  0.2105
  152SAPE   H5X16879   6.323   0.630   7.423 -0.8254 -1.3973 -0.3775
  152SAPE   H5Y16880   6.496   0.654   7.399  0.5771 -1.3133  0.6066
  152SAPE   C3616881   6.452   0.491   7.525 -0.2083  0.2082 -0.1330
  152SAPE   H6X16882   6.552   0.445   7.510 -0.5326 -1.5777  2.4097
  152SAPE   H6Y16883   6.373   0.413   7.520  0.6969 -0.9906  2.3884
  152SAPE   C3716884   6.447   0.572   7.659 -0.3664  0.0159 -0.2393
  152SAPE   H7X16885   6.345   0.612   7.682  0.2601  0.5799  1.7843
  152SAPE   H7Y16886   6.512   0.662   7.654 -1.5953  0.9135 -0.7936
  152SAPE   C3816887   6.496   0.481   7.773 -0.1813 -0.0614 -0.3303
  152SAPE   H8X16888   6.597   0.437   7.756 -0.0016  0.6438 -1.1421
  152SAPE   H8Y16889   6.421   0.401   7.784  0.7779 -0.7151  2.2320
  152SAPE   C3916890   6.504   0.551   7.913  0.2491  0.2372  0.6955
  152SAPE   H9X16891   6.403   0.587   7.942  0.0570  2.0030 -1.7996
  152SAPE   H9Y16892   6.565   0.644   7.909 -0.3419  0.7408  2.4204
  152SAPE  C31016893   6.545   0.462   8.029  0.4275  0.2099  0.0323
  152SAPE  H10X16894   6.650   0.431   8.011  0.3126 -0.1350 -0.0599
  152SAPE  H10Y16895   6.488   0.367   8.042 -1.6737  1.4650  0.4262
  152SAPE  C31116896   6.557   0.543   8.162 -0.1697  0.4217  0.2033
  152SAPE  H11X16897   6.629   0.622   8.132  0.7873 -0.3835  0.3052
  152SAPE  H11Y16898   6.612   0.483   8.237  2.2942 -0.2027 -1.9503
  152SAPE  C31216899   6.428   0.608   8.213 -0.0243 -0.0275  0.1199
  152SAPE  H12X16900   6.363   0.528   8.254  1.6483 -0.6046  1.8194
  152SAPE  H12Y16901   6.381   0.665   8.131  0.4722 -0.2563 -0.3309
  152SAPE  C31316902   6.464   0.705   8.334 -0.2350  0.5112  0.8025
  152SAPE  H13X16903   6.527   0.788   8.296  0.9622 -0.9632 -0.5476
  152SAPE  H13Y16904   6.515   0.641   8.409  1.7363  0.5584 -0.4308
  152SAPE  C31416905   6.335   0.761   8.389 -0.1484 -0.2009  0.0452
  152SAPE  H14X16906   6.264   0.676   8.404  0.2175 -0.5804 -0.3517
  152SAPE  H14Y16907   6.292   0.824   8.307  0.5833 -1.4880 -1.3835
  152SAPE  C31516908   6.351   0.843   8.521 -0.0670 -0.6341 -0.0226
  152SAPE  H15X16909   6.411   0.932   8.493 -0.9687  0.8395  2.3954
  152SAPE  H15Y16910   6.406   0.782   8.596  0.9518  0.2138 -0.0581
  152SAPE  C31616911   6.212   0.878   8.585 -0.4497  0.6473 -0.1460
  152SAPE  H16X16912   6.213   0.868   8.696 -3.3254  2.0425  0.0946
  152SAPE  H16Y16913   6.134   0.808   8.548 -1.1142 -0.3881  2.8628
  152SAPE  C31716914   6.159   1.012   8.542  0.3804 -0.3337 -0.3009
  152SAPE  H17X16915   6.157   1.015   8.431 -2.1401 -2.1297 -0.3745
  152SAPE  H17Y16916   6.225   1.092   8.582  1.5991 -0.8297 -1.2567
  152SAPE  C31816917   6.015   1.042   8.586  0.4185 -0.2699  0.1402
  152SAPE  H18X16918   6.030   1.038   8.696  2.9264  0.2980 -0.1416
  152SAPE  H18Y16919   5.952   0.959   8.546  0.5480  0.4431 -1.6368
  152SAPE  H18Z16920   5.975   1.141   8.555 -1.1874 -1.0739 -0.5163
  153SAPE     N16921   3.270   0.472   6.138 -0.0606 -0.1192 -0.5965
  153SAPE   HN116922   3.321   0.425   6.061 -0.9684  0.5120 -1.5989
  153SAPE   HN216923   3.190   0.525   6.099  0.5771  0.4021 -1.2242
  153SAPE   HN316924   3.338   0.540   6.179  1.9954 -3.1365  1.4481
  153SAPE   C1216925   3.228   0.364   6.236 -0.8739  0.2220  0.1512
  153SAPE  H12A16926   3.180   0.416   6.321  1.8565  0.0807  1.9127
  153SAPE  H12B16927   3.320   0.315   6.274 -0.2739 -0.1008 -1.5996
  153SAPE   C1116928   3.131   0.268   6.170  0.7219 -0.3776 -0.3614
  153SAPE  H11A16929   3.120   0.177   6.232  0.6851 -1.0562 -1.3363
  153SAPE  H11B16930   3.178   0.235   6.076  1.1718  0.3070 -0.3814
  153SAPE     P16931   2.884   0.331   6.227  0.2405  0.1296  0.6531
  153SAPE   O1316932   2.793   0.437   6.183  0.0719  0.0279  0.2761
  153SAPE   O1416933   2.816   0.198   6.234 -0.0812  0.0877 -0.9162
  153SAPE   O1216934   3.010   0.338   6.134 -0.0402 -0.1624 -0.1579
  153SAPE   O1116935   2.943   0.361   6.367 -0.4799 -0.5831 -0.1062
  153SAPE    C116936   2.955   0.500   6.408 -0.2473  0.3564 -0.1133
  153SAPE    HA16937   3.019   0.563   6.344 -1.5190  3.0021  1.0470
  153SAPE    HB16938   2.855   0.545   6.429 -1.4386 -2.0553 -0.2373
  153SAPE    C216939   3.029   0.499   6.547 -0.2252 -0.3365 -0.3468
  153SAPE    HS16940   3.133   0.468   6.525  0.4715  1.9783 -0.5981
  153SAPE   O2116941   2.969   0.421   6.648 -0.1801 -0.5778 -0.6923
  153SAPE   C2116942   3.047   0.343   6.719  1.0135 -0.1853 -0.2202
  153SAPE   O2216943   3.158   0.310   6.698 -0.3658  0.4199  0.5260
  153SAPE   C2216944   2.971   0.306   6.847  0.0002  0.0312  0.2257
  153SAPE   H2R16945   2.960   0.399   6.907  1.4846 -0.9950  2.2077
  153SAPE   H2S16946   2.877   0.256   6.816  0.3112  0.0637 -0.7977
  153SAPE    C316947   3.038   0.645   6.606  0.4822 -0.1794  0.4126
  153SAPE    HX16948   2.951   0.691   6.657 -0.4267 -2.3699  0.9331
  153SAPE    HY16949   3.062   0.718   6.525  1.1688 -0.8168  0.0265
  153SAPE   O3116950   3.130   0.644   6.716  0.3814 -0.1645  0.2349
  153SAPE   C3116951   3.252   0.687   6.688 -0.1549 -0.9640 -0.0776
  153SAPE   O3216952   3.293   0.721   6.576  0.0692  0.6158 -0.0318
  153SAPE   C3216953   3.334   0.659   6.818  0.3469 -0.2509  0.0085
  153SAPE   H2X16954   3.290   0.719   6.900  0.0039 -1.2421  0.5658
  153SAPE   H2Y16955   3.437   0.691   6.793 -0.1435 -1.2754 -4.1505
  153SAPE   C2316956   3.043   0.214   6.941  0.6838  0.1069 -0.3735
  153SAPE   H3R16957   3.129   0.276   6.974 -0.2725  0.8356  0.8387
  153SAPE   H3S16958   3.084   0.128   6.884  4.2764  1.3606  0.0552
  153SAPE   C2416959   2.944   0.167   7.051 -0.4072 -0.7244 -0.7683
  153SAPE   H4R16960   2.987   0.075   7.095 -0.3311 -0.4286 -0.2104
  153SAPE   H4S16961   2.843   0.138   7.014 -0.5144 -0.0730 -1.0056
  153SAPE   C2516962   2.916   0.269   7.160  0.4623  0.1094  0.0689
  153SAPE   H5R16963   2.847   0.345   7.122 -0.1812 -0.6031 -0.2058
  153SAPE   C2616964   2.958   0.257   7.290 -0.3436  0.1721  0.6737
  153SAPE   H6R16965   2.951   0.336   7.366 -1.8340  0.1844  0.5582
  153SAPE   C2716966   3.051   0.145   7.324  0.1466  0.1379 -0.1117
  153SAPE   H7R16967   3.137   0.143   7.253 -1.1782  0.7492 -1.7966
  153SAPE   H7S16968   2.986   0.057   7.304 -2.9841  2.7400 -2.5937
  153SAPE   C2816969   3.104   0.158   7.469 -0.1724 -0.5686 -0.2350
  153SAPE   H8R16970   3.211   0.181   7.480 -0.0780 -1.3719  0.6675
  153SAPE   C2916971   3.043   0.141   7.589  0.5612 -0.9110  0.3958
  153SAPE   H9R16972   3.091   0.167   7.685  1.0072 -0.4917  0.0641
  153SAPE  C21016973   2.900   0.103   7.607  0.7417  0.4153 -0.2376
  153SAPE  H10R16974   2.837   0.104   7.516  2.3465 -1.0867 -1.4403
  153SAPE  H10S16975   2.851   0.164   7.686  1.1905  0.8334 -0.2720
  153SAPE  C21116976   2.898  -0.038   7.658  0.1374 -0.3511  0.6830
  153SAPE  H11R16977   2.964  -0.113   7.612 -1.6621 -1.1034 -0.8278
  153SAPE  C21216978   2.812  -0.083   7.757 -0.4819  0.2177  1.2571
  153SAPE  H12R16979   2.799  -0.192   7.765  1.2166 -0.1177 -0.0229
  153SAPE  C21316980   2.702  -0.007   7.825 -0.0177 -0.6715 -0.7092
  153SAPE  H13R16981   2.602  -0.040   7.790 -0.2147  1.3958 -2.2678
  153SAPE  H13S16982   2.694   0.102   7.803 -2.9441  0.1200  3.3128
  153SAPE  C21416983   2.706  -0.034   7.970  0.3610  0.8449  0.5149
  153SAPE  H14R16984   2.607  -0.065   8.010  0.6084  0.2903  0.7140
  153SAPE  C21516985   2.809  -0.007   8.054  0.1782 -0.1589 -0.3515
  153SAPE  H15R16986   2.812  -0.033   8.161  0.0499 -0.9524 -0.5303
  153SAPE  C21616987   2.939   0.048   8.030  0.2671  0.6981  0.1263
  153SAPE  H16R16988   2.938   0.087   7.926 -1.5915 -0.3532 -0.3024
  153SAPE  H16S16989   3.023  -0.026   8.030 -0.0256  0.2793 -2.1242
  153SAPE  C21716990   2.987   0.151   8.142 -0.1390  0.5465  0.2686
  153SAPE  H17R16991   3.089   0.189   8.120 -0.4628  1.0581 -0.4026
  153SAPE  H17S16992   3.010   0.098   8.236 -1.3869  2.1756  1.5501
  153SAPE  C21816993   2.893   0.269   8.158  0.2044 -0.5493 -0.3186
  153SAPE  H18R16994   2.927   0.326   8.247  0.9354 -0.8253 -0.4179
  153SAPE  H18S16995   2.795   0.234   8.198 -0.8315  1.8186 -0.6240
  153SAPE  C21916996   2.884   0.364   8.040 -0.4069 -0.2380  0.7891
  153SAPE  H19R16997   2.875   0.298   7.951  1.3816  1.4977 -0.7873
  153SAPE  H19S16998   2.981   0.418   8.038  0.7038 -2.0890  1.8820
  153SAPE  C22016999   2.785   0.479   8.049 -1.1957 -0.0536  0.0277
  153SAPE  H20R17000   2.778   0.533   7.952  3.4230 -0.5380 -0.8194
  153SAPE  H20S17001   2.808   0.550   8.131 -2.7786  1.2003 -0.5554
  153SAPE  H20T17002   2.681   0.440   8.057 -0.4440 -3.0445 -2.6305
  153SAPE   C3317003   3.324   0.513   6.857  0.6691 -0.0864  0.7850
  153SAPE   H3X17004   3.352   0.448   6.772  0.6743 -2.4898  2.5136
  153SAPE   H3Y17005   3.226   0.486   6.903  1.8142 -1.0263  2.8358
  153SAPE   C3417006   3.425   0.473   6.960  0.6587 -0.6932 -0.2240
  153SAPE   H4X17007   3.523   0.477   6.908  1.0952 -1.1445  0.5437
  153SAPE   H4Y17008   3.413   0.368   6.995  0.4530 -0.4828  0.3474
  153SAPE   C3517009   3.418   0.561   7.087 -0.2939  0.0415  0.0622
  153SAPE   H5X17010   3.438   0.669   7.069 -1.9384  0.3664 -0.0508
  153SAPE   H5Y17011   3.488   0.536   7.170  2.5366  0.7984 -1.9723
  153SAPE   C3617012   3.283   0.561   7.168 -0.2399  1.1921  0.1885
  153SAPE   H6X17013   3.247   0.456   7.173 -1.2709  1.5850  2.1992
  153SAPE   H6Y17014   3.205   0.619   7.115  0.9600  1.4749 -1.3159
  153SAPE   C3717015   3.303   0.611   7.314  0.0849 -0.0526 -0.7910
  153SAPE   H7X17016   3.317   0.719   7.335  3.3520 -0.7204  1.0697
  153SAPE   H7Y17017   3.389   0.560   7.362 -0.5684  0.0623  0.5556
  153SAPE   C3817018   3.184   0.571   7.407 -0.3603  0.3075  0.2062
  153SAPE   H8X17019   3.166   0.462   7.397 -2.7057  0.8588 -3.0746
  153SAPE   H8Y17020   3.096   0.621   7.360 -0.1369  0.3891 -0.1311
  153SAPE   C3917021   3.195   0.606   7.555  0.1044  1.1624  0.3985
  153SAPE   H9X17022   3.223   0.713   7.560  1.4737  0.8122  0.7877
  153SAPE   H9Y17023   3.283   0.547   7.590  1.3484  2.7365  0.0663
  153SAPE  C31017024   3.069   0.569   7.639 -0.6433  0.0859 -0.6388
  153SAPE  H10X17025   3.062   0.459   7.650 -1.2268  0.1677 -0.1209
  153SAPE  H10Y17026   2.971   0.597   7.593 -1.1727 -1.0175 -0.2243
  153SAPE  C31117027   3.073   0.635   7.782 -0.0881 -0.4575 -0.4606
  153SAPE  H11X17028   2.980   0.612   7.838  1.8434 -5.3117  1.3015
  153SAPE  H11Y17029   3.090   0.744   7.768  0.7086 -0.7300 -1.8879
  153SAPE  C31217030   3.182   0.568   7.872 -0.2687 -0.4110  0.5058
  153SAPE  H12X17031   3.276   0.600   7.823 -2.0859  0.1804 -2.8743
  153SAPE  H12Y17032   3.176   0.457   7.871  0.8313 -0.5451  2.7030
  153SAPE  C31317033   3.183   0.616   8.023 -0.5127  0.1864 -0.8207
  153SAPE  H13X17034   3.077   0.637   8.051  0.1127  4.1907 -0.8361
  153SAPE  H13Y17035   3.233   0.710   8.054  1.4896 -1.5961  1.7237
  153SAPE  C31417036   3.230   0.502   8.119 -0.5115 -0.1428 -0.5190
  153SAPE  H14X17037   3.341   0.510   8.113 -0.5215  1.8939  0.9099
  153SAPE  H14Y17038   3.191   0.404   8.085 -1.2860  0.3129 -0.9769
  153SAPE  C31517039   3.189   0.512   8.265  0.6075 -0.0279  0.0255
  153SAPE  H15X17040   3.082   0.482   8.264  0.7180 -0.8956 -4.5408
  153SAPE  H15Y17041   3.193   0.609   8.320  0.7670 -0.1939  0.3124
  153SAPE  C31617042   3.251   0.397   8.348 -0.2281 -0.2850  0.1438
  153SAPE  H16X17043   3.359   0.424   8.348  0.1241 -1.5745  1.2457
  153SAPE  H16Y17044   3.232   0.310   8.283  0.3973 -0.3426  0.0318
  153SAPE  C31717045   3.200   0.386   8.493 -0.9600  0.1414 -0.4000
  153SAPE  H17X17046   3.185   0.492   8.523  0.7014 -0.0730  1.3591
  153SAPE  H17Y17047   3.276   0.345   8.563 -2.4930 -2.5976 -0.2165
  153SAPE  C31817048   3.071   0.311   8.507  0.2959  0.2588  0.0684
  153SAPE  H18X17049   3.076   0.201   8.500 -0.6996  0.1813  0.5068
  153SAPE  H18Y17050   3.007   0.361   8.431  3.2147  1.9471 -1.4719
  153SAPE  H18Z17051   3.030   0.329   8.609 -1.3253 -2.2941 -0.0550
  154SAPE     N17052   0.819   2.795   6.366  0.1316 -0.6121 -0.0972
  154SAPE   HN117053   0.803   2.889   6.408  0.1142 -0.8904  0.5163
  154SAPE   HN217054   0.734   2.738   6.383 -0.8528  1.2136  1.4561
  154SAPE   HN317055   0.898   2.759   6.423 -0.5356 -1.0637  0.5515
  154SAPE   C1217056   0.867   2.805   6.221  0.9414  0.2807  0.4066
  154SAPE  H12A17057   0.776   2.835   6.165  1.1721  0.7513  0.2747
  154SAPE  H12B17058   0.883   2.701   6.185 -1.0610  0.2907 -0.6848
  154SAPE   C1117059   0.978   2.905   6.206 -0.5706 -0.3972 -0.1702
  154SAPE  H11A17060   0.948   3.000   6.255  1.7786  0.0230  0.5939
  154SAPE  H11B17061   1.005   2.934   6.102  1.8809 -0.5513  0.3634
  154SAPE     P17062   1.221   2.793   6.205  0.0819  0.0041 -0.5373
  154SAPE   O1317063   1.171   2.758   6.069 -0.0195 -0.1297  0.5339
  154SAPE   O1417064   1.335   2.887   6.211 -0.3226  0.1599  0.2353
  154SAPE   O1217065   1.093   2.854   6.278 -0.2154 -0.0463  0.2471
  154SAPE   O1117066   1.247   2.663   6.288  0.1154  0.0489 -0.4560
  154SAPE    C117067   1.132   2.574   6.327 -0.2098  0.2931  0.6639
  154SAPE    HA17068   1.030   2.616   6.318  0.5249  1.7476 -1.5496
  154SAPE    HB17069   1.137   2.482   6.266  0.5048  0.5242  0.3650
  154SAPE    C217070   1.152   2.543   6.478  0.1817  0.2961 -0.1063
  154SAPE    HS17071   1.058   2.503   6.521  1.4862 -1.3676  1.3807
  154SAPE   O2117072   1.204   2.652   6.551  0.5624 -0.6869 -0.2198
  154SAPE   C2117073   1.124   2.758   6.566  0.0627  0.1995 -0.1498
  154SAPE   O2217074   1.003   2.758   6.556 -0.3014  0.4490 -0.0196
  154SAPE   C2217075   1.196   2.887   6.609  0.0431 -0.4950 -0.3873
  154SAPE   H2R17076   1.306   2.870   6.617  0.3687  1.4960  0.0343
  154SAPE   H2S17077   1.169   2.965   6.534  0.5221 -0.6432 -0.7200
  154SAPE    C317078   1.254   2.420   6.496 -0.1730 -0.1666 -0.2701
  154SAPE    HX17079   1.345   2.451   6.440 -0.4883 -3.2179 -2.8047
  154SAPE    HY17080   1.221   2.329   6.442  0.0971  0.0432 -0.7963
  154SAPE   O3117081   1.290   2.392   6.636  0.2796 -0.6173 -0.1969
  154SAPE   C3117082   1.192   2.342   6.701 -0.0390  0.0930 -0.7624
  154SAPE   O3217083   1.083   2.306   6.656  0.1253 -0.5513  0.3722
  154SAPE   C3217084   1.242   2.307   6.847  0.3046 -0.1437  1.1095
  154SAPE   H2X17085   1.353   2.306   6.837  0.3607  2.0276  0.9346
  154SAPE   H2Y17086   1.215   2.200   6.859 -1.3225 -0.0200 -0.9689
  154SAPE   C2317087   1.132   2.914   6.745 -0.3665 -0.6794  0.0992
  154SAPE   H3R17088   1.021   2.904   6.749 -0.4769  0.2323  4.1850
  154SAPE   H3S17089   1.150   3.019   6.779 -1.7920 -1.5264  4.1134
  154SAPE   C2417090   1.185   2.822   6.856  0.0005  0.2939 -0.0236
  154SAPE   H4R17091   1.185   2.718   6.819  2.6552  0.4919 -0.8114
  154SAPE   H4S17092   1.116   2.838   6.941  0.6523  1.6838  0.2820
  154SAPE   C2517093   1.325   2.852   6.901 -0.2553 -0.2021 -0.2937
  154SAPE   H5R17094   1.402   2.839   6.823 -0.2289  0.3063 -0.3553
  154SAPE   C2617095   1.373   2.890   7.021 -0.6490 -0.8098  0.6872
  154SAPE   H6R17096   1.482   2.905   7.025 -0.7432 -0.0678  0.5135
  154SAPE   C2717097   1.291   2.914   7.145  0.5664 -0.2087 -0.7648
  154SAPE   H7R17098   1.188   2.938   7.111  0.8673  1.1097 -0.7919
  154SAPE   H7S17099   1.334   3.003   7.196 -1.7159  0.4920  0.0691
  154SAPE   C2817100   1.285   2.789   7.232 -1.1605  0.7520 -0.0772
  154SAPE   H8R17101   1.296   2.700   7.169 -1.9871  0.9304 -0.4858
  154SAPE   C2917102   1.285   2.784   7.367  0.7034  0.3360 -0.2259
  154SAPE   H9R17103   1.285   2.687   7.421 -0.7177  1.0612  1.1743
  154SAPE  C21017104   1.300   2.905   7.450  0.2083 -0.4054 -1.0311
  154SAPE  H10R17105   1.245   2.991   7.405 -0.5259 -0.3770 -0.1060
  154SAPE  H10S17106   1.402   2.948   7.444  0.0689 -0.1281 -1.4870
  154SAPE  C21117107   1.261   2.871   7.592 -0.1289  0.3270  0.2603
  154SAPE  H11R17108   1.159   2.899   7.622 -0.2972  1.6950 -1.4460
  154SAPE  C21217109   1.343   2.837   7.695 -0.4223  0.1929 -0.3136
  154SAPE  H12R17110   1.287   2.816   7.788  0.2426  0.1953  0.0915
  154SAPE  C21317111   1.493   2.815   7.688 -0.7809 -0.1648  0.6215
  154SAPE  H13R17112   1.547   2.905   7.725 -0.5458  0.4750 -1.1715
  154SAPE  H13S17113   1.522   2.799   7.582 -1.1305 -0.1601  0.5214
  154SAPE  C21417114   1.529   2.687   7.757 -0.4784  0.6040 -0.0704
  154SAPE  H14R17115   1.508   2.593   7.702  2.5788 -0.2307 -0.0280
  154SAPE  C21517116   1.548   2.675   7.889  0.6426 -0.2684  0.3823
  154SAPE  H15R17117   1.571   2.574   7.925  0.8002 -0.8675 -1.3065
  154SAPE  C21617118   1.543   2.788   7.986 -1.1414 -0.8317  0.1797
  154SAPE  H16R17119   1.455   2.853   7.969  0.1058  0.7801 -0.3771
  154SAPE  H16S17120   1.634   2.848   7.965 -0.9655 -0.2121  2.4580
  154SAPE  C21717121   1.556   2.748   8.136 -0.5290  0.4392  0.0293
  154SAPE  H17R17122   1.482   2.671   8.165  0.6422 -0.5458  0.5010
  154SAPE  H17S17123   1.531   2.841   8.191 -0.3794 -0.3777  1.5503
  154SAPE  C21817124   1.693   2.701   8.169 -0.5696  0.0687 -0.1932
  154SAPE  H18R17125   1.764   2.784   8.148 -0.1208  0.2400  1.8109
  154SAPE  H18S17126   1.727   2.631   8.090 -0.9806  1.2737 -1.4750
  154SAPE  C21917127   1.711   2.660   8.318 -0.5238 -0.2611  0.0910
  154SAPE  H19R17128   1.621   2.602   8.347 -0.8070 -1.5308 -2.9208
  154SAPE  H19S17129   1.708   2.746   8.388  0.3534 -2.7861  3.4886
  154SAPE  C22017130   1.835   2.569   8.332 -0.0313 -0.2469  0.4273
  154SAPE  H20R17131   1.840   2.497   8.248 -0.8867  0.2630 -0.0657
  154SAPE  H20S17132   1.828   2.527   8.435 -0.8152  0.7145  0.7840
  154SAPE  H20T17133   1.922   2.639   8.337 -0.9551  0.8745  1.6666
  154SAPE   C3317134   1.188   2.395   6.958 -0.2975 -0.1364 -0.3298
  154SAPE   H3X17135   1.080   2.403   6.935 -0.2130 -1.5726 -1.3379
  154SAPE   H3Y17136   1.228   2.498   6.941 -2.1975  0.7696  0.3918
  154SAPE   C3417137   1.205   2.319   7.093 -0.0710 -0.0021 -0.4303
  154SAPE   H4X17138   1.307   2.303   7.131 -1.1021 -1.0584  2.1095
  154SAPE   H4Y17139   1.152   2.222   7.085  0.5702 -0.3657 -0.2980
  154SAPE   C3517140   1.151   2.404   7.215  0.3316  0.0885  0.2623
  154SAPE   H5X17141   1.044   2.427   7.192  0.0790  1.1167  2.2872
  154SAPE   H5Y17142   1.208   2.499   7.226 -0.0022  0.7339 -2.6784
  154SAPE   C3617143   1.143   2.325   7.349  0.5924 -0.2296  0.5463
  154SAPE   H6X17144   1.133   2.215   7.336 -1.5669 -0.1310  1.1114
  154SAPE   H6Y17145   1.052   2.353   7.405  1.7478  2.8013  1.1191
  154SAPE   C3717146   1.261   2.351   7.435  0.0127 -0.3002 -0.1344
  154SAPE   H7X17147   1.275   2.458   7.460  1.2728  0.0593 -2.0998
  154SAPE   H7Y17148   1.356   2.316   7.388 -0.1719 -2.0260  0.7053
  154SAPE   C3817149   1.243   2.287   7.574 -0.4023  0.2403 -0.7861
  154SAPE   H8X17150   1.251   2.177   7.565 -1.3575  0.0973 -0.0037
  154SAPE   H8Y17151   1.136   2.297   7.603 -0.0509 -0.3157  0.8111
  154SAPE   C3917152   1.332   2.351   7.679  0.2815 -0.1027  0.4124
  154SAPE   H9X17153   1.289   2.451   7.700 -1.8461  0.0154 -3.5486
  154SAPE   H9Y17154   1.432   2.366   7.634 -0.6095  1.0171 -1.2917
  154SAPE  C31017155   1.325   2.268   7.802 -0.0301 -0.5337 -0.0209
  154SAPE  H10X17156   1.392   2.179   7.793  0.9505  0.1368  0.4132
  154SAPE  H10Y17157   1.230   2.227   7.841 -0.2434  0.6124  0.7123
  154SAPE  C31117158   1.386   2.340   7.925  0.3939 -0.5490  0.6262
  154SAPE  H11X17159   1.336   2.439   7.925  0.8729 -0.2067 -2.2947
  154SAPE  H11Y17160   1.496   2.353   7.916  0.5981 -2.1445  0.5317
  154SAPE  C31217161   1.355   2.265   8.062  0.3789 -0.9701  0.0573
  154SAPE  H12X17162   1.379   2.157   8.050 -0.0545 -0.9367 -1.1944
  154SAPE  H12Y17163   1.245   2.274   8.076  0.6444 -1.2839  3.0315
  154SAPE  C31317164   1.440   2.319   8.175  0.9980 -0.2561  0.2107
  154SAPE  H13X17165   1.417   2.427   8.187 -1.1272 -0.5312 -0.9679
  154SAPE  H13Y17166   1.549   2.318   8.154  1.6315 -0.9706  3.0357
  154SAPE  C31417167   1.422   2.236   8.302 -0.7086  0.2366  0.8229
  154SAPE  H14X17168   1.462   2.134   8.284 -0.7376  0.4539 -0.6490
  154SAPE  H14Y17169   1.319   2.230   8.342 -0.7215  0.5194  0.8382
  154SAPE  C31517170   1.510   2.296   8.412 -0.4020  0.1542 -0.5699
  154SAPE  H15X17171   1.504   2.407   8.404 -1.4515  0.2174  0.8683
  154SAPE  H15Y17172   1.617   2.272   8.390 -0.1500  0.3159  0.4479
  154SAPE  C31617173   1.463   2.251   8.550 -0.8916  0.0707  0.7698
  154SAPE  H16X17174   1.353   2.246   8.539 -0.6066 -1.5564 -2.3272
  154SAPE  H16Y17175   1.491   2.336   8.616 -2.3310  1.1140  0.0674
  154SAPE  C31717176   1.519   2.108   8.595 -0.1591 -0.0965  0.9600
  154SAPE  H17X17177   1.461   2.033   8.538  0.1217 -0.6096  1.3381
  154SAPE  H17Y17178   1.491   2.106   8.702 -0.5479  2.7324  0.9803
  154SAPE  C31817179   1.670   2.072   8.580  0.5671 -0.3125 -0.7127
  154SAPE  H18X17180   1.737   2.147   8.628  0.8128 -0.9580 -0.0171
  154SAPE  H18Y17181   1.698   2.050   8.475  2.4067 -0.4585 -0.2342
  154SAPE  H18Z17182   1.682   1.981   8.643 -1.2286  1.4790  2.4955
  155SAPE     N17183   0.659   1.370   6.274 -0.0269  0.4308 -0.1451
  155SAPE   HN117184   0.746   1.354   6.219 -0.5589  1.0373 -1.1942
  155SAPE   HN217185   0.662   1.471   6.296  0.1517  0.2117  0.8452
  155SAPE   HN317186   0.661   1.314   6.361  0.4350  2.0097  0.8933
  155SAPE   C1217187   0.536   1.348   6.199  0.5282 -0.2649  0.6866
  155SAPE  H12A17188   0.522   1.246   6.159 -0.9403  0.5482 -1.0357
  155SAPE  H12B17189   0.528   1.423   6.117 -3.2550 -1.2798 -0.0608
  155SAPE   C1117190   0.412   1.374   6.286  0.8185  0.5180 -0.3624
  155SAPE  H11A17191   0.386   1.482   6.285 -0.2717  0.2701 -0.4192
  155SAPE  H11B17192   0.436   1.341   6.389  2.8134 -0.2424 -1.0278
  155SAPE     P17193   0.215   1.211   6.329  0.1747  0.3327 -0.5495
  155SAPE   O1317194   0.081   1.187   6.271 -0.4998 -0.0726  0.2015
  155SAPE   O1417195   0.299   1.086   6.333 -0.9165 -0.0839 -0.3561
  155SAPE   O1217196   0.295   1.305   6.233 -0.2874 -0.4409 -0.3263
  155SAPE   O1117197   0.204   1.296   6.465  0.1181 -0.0911 -0.1582
  155SAPE    C117198   0.115   1.411   6.471 -0.5532 -0.6673  0.5969
  155SAPE    HA17199   0.137   1.488   6.395  0.6372 -1.8636 -0.3052
  155SAPE    HB17200   0.010   1.380   6.452 -0.7285 -0.5304  1.2898
  155SAPE    C217201   0.127   1.474   6.610 -0.3336 -0.1631  0.1018
  155SAPE    HS17202   0.063   1.566   6.608 -0.4470 -0.2353 -2.0604
  155SAPE   O2117203   0.266   1.511   6.646 -0.1623  0.7144 -0.5059
  155SAPE   C2117204   0.324   1.605   6.570  0.9235  0.4962 -0.6157
  155SAPE   O2217205   0.275   1.646   6.467  0.2130 -0.2487  0.6139
  155SAPE   C2217206   0.446   1.663   6.644  0.1836 -0.0606  0.2291
  155SAPE   H2R17207   0.515   1.682   6.558  1.1963 -0.6394  0.8962
  155SAPE   H2S17208   0.418   1.753   6.702  1.2352 -0.8224  1.9793
  155SAPE    C317209   0.069   1.370   6.706 -0.7085  0.4741 -0.2578
  155SAPE    HX17210   0.096   1.263   6.693  1.9089  0.4880  3.6014
  155SAPE    HY17211  -0.038   1.370   6.676 -0.6400  1.8490 -0.5421
  155SAPE   O3117212   0.088   1.411   6.840 -0.3621  0.2169 -0.6294
  155SAPE   C3117213   0.134   1.317   6.938  0.2272 -0.1702  0.8443
  155SAPE   O3217214   0.170   1.200   6.920  0.2788 -0.3171  0.0775
  155SAPE   C3217215   0.136   1.383   7.070 -0.4861  0.9295  0.0695
  155SAPE   H2X17216   0.054   1.459   7.063  0.2372  1.5285 -3.7254
  155SAPE   H2Y17217   0.231   1.439   7.083 -0.2634  0.7029 -0.5632
  155SAPE   C2317218   0.517   1.560   6.741 -0.5778 -0.3763 -0.0664
  155SAPE   H3R17219   0.563   1.487   6.671  0.5172  0.0257  0.2165
  155SAPE   H3S17220   0.444   1.511   6.808  0.7423 -2.4316 -0.0472
  155SAPE   C2417221   0.615   1.629   6.834 -0.6728  0.2243 -0.8788
  155SAPE   H4R17222   0.562   1.707   6.894 -1.1781 -1.4157  0.9150
  155SAPE   H4S17223   0.698   1.678   6.778  1.3568 -2.1118 -0.1313
  155SAPE   C2517224   0.683   1.538   6.928 -0.2017  0.0786  0.1557
  155SAPE   H5R17225   0.747   1.469   6.871 -1.5159  0.2408 -1.6008
  155SAPE   C2617226   0.669   1.514   7.055 -0.2613  0.3852  0.0412
  155SAPE   H6R17227   0.748   1.455   7.105 -0.7433  1.4953  2.2264
  155SAPE   C2717228   0.575   1.573   7.157  0.1380 -1.2279  0.0952
  155SAPE   H7R17229   0.495   1.633   7.109  0.6302  0.7150  1.5461
  155SAPE   H7S17230   0.629   1.653   7.213 -0.6932 -1.4749  1.2751
  155SAPE   C2817231   0.511   1.473   7.252  0.0826  0.8956 -0.5425
  155SAPE   H8R17232   0.455   1.391   7.205 -1.1771  1.6323 -0.3816
  155SAPE   C2917233   0.506   1.481   7.386  0.0120 -0.2366  0.2872
  155SAPE   H9R17234   0.454   1.398   7.437 -1.0263 -0.1391 -0.5753
  155SAPE  C21017235   0.564   1.592   7.465 -0.3750 -0.2010  0.4360
  155SAPE  H10R17236   0.497   1.609   7.552  0.9296  0.2064  1.3973
  155SAPE  H10S17237   0.552   1.683   7.402 -1.4000  0.9481  2.1730
  155SAPE  C21117238   0.704   1.584   7.520  0.3067 -0.8100 -0.0622
  155SAPE  H11R17239   0.774   1.592   7.435  1.6236  0.9639  1.1174
  155SAPE  C21217240   0.743   1.609   7.645 -0.5338  0.4259  0.6565
  155SAPE  H12R17241   0.850   1.604   7.672 -0.5080  1.7640  0.8590
  155SAPE  C21317242   0.650   1.618   7.757 -0.3851  0.2993  0.1787
  155SAPE  H13R17243   0.573   1.539   7.752 -0.4206  0.3113  0.5589
  155SAPE  H13S17244   0.583   1.706   7.743  0.3309  0.7450 -0.5294
  155SAPE  C21417245   0.718   1.622   7.894  0.0769 -0.2881 -0.0177
  155SAPE  H14R17246   0.807   1.558   7.903  0.9823  0.7422 -1.2465
  155SAPE  C21517247   0.701   1.715   7.992 -0.0349  0.1933 -0.0785
  155SAPE  H15R17248   0.742   1.694   8.093  0.7605  0.9976 -0.2219
  155SAPE  C21617249   0.603   1.821   7.981 -0.1007  0.3170  0.3965
  155SAPE  H16R17250   0.546   1.809   7.886  1.4998  0.2646 -0.6011
  155SAPE  H16S17251   0.660   1.916   7.969  0.5234 -0.2157 -1.1994
  155SAPE  C21717252   0.528   1.832   8.121 -0.4675  0.3985 -0.5148
  155SAPE  H17R17253   0.453   1.913   8.114  1.0943  1.7790 -2.9161
  155SAPE  H17S17254   0.603   1.867   8.196 -0.3909  0.9425 -0.8400
  155SAPE  C21817255   0.453   1.703   8.161  0.0247 -0.2447  0.1212
  155SAPE  H18R17256   0.454   1.694   8.272  0.3261 -0.9189  0.0696
  155SAPE  H18S17257   0.508   1.611   8.129 -0.1850 -2.0871  4.3527
  155SAPE  C21917258   0.309   1.698   8.115  0.1045 -0.1411  0.7498
  155SAPE  H19R17259   0.257   1.796   8.128 -0.9869 -0.5921 -0.1297
  155SAPE  H19S17260   0.257   1.632   8.188  0.6544  0.0652  1.3394
  155SAPE  C22017261   0.282   1.649   7.974 -0.0032 -0.6805  0.0113
  155SAPE  H20R17262   0.324   1.548   7.951 -0.1808 -1.0779  1.3082
  155SAPE  H20S17263   0.322   1.727   7.907 -0.4032 -0.0626  0.4788
  155SAPE  H20T17264   0.175   1.642   7.945 -0.0581 -0.1530  0.0893
  155SAPE   C3317265   0.123   1.293   7.193 -0.2681 -0.1021 -1.4907
  155SAPE   H3X17266   0.199   1.213   7.186 -0.1661 -0.4416  1.8529
  155SAPE   H3Y17267   0.021   1.249   7.201 -0.7343  1.1361 -0.0170
  155SAPE   C3417268   0.134   1.378   7.327  0.3778  1.0865 -0.3172
  155SAPE   H4X17269   0.047   1.448   7.322 -1.7799 -1.2936  1.2536
  155SAPE   H4Y17270   0.226   1.440   7.333  1.7833 -0.7803 -1.6827
  155SAPE   C3517271   0.116   1.285   7.447 -1.0098 -0.2045 -0.2947
  155SAPE   H5X17272   0.189   1.202   7.441 -0.9635 -0.2777  1.0713
  155SAPE   H5Y17273   0.009   1.255   7.438 -1.2905  1.0622 -1.5383
  155SAPE   C3617274   0.138   1.352   7.591 -0.2384 -0.5069 -0.2146
  155SAPE   H6X17275   0.100   1.457   7.583  0.2200 -0.2360  1.0176
  155SAPE   H6Y17276   0.248   1.345   7.603 -0.2265 -1.5611 -0.8417
  155SAPE   C3717277   0.060   1.278   7.704 -0.2056 -0.1202 -0.2389
  155SAPE   H7X17278   0.097   1.174   7.715  1.8146  0.5471 -0.2287
  155SAPE   H7Y17279  -0.042   1.269   7.662 -0.0964  1.2056 -0.8364
  155SAPE   C3817280   0.070   1.346   7.839 -0.5309  0.1380 -0.1921
  155SAPE   H8X17281   0.019   1.445   7.835 -0.6094  0.1382  0.6490
  155SAPE   H8Y17282   0.172   1.367   7.878 -0.9125  0.3806  0.7061
  155SAPE   C3917283  -0.004   1.260   7.947  0.0319 -0.9203 -0.0672
  155SAPE   H9X17284   0.012   1.150   7.944  3.4505 -0.4913 -1.1941
  155SAPE   H9Y17285  -0.113   1.280   7.934  0.1971 -0.6686 -1.2275
  155SAPE  C31017286   0.040   1.282   8.096 -0.1627  0.3719  1.4140
  155SAPE  H10X17287   0.029   1.391   8.114 -0.9004  0.9477 -1.8738
  155SAPE  H10Y17288   0.148   1.258   8.102  0.1591  0.0389 -2.7197
  155SAPE  C31117289  -0.042   1.218   8.209 -0.1391  0.7099  0.1139
  155SAPE  H11X17290  -0.072   1.117   8.173  0.3340  0.8690 -0.7557
  155SAPE  H11Y17291  -0.140   1.270   8.205 -0.3646  0.2652 -0.2482
  155SAPE  C31217292   0.009   1.226   8.353 -0.4576 -0.0345 -1.0883
  155SAPE  H12X17293   0.024   1.331   8.384 -1.8645  0.3678 -1.6714
  155SAPE  H12Y17294   0.109   1.177   8.346  0.5651  1.7924 -0.0408
  155SAPE  C31317295  -0.098   1.157   8.441 -0.0942  0.1017 -0.0877
  155SAPE  H13X17296  -0.117   1.052   8.408  0.1639 -0.7161  2.1589
  155SAPE  H13Y17297  -0.196   1.208   8.448 -0.3800 -0.6018  1.4867
  155SAPE  C31417298  -0.039   1.139   8.582  0.3462 -0.0090  0.7721
  155SAPE  H14X17299  -0.042   1.234   8.639  0.1016  2.0866 -2.4657
  155SAPE  H14Y17300   0.070   1.116   8.578  0.9034  2.3206  0.8929
  155SAPE  C31517301  -0.116   1.036   8.676 -0.6362 -0.4597  0.3910
  155SAPE  H15X17302  -0.048   1.026   8.763 -0.3124 -1.5299  0.0212
  155SAPE  H15Y17303  -0.118   0.938   8.624  0.1527 -0.8245  1.0232
  155SAPE  C31617304  -0.248   1.088   8.723  0.1745  0.1298 -0.1859
  155SAPE  H16X17305  -0.327   1.047   8.657 -0.7791  0.6408  0.6034
  155SAPE  H16Y17306  -0.255   1.199   8.722 -3.1960  0.2360  3.8020
  155SAPE  C31717307  -0.294   1.033   8.866 -0.8345 -0.1437 -0.5706
  155SAPE  H17X17308  -0.381   1.098   8.890  0.4730  0.8087  2.1127
  155SAPE  H17Y17309  -0.223   1.053   8.950 -0.7683 -1.5087 -0.2832
  155SAPE  C31817310  -0.332   0.881   8.871 -0.2981  0.1051  0.5073
  155SAPE  H18X17311  -0.394   0.866   8.781 -0.6105  3.0959  0.1265
  155SAPE  H18Y17312  -0.389   0.853   8.963 -3.0570  0.3915 -1.0025
  155SAPE  H18Z17313  -0.248   0.811   8.853 -1.4190 -0.7837 -1.5577
  156SAPE     N17314   5.758   0.446   6.429 -0.1970 -0.2127 -0.0712
  156SAPE   HN117315   5.771   0.408   6.525  1.3976 -1.0690 -0.5989
  156SAPE   HN217316   5.854   0.460   6.392 -0.5439  2.3506 -0.1640
  156SAPE   HN317317   5.711   0.537   6.448 -0.8530 -0.6492  0.4599
  156SAPE   C1217318   5.682   0.350   6.340 -0.0543 -0.0238  0.1807
  156SAPE  H12A17319   5.590   0.307   6.384  0.1521 -1.7026 -0.9423
  156SAPE  H12B17320   5.749   0.266   6.311  0.1732  0.9649 -2.4581
  156SAPE   C1117321   5.650   0.412   6.203  0.0413  0.1240  0.0596
  156SAPE  H11A17322   5.583   0.345   6.145  0.5885 -0.8541  0.5376
  156SAPE  H11B17323   5.747   0.418   6.150 -0.2710 -1.2610 -0.7031
  156SAPE     P17324   5.452   0.582   6.173 -0.3424  0.2714  0.2572
  156SAPE   O1317325   5.464   0.617   6.029 -0.3290  0.5939 -0.4352
  156SAPE   O1417326   5.353   0.478   6.211 -0.0467 -0.0182  0.0643
  156SAPE   O1217327   5.599   0.543   6.219 -0.0727  0.3031  0.1526
  156SAPE   O1117328   5.421   0.711   6.254  0.7317  0.6395 -1.0291
  156SAPE    C117329   5.524   0.810   6.289  0.0871 -0.0908 -0.2013
  156SAPE    HA17330   5.618   0.756   6.314  0.8543  2.0241  1.8383
  156SAPE    HB17331   5.537   0.890   6.214 -0.2139  0.6770  0.5555
  156SAPE    C217332   5.500   0.884   6.423  0.0717  0.5921 -0.6903
  156SAPE    HS17333   5.599   0.921   6.457 -0.2801  1.0702 -0.1663
  156SAPE   O2117334   5.432   0.807   6.518  0.3929  0.0560 -0.2842
  156SAPE   C2117335   5.500   0.702   6.558 -0.0704 -0.0118 -0.2548
  156SAPE   O2217336   5.620   0.679   6.531 -0.1861  0.4158 -0.1707
  156SAPE   C2217337   5.410   0.622   6.634  0.5493  0.4083 -0.1147
  156SAPE   H2R17338   5.358   0.691   6.704 -2.9020 -0.5416 -1.5125
  156SAPE   H2S17339   5.328   0.592   6.564  0.9775  1.6887 -1.2126
  156SAPE    C317340   5.409   1.008   6.403 -0.1793  0.1776  0.2616
  156SAPE    HX17341   5.308   0.965   6.383 -1.0643  0.5575  3.3632
  156SAPE    HY17342   5.432   1.063   6.309  1.7527 -0.9515  0.0280
  156SAPE   O3117343   5.396   1.096   6.517 -0.4352  0.0636 -0.1433
  156SAPE   C3117344   5.498   1.173   6.532 -0.8961 -0.0114 -0.4490
  156SAPE   O3217345   5.598   1.173   6.457  0.2785 -0.5967 -0.1279
  156SAPE   C3217346   5.482   1.248   6.661 -0.3177 -0.0404 -0.3852
  156SAPE   H2X17347   5.537   1.189   6.737  0.4772  0.6797 -0.3848
  156SAPE   H2Y17348   5.376   1.244   6.694 -0.6948  0.9970 -1.4065
  156SAPE   C2317349   5.473   0.507   6.718  0.6192 -0.4198 -0.6644
  156SAPE   H3R17350   5.574   0.489   6.676  1.9185  0.9463  1.6705
  156SAPE   H3S17351   5.420   0.415   6.685 -0.7007 -0.2857  0.9639
  156SAPE   C2417352   5.453   0.509   6.873  0.6646  0.2681  0.1757
  156SAPE   H4R17353   5.345   0.519   6.900  0.5332 -0.1002 -0.2074
  156SAPE   H4S17354   5.500   0.606   6.900 -2.5725  2.6164 -1.7645
  156SAPE   C2517355   5.511   0.393   6.952 -0.6634  0.0492 -0.0210
  156SAPE   H5R17356   5.540   0.306   6.891  0.1222 -0.6586  1.3185
  156SAPE   C2617357   5.555   0.397   7.080  0.1931  0.1639  0.5340
  156SAPE   H6R17358   5.592   0.307   7.131  1.9463  0.7512  0.3591
  156SAPE   C2717359   5.551   0.518   7.180 -1.2899  0.3890  0.8057
  156SAPE   H7R17360   5.609   0.608   7.150  1.5441 -2.3596 -2.7229
  156SAPE   H7S17361   5.595   0.486   7.277 -0.4927  1.0041  0.6527
  156SAPE   C2817362   5.411   0.562   7.210  0.9068 -0.6623 -0.2292
  156SAPE   H8R17363   5.337   0.560   7.129 -2.1852 -0.8195  2.4008
  156SAPE   C2917364   5.350   0.604   7.326 -0.9067  0.3552  0.1081
  156SAPE   H9R17365   5.245   0.634   7.320 -1.4737 -0.5675  3.4125
  156SAPE  C21017366   5.409   0.615   7.466  0.0337  0.5133 -0.1335
  156SAPE  H10R17367   5.456   0.520   7.499 -1.7376 -0.1715  0.5589
  156SAPE  H10S17368   5.328   0.617   7.542 -0.0910 -0.1818 -0.2446
  156SAPE  C21117369   5.503   0.728   7.486 -0.4880  0.5269  0.3684
  156SAPE  H11R17370   5.550   0.764   7.394  1.3808 -1.2471  0.5527
  156SAPE  C21217371   5.543   0.754   7.613 -0.0304  0.2378 -0.2640
  156SAPE  H12R17372   5.621   0.828   7.635  1.0508 -1.4383  1.9371
  156SAPE  C21317373   5.494   0.685   7.738 -0.6453  0.3837  0.8932
  156SAPE  H13R17374   5.558   0.597   7.758  1.3341  1.3744 -0.7335
  156SAPE  H13S17375   5.389   0.651   7.727 -1.1957  1.6277  2.0168
  156SAPE  C21417376   5.506   0.781   7.854  0.0431  0.3683  0.2357
  156SAPE  H14R17377   5.513   0.887   7.825 -0.3044  0.4025  0.2793
  156SAPE  C21517378   5.533   0.752   7.981 -0.2082 -0.0213 -0.4472
  156SAPE  H15R17379   5.539   0.832   8.057  2.1855  0.6826 -1.2675
  156SAPE  C21617380   5.548   0.610   8.025 -0.1426 -0.0111 -0.1635
  156SAPE  H16R17381   5.639   0.560   7.986  0.8615  0.6556  1.2434
  156SAPE  H16S17382   5.466   0.550   7.979 -0.8694  1.9982 -1.6209
  156SAPE  C21717383   5.539   0.602   8.182  0.7474  0.2367 -0.4242
  156SAPE  H17R17384   5.622   0.662   8.226  0.2747  1.0323 -0.6002
  156SAPE  H17S17385   5.562   0.505   8.231  0.2414  0.3814  0.1212
  156SAPE  C21817386   5.409   0.647   8.252  0.1047  0.0276  0.3227
  156SAPE  H18R17387   5.316   0.594   8.224 -0.7838  2.2844 -1.2625
  156SAPE  H18S17388   5.379   0.752   8.230  0.1415  0.2747  1.4086
  156SAPE  C21917389   5.427   0.661   8.402  0.1999  0.5648  0.2368
  156SAPE  H19R17390   5.517   0.718   8.435  0.1322 -0.2702  1.9662
  156SAPE  H19S17391   5.451   0.556   8.431  0.3701  0.2046 -1.1204
  156SAPE  C22017392   5.309   0.715   8.482  0.2303 -0.3132 -0.5188
  156SAPE  H20R17393   5.281   0.818   8.452 -1.1888 -0.7134 -0.6247
  156SAPE  H20S17394   5.328   0.702   8.591 -1.9119  0.5892  0.0120
  156SAPE  H20T17395   5.217   0.659   8.456  0.2846 -1.5198  1.6385
  156SAPE   C3317396   5.518   1.398   6.651  0.0352 -0.4613  0.1951
  156SAPE   H3X17397   5.475   1.431   6.554  1.2986 -0.4260 -0.3683
  156SAPE   H3Y17398   5.629   1.397   6.649  0.2096 -0.6857  3.4845
  156SAPE   C3417399   5.476   1.479   6.765 -0.3251 -0.6413  0.1355
  156SAPE   H4X17400   5.370   1.505   6.744 -0.3454 -0.4479  0.4819
  156SAPE   H4Y17401   5.539   1.570   6.768  2.0697 -2.2335  3.3905
  156SAPE   C3517402   5.477   1.425   6.905 -0.3567 -0.3857 -0.1152
  156SAPE   H5X17403   5.574   1.378   6.928  0.2237 -0.1878 -1.9619
  156SAPE   H5Y17404   5.406   1.340   6.912 -0.0259 -0.6862 -0.3690
  156SAPE   C3617405   5.462   1.539   7.012 -0.0751 -0.0492 -0.0582
  156SAPE   H6X17406   5.394   1.619   6.974 -0.4587 -1.0155 -1.4857
  156SAPE   H6Y17407   5.560   1.585   7.037  0.3852 -0.8143 -0.4477
  156SAPE   C3717408   5.397   1.495   7.144  0.5061  0.0923 -0.4039
  156SAPE   H7X17409   5.304   1.435   7.136  0.3794  0.3671 -1.0988
  156SAPE   H7Y17410   5.373   1.584   7.205  3.2535  1.0208 -0.4966
  156SAPE   C3817411   5.492   1.410   7.229  0.0688 -0.3604 -0.0600
  156SAPE   H8X17412   5.587   1.467   7.232  0.5924 -1.1939 -0.2655
  156SAPE   H8Y17413   5.516   1.313   7.181  2.7940  0.6453 -0.8976
  156SAPE   C3917414   5.431   1.394   7.369 -0.1881 -0.5037 -0.6543
  156SAPE   H9X17415   5.343   1.327   7.359  0.0775 -1.1201  0.8483
  156SAPE   H9Y17416   5.406   1.494   7.409  0.7546 -0.1034 -1.0410
  156SAPE  C31017417   5.529   1.315   7.465  0.6396  0.4856  0.1329
  156SAPE  H10X17418   5.613   1.386   7.480  1.3196 -0.3732  0.4504
  156SAPE  H10Y17419   5.562   1.229   7.402  1.3605 -0.5537  1.8505
  156SAPE  C31117420   5.458   1.263   7.591 -0.8134 -0.4772 -0.2845
  156SAPE  H11X17421   5.519   1.176   7.626  0.1683  0.4336  0.3350
  156SAPE  H11Y17422   5.355   1.223   7.576 -0.7310 -0.6482 -0.3935
  156SAPE  C31217423   5.453   1.359   7.713 -0.4342  0.1438  0.3842
  156SAPE  H12X17424   5.368   1.430   7.698  1.6732  2.7789  0.0744
  156SAPE  H12Y17425   5.547   1.419   7.709 -0.4442  0.2146  1.2008
  156SAPE  C31317426   5.428   1.289   7.845 -0.7641 -0.0456  0.0582
  156SAPE  H13X17427   5.328   1.241   7.852 -1.1447  0.5970 -0.7645
  156SAPE  H13Y17428   5.439   1.371   7.919 -1.6453  0.6375 -0.5365
  156SAPE  C31417429   5.548   1.206   7.893 -0.2759  0.7044  0.2162
  156SAPE  H14X17430   5.648   1.249   7.868  0.9625 -1.7855  0.6028
  156SAPE  H14Y17431   5.553   1.105   7.848  0.0495 -0.8589  3.4937
  156SAPE  C31517432   5.546   1.197   8.043  0.5184  1.2721  0.1091
  156SAPE  H15X17433   5.449   1.142   8.055 -0.1836  2.1827 -1.1362
  156SAPE  H15Y17434   5.540   1.292   8.099  1.2101  1.0976  0.4875
  156SAPE  C31617435   5.661   1.120   8.108  0.5867  0.4042 -0.0253
  156SAPE  H16X17436   5.755   1.170   8.076  0.4342  1.9727  1.7953
  156SAPE  H16Y17437   5.652   1.013   8.078  0.5506  0.4110 -0.0369
  156SAPE  C31717438   5.648   1.132   8.262  0.1789 -0.0993  0.0471
  156SAPE  H17X17439   5.644   1.238   8.294  0.0735  0.5296 -1.9124
  156SAPE  H17Y17440   5.751   1.093   8.278  0.0818 -2.4082 -3.8177
  156SAPE  C31817441   5.536   1.046   8.315 -0.1520 -0.4825  0.1184
  156SAPE  H18X17442   5.435   1.080   8.282  0.3376  1.3569  0.3938
  156SAPE  H18Y17443   5.535   1.040   8.425  1.4455 -4.9097  0.0906
  156SAPE  H18Z17444   5.562   0.945   8.278  0.4111 -0.1933 -0.2981
  157SAPE     N17445   3.506   2.745   6.119 -0.6680 -0.0363  0.4555
  157SAPE   HN117446   3.411   2.717   6.086  0.0943 -0.7734 -1.2124
  157SAPE   HN217447   3.493   2.793   6.210 -1.3411 -0.9626  0.8581
  157SAPE   HN317448   3.541   2.808   6.044  2.6060 -1.3283  0.7300
  157SAPE   C1217449   3.584   2.611   6.128  0.5442 -0.6470 -0.4419
  157SAPE  H12A17450   3.687   2.638   6.157  0.1125  0.9531 -0.2786
  157SAPE  H12B17451   3.592   2.558   6.031 -0.7235  0.0430 -0.9553
  157SAPE   C1117452   3.519   2.515   6.241 -0.1515 -0.4176  0.5056
  157SAPE  H11A17453   3.491   2.566   6.336 -0.1310 -0.7158  0.6729
  157SAPE  H11B17454   3.600   2.446   6.272 -1.5941 -1.8673  1.2654
  157SAPE     P17455   3.269   2.495   6.205 -0.1501 -0.1620  0.1371
  157SAPE   O1317456   3.259   2.636   6.158  0.0765  0.0714 -0.4640
  157SAPE   O1417457   3.173   2.402   6.131 -0.1110  0.3483 -0.4050
  157SAPE   O1217458   3.409   2.443   6.180 -0.5222 -0.3503 -0.3896
  157SAPE   O1117459   3.251   2.488   6.356  0.1072 -0.4539  0.0071
  157SAPE    C117460   3.179   2.383   6.422  1.7990 -0.2106 -0.8909
  157SAPE    HA17461   3.177   2.281   6.376 -0.2906 -0.7421  0.2666
  157SAPE    HB17462   3.210   2.372   6.528 -2.5798 -1.4831  0.4950
  157SAPE    C217463   3.026   2.415   6.438  0.7862  0.0951  0.3803
  157SAPE    HS17464   2.973   2.406   6.340 -2.5072  1.1652  1.9214
  157SAPE   O2117465   3.015   2.543   6.499 -0.2276  0.9008  0.2168
  157SAPE   C2117466   2.914   2.624   6.469 -0.0926 -0.2172  0.8072
  157SAPE   O2217467   2.832   2.605   6.378  0.4561  0.0872 -0.7613
  157SAPE   C2217468   2.930   2.757   6.547  0.3170 -0.7741  0.2937
  157SAPE   H2R17469   3.030   2.748   6.596  0.2317 -0.2446  0.5741
  157SAPE   H2S17470   2.948   2.834   6.470  4.8945 -0.3555  1.4847
  157SAPE    C317471   2.952   2.312   6.521  0.4345 -0.3410  0.1909
  157SAPE    HX17472   2.965   2.227   6.450  0.0884  0.9160 -1.4516
  157SAPE    HY17473   2.844   2.336   6.526  0.0408 -2.1596  1.8544
  157SAPE   O3117474   3.007   2.302   6.647 -0.2455 -0.0305  0.2963
  157SAPE   C3117475   3.031   2.179   6.695 -0.1330 -0.3743 -0.1843
  157SAPE   O3217476   3.024   2.074   6.642 -0.0852 -0.1494  0.3365
  157SAPE   C3217477   3.070   2.201   6.845 -0.1236  0.2275  0.1646
  157SAPE   H2X17478   3.041   2.304   6.875  0.5811  1.0051 -1.6635
  157SAPE   H2Y17479   3.181   2.201   6.838 -0.1325  2.0655 -0.7578
  157SAPE   C2317480   2.824   2.774   6.654  0.0719 -0.9154 -0.0193
  157SAPE   H3R17481   2.722   2.787   6.611  0.2050  2.8654  0.4717
  157SAPE   H3S17482   2.835   2.867   6.713  1.1530 -0.7001 -0.5382
  157SAPE   C2417483   2.831   2.658   6.764  0.4496 -0.4140  0.0950
  157SAPE   H4R17484   2.932   2.662   6.812  0.1834 -0.6519  0.6882
  157SAPE   H4S17485   2.822   2.561   6.710  1.3440  0.8479 -2.5066
  157SAPE   C2517486   2.722   2.662   6.870 -0.6016 -0.2292  0.2255
  157SAPE   H5R17487   2.622   2.683   6.830 -1.0675 -1.0175  0.9295
  157SAPE   C2617488   2.734   2.634   7.001  0.3525 -0.1926  0.4231
  157SAPE   H6R17489   2.647   2.662   7.063  1.6872  2.6297  1.1689
  157SAPE   C2717490   2.859   2.595   7.082 -0.0756 -0.4665 -0.6245
  157SAPE   H7R17491   2.868   2.674   7.160 -0.2992 -0.1721 -0.8937
  157SAPE   H7S17492   2.949   2.619   7.022  0.0876 -3.6768 -1.8276
  157SAPE   C2817493   2.887   2.452   7.122 -0.6166 -0.0389  0.3463
  157SAPE   H8R17494   2.952   2.393   7.055  2.1160  0.5767  2.2882
  157SAPE   C2917495   2.866   2.400   7.241  0.0798 -0.7184 -0.2397
  157SAPE   H9R17496   2.902   2.298   7.261  2.4786  0.4502  1.9447
  157SAPE  C21017497   2.797   2.466   7.357 -1.3897 -0.6650  0.3552
  157SAPE  H10R17498   2.787   2.574   7.334  2.1286 -0.0452  1.1430
  157SAPE  H10S17499   2.862   2.455   7.446  0.7760 -0.5337 -1.1386
  157SAPE  C21117500   2.652   2.424   7.371 -0.1571 -1.0502  0.1968
  157SAPE  H11R17501   2.594   2.424   7.278 -0.0848  0.8178  0.1112
  157SAPE  C21217502   2.587   2.401   7.484  0.3563  0.4523 -0.4419
  157SAPE  H12R17503   2.481   2.371   7.487  0.8717 -1.4604  0.0354
  157SAPE  C21317504   2.640   2.416   7.626  0.4735 -0.1466  0.0206
  157SAPE  H13R17505   2.750   2.432   7.626  0.8690 -1.5597  4.2488
  157SAPE  H13S17506   2.638   2.318   7.678 -1.8912  0.6741  1.6711
  157SAPE  C21417507   2.579   2.520   7.717  0.0766 -0.1406  0.3460
  157SAPE  H14R17508   2.560   2.618   7.670  3.6835  0.2970 -0.5136
  157SAPE  C21517509   2.557   2.498   7.844  0.3744 -0.1260 -0.8001
  157SAPE  H15R17510   2.519   2.581   7.906  1.5799  0.2086 -0.4903
  157SAPE  C21617511   2.594   2.376   7.928  0.3750  0.0814  0.1972
  157SAPE  H16R17512   2.678   2.408   7.993  0.7094  0.3349 -0.3444
  157SAPE  H16S17513   2.620   2.290   7.862 -3.5990 -1.0947 -0.1045
  157SAPE  C21717514   2.470   2.333   8.010 -0.1892 -0.3412 -0.0867
  157SAPE  H17R17515   2.399   2.277   7.946 -2.3595  1.6856  0.3564
  157SAPE  H17S17516   2.416   2.428   8.033 -0.1189 -0.6162  1.2782
  157SAPE  C21817517   2.505   2.260   8.144  0.8677 -0.8004  1.5805
  157SAPE  H18R17518   2.573   2.174   8.123 -0.1204 -1.0563 -0.8276
  157SAPE  H18S17519   2.409   2.216   8.178 -0.0693 -0.7019 -0.7779
  157SAPE  C21917520   2.569   2.347   8.241 -0.5957 -0.3525 -0.2692
  157SAPE  H19R17521   2.526   2.450   8.241 -0.2704 -0.1737 -2.6566
  157SAPE  H19S17522   2.680   2.348   8.239 -0.5777  1.4518 -0.4858
  157SAPE  C22017523   2.542   2.284   8.379  0.1708  0.2357 -0.3648
  157SAPE  H20R17524   2.444   2.231   8.383 -0.2994  0.7187 -3.1658
  157SAPE  H20S17525   2.529   2.363   8.455  1.5224 -0.1320  0.2927
  157SAPE  H20T17526   2.627   2.215   8.402  1.1753  1.4679 -0.2651
  157SAPE   C3317527   2.999   2.106   6.945 -0.2888  0.6498  0.5844
  157SAPE   H3X17528   3.008   2.005   6.899 -0.7648  0.9880 -0.2895
  157SAPE   H3Y17529   2.890   2.126   6.940 -0.2860  0.4942 -0.4286
  157SAPE   C3417530   3.046   2.103   7.087 -0.0664  0.5267  0.3579
  157SAPE   H4X17531   3.031   2.200   7.139 -0.8495 -0.1844  1.5029
  157SAPE   H4Y17532   3.155   2.083   7.086 -0.3788 -1.4258 -1.3099
  157SAPE   C3517533   2.966   2.001   7.165  0.1997  0.1444 -0.5258
  157SAPE   H5X17534   2.969   1.898   7.124  0.1889  0.8243 -2.3253
  157SAPE   H5Y17535   2.860   2.035   7.155 -0.6697 -2.3379 -0.3790
  157SAPE   C3617536   2.983   2.015   7.319  0.0143  0.0769 -0.2888
  157SAPE   H6X17537   2.975   2.125   7.336  0.3949  0.1564 -0.6126
  157SAPE   H6Y17538   3.081   1.970   7.347 -1.3618 -3.1523 -0.2720
  157SAPE   C3717539   2.877   1.941   7.389  0.7912  0.3138 -0.8592
  157SAPE   H7X17540   2.884   1.842   7.339  2.8451 -0.0793  0.0843
  157SAPE   H7Y17541   2.777   1.983   7.364  1.9275  1.7445 -3.3509
  157SAPE   C3817542   2.903   1.920   7.539  0.1048  0.0741  0.3364
  157SAPE   H8X17543   3.003   1.883   7.570  0.4391  0.5388 -0.1695
  157SAPE   H8Y17544   2.855   1.831   7.584  0.7091 -0.4617 -0.0644
  157SAPE   C3917545   2.872   2.049   7.614 -0.3990 -0.0451  0.0728
  157SAPE   H9X17546   2.781   2.105   7.585 -0.0401  1.2493  1.3531
  157SAPE   H9Y17547   2.961   2.109   7.586  0.5619 -1.4594 -0.0423
  157SAPE  C31017548   2.876   2.021   7.758 -0.1314 -0.2540 -0.1587
  157SAPE  H10X17549   2.961   1.955   7.786 -1.2807 -1.6342  0.1896
  157SAPE  H10Y17550   2.780   1.976   7.792  0.4529 -0.5286  1.2076
  157SAPE  C31117551   2.898   2.153   7.835 -0.2850 -0.1476 -0.5043
  157SAPE  H11X17552   2.816   2.220   7.801  1.2537  2.7124  1.0265
  157SAPE  H11Y17553   2.993   2.195   7.795  1.4802 -2.7703  0.7104
  157SAPE  C31217554   2.889   2.148   7.982 -0.2714  0.2063 -0.1175
  157SAPE  H12X17555   2.794   2.105   8.018  0.2333  0.8904  2.1650
  157SAPE  H12Y17556   2.902   2.250   8.022  2.2407 -0.4790  1.0496
  157SAPE  C31317557   3.001   2.066   8.053  0.1244  0.3147 -0.0416
  157SAPE  H13X17558   3.103   2.085   8.011  0.8506 -0.4190  1.3185
  157SAPE  H13Y17559   2.981   1.959   8.030  1.7647 -0.0894  0.2415
  157SAPE  C31417560   3.029   2.086   8.197  0.0172 -0.2126 -0.1857
  157SAPE  H14X17561   3.046   2.196   8.209  0.0823 -0.3174  0.8013
  157SAPE  H14Y17562   3.123   2.039   8.233 -0.0014 -0.6726 -0.7306
  157SAPE  C31517563   2.920   2.043   8.293 -0.1556 -0.2868 -0.8585
  157SAPE  H15X17564   2.881   1.941   8.269  1.2998 -1.1427  0.2625
  157SAPE  H15Y17565   2.831   2.109   8.293  1.2276  1.6487 -1.1246
  157SAPE  C31617566   2.985   2.020   8.436  0.3387 -0.8103 -0.2878
  157SAPE  H16X17567   3.032   2.114   8.474 -1.6661  0.1860 -0.1440
  157SAPE  H16Y17568   3.070   1.949   8.431  1.0022 -0.0369 -0.2792
  157SAPE  C31717569   2.879   1.966   8.546 -0.1862 -0.0226  0.6972
  157SAPE  H17X17570   2.797   2.039   8.534 -0.2733 -0.3667 -1.0473
  157SAPE  H17Y17571   2.913   1.993   8.648 -1.6084  0.2857  1.1046
  157SAPE  C31817572   2.814   1.830   8.547 -0.7610  0.3757 -0.5111
  157SAPE  H18X17573   2.771   1.799   8.450  1.6060 -1.3710 -1.0894
  157SAPE  H18Y17574   2.729   1.836   8.618 -0.2763 -1.1647  0.2533
  157SAPE  H18Z17575   2.881   1.751   8.587  0.5211  0.6851 -1.9362
  158SAPE     N17576   3.800   6.704   6.256  0.0623 -0.7793 -0.2975
  158SAPE   HN117577   3.891   6.662   6.282 -0.3824 -2.2943 -1.0957
  158SAPE   HN217578   3.813   6.793   6.203 -0.0867 -2.0124 -2.4976
  158SAPE   HN317579   3.748   6.727   6.343 -1.0151 -0.8418 -0.9044
  158SAPE   C1217580   3.725   6.611   6.171  0.0611 -0.7585 -0.1739
  158SAPE  H12A17581   3.725   6.515   6.227  0.1165 -0.5817  0.1313
  158SAPE  H12B17582   3.779   6.599   6.075  2.6778  0.0598  1.0802
  158SAPE   C1117583   3.586   6.656   6.134  0.5546  0.0037  0.1589
  158SAPE  H11A17584   3.522   6.579   6.086  0.5878 -0.9853  1.6430
  158SAPE  H11B17585   3.599   6.740   6.062 -1.3893 -0.7687 -1.1720
  158SAPE     P17586   3.374   6.768   6.226  0.1082  0.2268  0.2382
  158SAPE   O1317587   3.375   6.833   6.095 -0.3083 -0.4345 -0.3184
  158SAPE   O1417588   3.260   6.673   6.235  0.1067  0.0668  0.0001
  158SAPE   O1217589   3.511   6.693   6.249 -0.7109 -0.6016 -0.3991
  158SAPE   O1117590   3.371   6.876   6.337 -0.1178  0.1772  0.3492
  158SAPE    C117591   3.488   6.931   6.392 -0.4226  0.3470  0.2493
  158SAPE    HA17592   3.578   6.947   6.329  0.5417  2.7965  2.0899
  158SAPE    HB17593   3.465   7.033   6.429  1.7498  1.3344 -0.9610
  158SAPE    C217594   3.529   6.863   6.527  0.2793  0.0620  0.1844
  158SAPE    HS17595   3.564   6.763   6.493  1.5412  0.2014  1.0121
  158SAPE   O2117596   3.417   6.860   6.615  0.5111 -0.1309  0.3735
  158SAPE   C2117597   3.384   6.745   6.676  0.5579 -0.6739 -0.1221
  158SAPE   O2217598   3.439   6.636   6.660 -0.3300 -0.2239  0.4040
  158SAPE   C2217599   3.264   6.774   6.765  0.7894 -0.0186  0.7463
  158SAPE   H2R17600   3.262   6.884   6.777  1.7428  0.0722  0.1501
  158SAPE   H2S17601   3.166   6.741   6.722  0.1255  1.5587  0.9962
  158SAPE    C317602   3.652   6.926   6.602  0.5802  0.1900 -0.4236
  158SAPE    HX17603   3.612   7.020   6.646  0.2082  0.0837 -0.5329
  158SAPE    HY17604   3.725   6.956   6.523  0.6082 -1.8630 -1.2459
  158SAPE   O3117605   3.709   6.836   6.693  0.2214  0.2138  0.5554
  158SAPE   C3117606   3.771   6.724   6.654 -0.1461 -0.3459 -0.0272
  158SAPE   O3217607   3.780   6.685   6.539  0.5959  0.5311 -0.6906
  158SAPE   C3217608   3.847   6.666   6.776 -0.4578  0.4373  0.1620
  158SAPE   H2X17609   3.775   6.589   6.812 -0.2897  0.5668  0.7853
  158SAPE   H2Y17610   3.868   6.742   6.854 -0.1807  0.3261  0.1975
  158SAPE   C2317611   3.280   6.702   6.908 -0.0856 -0.6809  0.4993
  158SAPE   H3R17612   3.320   6.600   6.898 -1.3224 -1.2474  1.0939
  158SAPE   H3S17613   3.174   6.695   6.942 -0.3044 -1.2280 -0.2753
  158SAPE   C2417614   3.359   6.792   7.005  0.4271  0.2039  0.1877
  158SAPE   H4R17615   3.301   6.779   7.099 -0.2127 -0.6224 -0.3122
  158SAPE   H4S17616   3.340   6.899   6.984 -1.0619 -0.3040 -1.1950
  158SAPE   C2517617   3.507   6.762   6.995  0.0352  0.9754 -0.2243
  158SAPE   H5R17618   3.554   6.797   6.902  2.5159  0.1428  0.6462
  158SAPE   C2617619   3.586   6.692   7.079 -0.4724  0.0352  1.1247
  158SAPE   H6R17620   3.689   6.671   7.046 -0.6760 -0.6675  0.9296
  158SAPE   C2717621   3.537   6.634   7.207  0.1773 -0.6984  0.1212
  158SAPE   H7R17622   3.615   6.567   7.249 -1.0670 -1.2717  1.6114
  158SAPE   H7S17623   3.449   6.570   7.183  1.0455 -1.9224  0.0858
  158SAPE   C2817624   3.492   6.717   7.326  0.0115 -0.3824 -0.1796
  158SAPE   H8R17625   3.471   6.821   7.294 -0.9268 -1.1242 -2.1612
  158SAPE   C2917626   3.483   6.686   7.456  0.0958  0.0665  0.4838
  158SAPE   H9R17627   3.462   6.769   7.526  0.4526  0.6268 -0.0627
  158SAPE  C21017628   3.524   6.548   7.508  0.1633  0.2542 -0.1345
  158SAPE  H10R17629   3.512   6.477   7.424  1.9175 -2.6812  1.8975
  158SAPE  H10S17630   3.453   6.514   7.586  1.4893  0.5673  1.2705
  158SAPE  C21117631   3.664   6.529   7.570  0.3629 -0.0093 -0.3090
  158SAPE  H11R17632   3.726   6.458   7.512 -0.5871 -0.0630 -1.2916
  158SAPE  C21217633   3.713   6.587   7.680  0.1936  0.2875  0.0420
  158SAPE  H12R17634   3.813   6.562   7.718  0.3556  3.5453  2.1601
  158SAPE  C21317635   3.646   6.685   7.776 -0.3503 -0.3564  0.4272
  158SAPE  H13R17636   3.546   6.711   7.733 -1.0536 -1.8704  1.0550
  158SAPE  H13S17637   3.703   6.780   7.787 -1.0252  0.0738  0.3109
  158SAPE  C21417638   3.619   6.620   7.907 -0.3407 -0.1727 -1.0255
  158SAPE  H14R17639   3.526   6.560   7.913  0.3527 -1.1211  2.0124
  158SAPE  C21517640   3.704   6.623   8.016  0.3314 -0.1886 -0.3216
  158SAPE  H15R17641   3.673   6.563   8.103 -3.9270  0.5348 -1.1056
  158SAPE  C21617642   3.839   6.676   8.023 -0.0594 -0.2386 -0.3346
  158SAPE  H16R17643   3.844   6.781   7.989  1.8261 -0.5419 -1.1426
  158SAPE  H16S17644   3.910   6.628   7.952  1.0577 -0.3799  0.8246
  158SAPE  C21717645   3.900   6.678   8.164 -0.5716  0.3411 -0.2858
  158SAPE  H17R17646   4.010   6.693   8.158  0.1141 -1.7964  3.7018
  158SAPE  H17S17647   3.893   6.572   8.199  0.4513  0.1354 -0.6657
  158SAPE  C21817648   3.827   6.786   8.254  0.3611 -0.4065  0.2410
  158SAPE  H18R17649   3.868   6.758   8.354 -0.1977 -1.6889  0.1261
  158SAPE  H18S17650   3.717   6.778   8.256  0.3275 -0.2797 -0.7238
  158SAPE  C21917651   3.878   6.925   8.224 -0.0747  0.8113  0.7125
  158SAPE  H19R17652   3.848   6.958   8.122  0.4514  0.8389  0.5628
  158SAPE  H19S17653   3.989   6.929   8.219 -0.1011  1.4296  0.5277
  158SAPE  C22017654   3.821   7.034   8.312  0.4507 -0.1204  0.0534
  158SAPE  H20R17655   3.713   7.057   8.301 -0.0290 -1.6927  1.0790
  158SAPE  H20S17656   3.869   7.128   8.276 -0.5465  0.2670 -0.3169
  158SAPE  H20T17657   3.847   7.015   8.419 -2.4953 -0.5865  0.7846
  158SAPE   C3317658   3.986   6.613   6.733 -0.6964  0.2347 -0.4270
  158SAPE   H3X17659   4.074   6.669   6.772 -0.2277 -0.3445 -0.6336
  158SAPE   H3Y17660   4.002   6.625   6.624 -1.2116  1.7940 -0.3444
  158SAPE   C3417661   4.007   6.463   6.757 -0.6800  0.2987  0.0692
  158SAPE   H4X17662   4.098   6.431   6.702 -0.8643 -2.8002  1.3794
  158SAPE   H4Y17663   3.931   6.422   6.689 -1.5624  0.9916  0.6120
  158SAPE   C3517664   4.021   6.436   6.899  0.0999 -0.0972  0.0053
  158SAPE   H5X17665   3.921   6.453   6.946  1.0297 -2.3662  3.1718
  158SAPE   H5Y17666   4.097   6.506   6.940 -0.9095  0.7092  0.5562
  158SAPE   C3617667   4.055   6.290   6.930 -0.3370  0.0847 -0.1442
  158SAPE   H6X17668   4.138   6.256   6.864 -2.1622 -3.3852 -0.8836
  158SAPE   H6Y17669   3.962   6.232   6.916 -0.5074 -0.1666  1.6813
  158SAPE   C3717670   4.099   6.268   7.074  0.8214  0.3759 -0.1309
  158SAPE   H7X17671   4.151   6.172   7.095  2.0126  0.9117 -0.5760
  158SAPE   H7Y17672   4.173   6.346   7.102 -0.2403  1.6803 -0.8439
  158SAPE   C3817673   3.984   6.281   7.180 -0.1725  0.1074  0.1456
  158SAPE   H8X17674   3.909   6.201   7.164 -1.1311  0.5481  2.0945
  158SAPE   H8Y17675   3.928   6.376   7.160  1.3580  0.6751 -1.7437
  158SAPE   C3917676   4.050   6.292   7.318 -0.1998  0.1210 -0.0495
  158SAPE   H9X17677   4.136   6.361   7.311  0.4299 -0.5868  0.4584
  158SAPE   H9Y17678   4.104   6.198   7.345  3.1320  1.9693  0.1776
  158SAPE  C31017679   3.961   6.358   7.424 -0.1965 -0.3913 -0.1531
  158SAPE  H10X17680   3.860   6.315   7.439 -1.2541  1.0530 -2.4478
  158SAPE  H10Y17681   3.935   6.463   7.398  0.5196  0.3427  1.9161
  158SAPE  C31117682   4.016   6.346   7.567 -0.2925 -0.4910  0.1697
  158SAPE  H11X17683   3.956   6.397   7.645 -0.9621  1.7648 -1.7046
  158SAPE  H11Y17684   4.115   6.396   7.566 -0.8459  0.6189 -0.8653
  158SAPE  C31217685   4.050   6.202   7.616 -0.3337 -0.3783  0.9663
  158SAPE  H12X17686   4.109   6.150   7.537 -0.4247  3.2307 -1.7442
  158SAPE  H12Y17687   3.953   6.149   7.627 -0.4233 -0.1415  1.3280
  158SAPE  C31317688   4.130   6.192   7.746  0.4624 -0.1100 -0.4231
  158SAPE  H13X17689   4.232   6.235   7.747  0.4206 -0.0139 -0.3174
  158SAPE  H13Y17690   4.142   6.085   7.775  0.7365 -0.9420 -3.2677
  158SAPE  C31417691   4.065   6.263   7.863  0.0818 -0.3035  0.4670
  158SAPE  H14X17692   3.958   6.232   7.855 -0.2071  1.0306 -2.4185
  158SAPE  H14Y17693   4.064   6.374   7.857 -2.9431 -0.3024 -1.7640
  158SAPE  C31517694   4.131   6.238   8.001  0.3291 -0.1159 -0.4289
  158SAPE  H15X17695   4.235   6.278   8.010 -0.0940  0.5995  2.2835
  158SAPE  H15Y17696   4.144   6.130   8.023  0.1133  0.2464  1.7268
  158SAPE  C31617697   4.054   6.298   8.121 -0.2254  0.1141 -0.1535
  158SAPE  H16X17698   3.955   6.249   8.110 -0.0916 -0.4513  1.0309
  158SAPE  H16Y17699   4.051   6.409   8.123 -2.4553  0.1260 -1.3697
  158SAPE  C31717700   4.121   6.243   8.255 -0.2421 -0.2294  0.3653
  158SAPE  H17X17701   4.228   6.271   8.252 -0.5066  0.8180  0.2450
  158SAPE  H17Y17702   4.132   6.132   8.261  1.3270 -0.0683  0.8131
  158SAPE  C31817703   4.051   6.286   8.386 -0.1297  0.0890  0.0757
  158SAPE  H18X17704   3.943   6.260   8.387 -0.3111  0.7081  1.8088
  158SAPE  H18Y17705   4.068   6.396   8.391  0.2676  0.0028  0.9114
  158SAPE  H18Z17706   4.093   6.252   8.483  2.2302  3.0904  0.2791
  159SAPE     N17707   2.582   3.512   6.314 -0.3862  0.2407  0.0348
  159SAPE   HN117708   2.601   3.434   6.380 -0.0545  1.3675  1.3322
  159SAPE   HN217709   2.668   3.535   6.261  1.3559 -1.0238  2.1345
  159SAPE   HN317710   2.562   3.590   6.380 -1.5986  0.2281 -0.2826
  159SAPE   C1217711   2.457   3.493   6.230 -0.1782 -0.2562 -0.0871
  159SAPE  H12A17712   2.419   3.593   6.201 -2.2058 -1.4155 -1.7211
  159SAPE  H12B17713   2.383   3.446   6.298  0.3145 -0.2350  0.4672
  159SAPE   C1117714   2.478   3.395   6.110 -0.2466 -0.0245  0.5206
  159SAPE  H11A17715   2.573   3.427   6.062 -0.8338  1.1120  0.0887
  159SAPE  H11B17716   2.387   3.421   6.052 -1.0592  0.1597  1.8306
  159SAPE     P17717   2.596   3.170   6.116 -0.0200 -0.2624  0.1959
  159SAPE   O1317718   2.588   3.029   6.165 -0.7216 -0.0785 -0.2878
  159SAPE   O1417719   2.636   3.196   5.977  0.0736 -0.4898 -0.0496
  159SAPE   O1217720   2.470   3.255   6.149 -0.1232 -0.7583 -0.7631
  159SAPE   O1117721   2.698   3.256   6.199 -0.7062  0.0794 -0.7623
  159SAPE    C117722   2.832   3.193   6.218  0.1518 -0.1589  0.0116
  159SAPE    HA17723   2.827   3.124   6.305 -3.3574 -0.8423 -0.5512
  159SAPE    HB17724   2.857   3.124   6.135 -0.1761  0.8601 -0.9480
  159SAPE    C217725   2.928   3.303   6.244 -0.1587  0.3417  0.3674
  159SAPE    HS17726   3.027   3.255   6.250 -1.2110 -2.4241 -2.1003
  159SAPE   O2117727   2.889   3.375   6.366  0.0446  0.0513 -0.3682
  159SAPE   C2117728   2.917   3.311   6.483 -0.4397  0.8833 -0.7795
  159SAPE   O2217729   2.976   3.205   6.490 -0.5782  0.0956 -0.8381
  159SAPE   C2217730   2.867   3.395   6.595 -0.5059  0.1743  0.2666
  159SAPE   H2R17731   2.879   3.504   6.578  0.7395 -0.2996 -2.4608
  159SAPE   H2S17732   2.757   3.382   6.587 -0.3676 -0.4487 -0.7548
  159SAPE    C317733   2.939   3.406   6.129 -0.0636  0.0733 -0.1073
  159SAPE    HX17734   2.837   3.431   6.093  0.5938  0.8395 -1.5271
  159SAPE    HY17735   2.974   3.360   6.034 -2.2920 -0.1948 -0.8493
  159SAPE   O3117736   3.005   3.529   6.159 -0.2639  0.2078  0.0150
  159SAPE   C3117737   2.936   3.623   6.227 -0.2635 -0.2363  0.4164
  159SAPE   O3217738   2.813   3.629   6.224  0.0002 -0.0353  0.6239
  159SAPE   C3217739   3.026   3.736   6.291 -0.4673  0.3793  0.0373
  159SAPE   H2X17740   3.109   3.768   6.225  0.9485 -0.0144  1.5538
  159SAPE   H2Y17741   3.070   3.697   6.386  1.2850 -1.6304 -1.4827
  159SAPE   C2317742   2.917   3.361   6.734 -0.3485 -0.2165 -0.1542
  159SAPE   H3R17743   3.026   3.383   6.739 -0.7723  1.9994  0.4217
  159SAPE   H3S17744   2.900   3.252   6.750  0.5931 -0.3943 -0.3049
  159SAPE   C2417745   2.851   3.445   6.851 -0.2305 -0.0432 -0.7040
  159SAPE   H4R17746   2.849   3.549   6.813  1.0805  0.1796 -0.2392
  159SAPE   H4S17747   2.924   3.435   6.934  0.1432 -0.4252 -1.0649
  159SAPE   C2517748   2.715   3.419   6.891 -0.8697  0.1722 -0.2873
  159SAPE   H5R17749   2.640   3.428   6.811 -2.2971 -0.6854  0.9071
  159SAPE   C2617750   2.672   3.383   7.013 -0.2866  0.2656 -0.5865
  159SAPE   H6R17751   2.566   3.360   7.025 -0.5375  2.2671  1.8757
  159SAPE   C2717752   2.758   3.360   7.135  0.7469  0.2133 -0.2304
  159SAPE   H7R17753   2.687   3.336   7.217  1.4490 -0.1819  0.2609
  159SAPE   H7S17754   2.804   3.455   7.169 -0.6758  0.6546  0.5623
  159SAPE   C2817755   2.861   3.257   7.136  0.4124  0.4623  0.3180
  159SAPE   H8R17756   2.887   3.222   7.034 -0.1620  1.1398 -0.0716
  159SAPE   C2917757   2.916   3.192   7.244  0.6514 -0.2894  0.1933
  159SAPE   H9R17758   2.993   3.114   7.233 -0.1735 -0.9178 -1.3700
  159SAPE  C21017759   2.877   3.219   7.388  0.1055  0.4855  0.5625
  159SAPE  H10R17760   2.844   3.124   7.437 -1.8576 -0.6263 -2.6336
  159SAPE  H10S17761   2.785   3.281   7.383 -1.0820 -1.1890  0.4756
  159SAPE  C21117762   2.990   3.291   7.464  0.0436  0.1484  0.1216
  159SAPE  H11R17763   3.079   3.302   7.400 -0.4420 -1.0839 -0.8029
  159SAPE  C21217764   2.996   3.342   7.590 -0.5022 -0.5712  0.3678
  159SAPE  H12R17765   3.093   3.378   7.627 -0.5470  1.0621 -0.9543
  159SAPE  C21317766   2.878   3.355   7.688 -0.2417 -0.2138 -0.6172
  159SAPE  H13R17767   2.779   3.329   7.645 -0.0169 -2.1850 -0.0157
  159SAPE  H13S17768   2.868   3.457   7.731 -0.4067  0.4085 -2.0789
  159SAPE  C21417769   2.897   3.251   7.797  0.6247 -0.0405  0.9909
  159SAPE  H14R17770   2.897   3.147   7.760  1.1852  0.9628 -2.1432
  159SAPE  C21517771   2.902   3.276   7.924 -0.6816  0.0293  1.1238
  159SAPE  H15R17772   2.912   3.184   7.984 -0.2668 -1.1849 -0.7119
  159SAPE  C21617773   2.891   3.407   8.000 -0.6179 -0.5791 -0.2344
  159SAPE  H16R17774   2.834   3.485   7.945 -1.2044 -0.8097  0.0357
  159SAPE  H16S17775   2.991   3.451   8.014 -0.0989 -1.5204 -0.8731
  159SAPE  C21717776   2.818   3.371   8.132  0.2035 -0.3317 -0.3501
  159SAPE  H17R17777   2.868   3.298   8.199  0.8421  0.5580  0.1698
  159SAPE  H17S17778   2.720   3.334   8.097  0.3090  0.5211 -1.6146
  159SAPE  C21817779   2.787   3.493   8.223 -0.6801  0.1358 -0.1931
  159SAPE  H18R17780   2.738   3.568   8.158 -0.1062  1.0272  0.3888
  159SAPE  H18S17781   2.876   3.552   8.252 -1.5302  1.5518 -0.4012
  159SAPE  C21917782   2.714   3.438   8.348  0.6043  0.3058 -0.3154
  159SAPE  H19R17783   2.757   3.346   8.393  0.2496 -0.8734 -2.2974
  159SAPE  H19S17784   2.615   3.416   8.304  0.4672 -0.1002  0.1847
  159SAPE  C22017785   2.681   3.542   8.454  0.7008 -0.6284 -0.0108
  159SAPE  H20R17786   2.628   3.501   8.543  0.5534  0.0532  0.2315
  159SAPE  H20S17787   2.620   3.625   8.410  1.3429  0.4516  1.0527
  159SAPE  H20T17788   2.773   3.594   8.489 -0.0398 -0.1766  1.3824
  159SAPE   C3317789   2.948   3.863   6.329  0.2035  0.3001  0.6915
  159SAPE   H3X17790   2.872   3.887   6.252 -0.1716 -0.2629  0.8773
  159SAPE   H3Y17791   3.013   3.953   6.326 -0.2564  0.6133  0.0812
  159SAPE   C3417792   2.878   3.839   6.466 -0.8048 -0.3910 -0.4544
  159SAPE   H4X17793   2.829   3.740   6.462 -0.9951 -0.3022 -0.3485
  159SAPE   H4Y17794   2.790   3.906   6.481 -0.8288 -0.4683 -0.2556
  159SAPE   C3517795   2.970   3.863   6.584  0.0757 -0.0216 -0.7606
  159SAPE   H5X17796   2.975   3.974   6.591 -0.6006 -0.0119 -0.3940
  159SAPE   H5Y17797   3.073   3.829   6.559 -0.6414 -2.2272 -0.9171
  159SAPE   C3617798   2.929   3.796   6.718  0.0799  0.1375  0.1491
  159SAPE   H6X17799   2.953   3.687   6.714 -0.0138  0.1001  0.5708
  159SAPE   H6Y17800   2.819   3.802   6.733 -0.2659 -1.5180 -1.2864
  159SAPE   C3717801   3.000   3.853   6.845  0.4691 -0.3689 -0.0277
  159SAPE   H7X17802   2.994   3.963   6.834  1.2859 -0.1199  1.6508
  159SAPE   H7Y17803   3.106   3.821   6.834  1.7522  3.4950 -0.4153
  159SAPE   C3817804   2.948   3.801   6.978 -0.4434 -0.1974 -0.1373
  159SAPE   H8X17805   2.949   3.691   6.989  0.9583 -0.1452  0.4740
  159SAPE   H8Y17806   2.847   3.841   7.002 -1.0819  0.0329 -2.9610
  159SAPE   C3917807   3.040   3.848   7.091 -0.3278  0.3292 -0.1025
  159SAPE   H9X17808   3.039   3.959   7.092  1.1924  0.3641  1.0756
  159SAPE   H9Y17809   3.145   3.815   7.076 -0.7836 -1.7168  0.7635
  159SAPE  C31017810   2.997   3.804   7.231  0.5233 -0.5326  1.4770
  159SAPE  H10X17811   2.886   3.799   7.240  0.0180  1.5319 -1.8880
  159SAPE  H10Y17812   3.031   3.883   7.301  3.9570 -1.0442  0.5843
  159SAPE  C31117813   3.055   3.671   7.273 -0.6573  0.3582  0.4534
  159SAPE  H11X17814   3.165   3.677   7.257 -1.0346  3.8153 -2.1518
  159SAPE  H11Y17815   3.014   3.605   7.194 -0.2683  2.6081 -1.7799
  159SAPE  C31217816   3.004   3.648   7.419  0.0128  0.6083  0.2646
  159SAPE  H12X17817   3.046   3.556   7.464 -0.6060  1.3802  2.5856
  159SAPE  H12Y17818   2.894   3.634   7.412  0.0121  0.1295  1.0546
  159SAPE  C31317819   3.049   3.748   7.528 -0.5207 -0.4922  0.2009
  159SAPE  H13X17820   3.023   3.713   7.630 -0.7641 -2.0102 -0.3571
  159SAPE  H13Y17821   3.001   3.848   7.515 -0.2640 -0.1664  1.5677
  159SAPE  C31417822   3.200   3.769   7.535 -0.2114 -0.0528 -0.1509
  159SAPE  H14X17823   3.226   3.856   7.600  1.1078 -0.1372 -0.5316
  159SAPE  H14Y17824   3.238   3.797   7.434 -0.0974 -1.4987 -0.5299
  159SAPE  C31517825   3.278   3.649   7.590  0.2272 -0.3878 -0.3138
  159SAPE  H15X17826   3.386   3.658   7.566  0.5253 -1.4454  0.5379
  159SAPE  H15Y17827   3.245   3.562   7.531 -0.7252  0.6343 -1.3497
  159SAPE  C31617828   3.261   3.625   7.736  0.3049 -0.1772  0.0535
  159SAPE  H16X17829   3.162   3.582   7.763  0.4701 -0.3591  0.3882
  159SAPE  H16Y17830   3.256   3.725   7.785 -3.2122  0.1589 -0.6830
  159SAPE  C31717831   3.372   3.537   7.789  0.5248 -0.1533  0.0422
  159SAPE  H17X17832   3.469   3.590   7.775  0.5818 -0.1361  0.4794
  159SAPE  H17Y17833   3.379   3.448   7.723 -0.5344 -0.2795  0.0885
  159SAPE  C31817834   3.345   3.508   7.938  0.1853 -0.5109  0.4272
  159SAPE  H18X17835   3.422   3.441   7.981  1.7821 -0.7418 -2.5145
  159SAPE  H18Y17836   3.244   3.462   7.944  0.1358 -0.2374  2.4160
  159SAPE  H18Z17837   3.342   3.606   7.990  0.1571 -0.9329  1.2314
  160SAPE     N17838   4.444   1.918   6.511  0.4513 -0.7577 -0.1368
  160SAPE   HN117839   4.545   1.924   6.490  0.8409 -1.1600  1.4728
  160SAPE   HN217840   4.440   1.968   6.602  0.2024 -1.6705  0.3662
  160SAPE   HN317841   4.417   1.819   6.528  0.9776 -1.0232 -0.8024
  160SAPE   C1217842   4.345   1.963   6.408  0.2238 -0.1830  0.1902
  160SAPE  H12A17843   4.395   2.027   6.332 -0.0933 -1.2286 -0.9525
  160SAPE  H12B17844   4.269   2.026   6.457  0.0991 -0.5073  0.4131
  160SAPE   C1117845   4.276   1.845   6.334 -0.0177 -0.1466 -0.2178
  160SAPE  H11A17846   4.217   1.876   6.246 -1.6900  0.7705  1.1629
  160SAPE  H11B17847   4.208   1.800   6.409  1.2516  0.0711  1.1198
  160SAPE     P17848   4.371   1.600   6.329  0.1454  0.0858 -0.4916
  160SAPE   O1317849   4.270   1.547   6.236  0.3118  0.6212  0.0969
  160SAPE   O1417850   4.507   1.544   6.318 -0.3371 -0.3353  0.8946
  160SAPE   O1217851   4.374   1.751   6.288  0.7174  0.2519 -0.3380
  160SAPE   O1117852   4.320   1.600   6.470 -0.0912  0.1166  0.1899
  160SAPE    C117853   4.269   1.485   6.534 -0.3379  0.2017 -0.8386
  160SAPE    HA17854   4.164   1.461   6.509 -0.6961 -1.4314  1.9045
  160SAPE    HB17855   4.339   1.401   6.514  0.7893  1.1967 -1.2114
  160SAPE    C217856   4.277   1.500   6.686  0.4327 -0.7034 -0.7661
  160SAPE    HS17857   4.243   1.601   6.718 -1.2359 -1.7516  1.0251
  160SAPE   O2117858   4.415   1.481   6.729 -0.0379 -0.2802  0.4206
  160SAPE   C2117859   4.485   1.601   6.727  0.0161  0.3108 -0.0198
  160SAPE   O2217860   4.443   1.709   6.688 -0.3613 -0.5435 -0.5199
  160SAPE   C2217861   4.627   1.588   6.784 -0.2911  0.0015  0.6985
  160SAPE   H2R17862   4.681   1.512   6.723 -0.1173  0.1732  0.6350
  160SAPE   H2S17863   4.688   1.671   6.742  0.5350 -1.8299 -2.0224
  160SAPE    C317864   4.180   1.404   6.769 -0.4909  0.5455  0.1867
  160SAPE    HX17865   4.199   1.301   6.729  0.2361 -0.8784  3.8501
  160SAPE    HY17866   4.080   1.441   6.736 -0.6206 -0.6618 -0.8792
  160SAPE   O3117867   4.191   1.417   6.914 -0.0197 -1.2796 -0.5906
  160SAPE   C3117868   4.101   1.354   6.980  0.0872 -0.3324  0.0086
  160SAPE   O3217869   4.015   1.282   6.927 -0.2736 -0.0973 -0.4043
  160SAPE   C3217870   4.111   1.377   7.131  0.5896 -1.2082  0.0066
  160SAPE   H2X17871   4.020   1.432   7.163  1.8771  0.3285  1.2107
  160SAPE   H2Y17872   4.188   1.453   7.154 -0.2291 -0.8511  1.7146
  160SAPE   C2317873   4.644   1.549   6.928  0.1509  0.1149 -0.7702
  160SAPE   H3R17874   4.751   1.573   6.948 -0.2710  1.0484  0.5670
  160SAPE   H3S17875   4.621   1.443   6.949  0.7805  0.6753  3.7423
  160SAPE   C2417876   4.569   1.631   7.041  0.1456  0.3662 -0.6213
  160SAPE   H4R17877   4.616   1.598   7.137 -0.0234  0.0857 -0.6331
  160SAPE   H4S17878   4.461   1.605   7.050 -0.1069  1.1533 -1.3404
  160SAPE   C2517879   4.580   1.779   7.022  0.0670 -0.4635 -0.7350
  160SAPE   H5R17880   4.541   1.825   6.930 -1.8087  0.2381  0.3528
  160SAPE   C2617881   4.625   1.864   7.122  0.5444 -0.3849  0.4948
  160SAPE   H6R17882   4.633   1.971   7.098 -0.6462 -0.2259  0.7061
  160SAPE   C2717883   4.672   1.824   7.259  0.9826 -0.1334  0.6203
  160SAPE   H7R17884   4.735   1.905   7.301  1.4791 -0.1228 -0.1151
  160SAPE   H7S17885   4.735   1.733   7.258 -0.4933 -1.1980 -1.1783
  160SAPE   C2817886   4.554   1.790   7.354 -0.0280  0.5334 -0.1123
  160SAPE   H8R17887   4.470   1.741   7.303 -1.1991  1.1813  1.0929
  160SAPE   C2917888   4.551   1.805   7.487  0.7437  0.1564 -0.3165
  160SAPE   H9R17889   4.471   1.756   7.544  0.3830 -1.3470 -1.9975
  160SAPE  C21017890   4.664   1.871   7.564  0.1102  0.0724 -0.4971
  160SAPE  H10R17891   4.716   1.947   7.502 -0.8688 -1.1589 -2.9321
  160SAPE  H10S17892   4.748   1.803   7.590 -0.3090 -0.4889 -0.6175
  160SAPE  C21117893   4.626   1.950   7.689 -0.8434  0.1740 -0.0189
  160SAPE  H11R17894   4.557   2.031   7.664 -0.6108  0.8902  1.5707
  160SAPE  C21217895   4.644   1.929   7.821 -0.0720  0.0657  0.4865
  160SAPE  H12R17896   4.593   1.995   7.892  0.6871 -1.4807  2.5633
  160SAPE  C21317897   4.729   1.823   7.888 -0.0697 -0.1188  0.6085
  160SAPE  H13R17898   4.775   1.847   7.986  0.1693  0.3292  0.3875
  160SAPE  H13S17899   4.816   1.803   7.821 -0.3389 -2.5288  0.8796
  160SAPE  C21417900   4.650   1.697   7.900  0.1437  0.4129 -0.3533
  160SAPE  H14R17901   4.660   1.630   7.813 -0.3616  1.0503 -0.9086
  160SAPE  C21517902   4.571   1.658   8.002  0.2104 -0.2630 -0.6054
  160SAPE  H15R17903   4.536   1.554   8.003 -0.3322 -0.0869  0.1475
  160SAPE  C21617904   4.545   1.727   8.140 -0.4992 -0.3673 -0.4275
  160SAPE  H16R17905   4.436   1.742   8.153 -0.3617  1.5161 -1.0438
  160SAPE  H16S17906   4.595   1.826   8.141  0.7512 -0.9692 -1.3379
  160SAPE  C21717907   4.580   1.645   8.262  0.3421 -0.7498 -0.2782
  160SAPE  H17R17908   4.690   1.636   8.269  0.3546 -0.1648  0.3518
  160SAPE  H17S17909   4.536   1.544   8.248  2.0581 -1.4212 -1.1070
  160SAPE  C21817910   4.521   1.725   8.386  0.3507  0.4254  0.0358
  160SAPE  H18R17911   4.411   1.734   8.371  0.3150  1.7849  0.9633
  160SAPE  H18S17912   4.558   1.829   8.376  2.4745 -0.4890 -3.5342
  160SAPE  C21917913   4.535   1.642   8.514 -0.7687 -0.1920  0.0714
  160SAPE  H19R17914   4.640   1.658   8.546 -0.7478 -0.4109  0.1152
  160SAPE  H19S17915   4.513   1.536   8.487 -0.2890  0.1872 -1.9688
  160SAPE  C22017916   4.441   1.694   8.625 -0.7502 -0.5736  0.1272
  160SAPE  H20R17917   4.338   1.675   8.587 -0.3002 -1.2044 -0.8075
  160SAPE  H20S17918   4.465   1.801   8.642 -1.6664 -0.0791 -1.4738
  160SAPE  H20T17919   4.464   1.632   8.715 -0.0021 -1.4614 -0.6660
  160SAPE   C3317920   4.108   1.247   7.219  0.2729  0.7372 -0.2789
  160SAPE   H3X17921   4.211   1.212   7.199 -0.4243  0.0697 -3.2502
  160SAPE   H3Y17922   4.032   1.174   7.185  0.4834  0.3858  0.0071
  160SAPE   C3417923   4.089   1.273   7.370  0.7682  0.0866 -0.1635
  160SAPE   H4X17924   3.990   1.319   7.392  1.1476  0.5476  0.6264
  160SAPE   H4Y17925   4.170   1.335   7.415  1.8199 -1.3842  0.0508
  160SAPE   C3517926   4.095   1.150   7.458 -0.2437  0.6763 -0.3145
  160SAPE   H5X17927   4.175   1.078   7.427 -0.8184  0.2054 -0.7282
  160SAPE   H5Y17928   3.992   1.110   7.458 -0.0019 -0.0374  1.3700
  160SAPE   C3617929   4.128   1.190   7.603 -0.1683 -0.2330 -0.0710
  160SAPE   H6X17930   4.048   1.264   7.625 -2.3262 -1.3187 -3.3608
  160SAPE   H6Y17931   4.224   1.245   7.608 -1.3088  1.8633 -0.1673
  160SAPE   C3717932   4.120   1.073   7.697 -0.5435  0.5061  0.0394
  160SAPE   H7X17933   4.013   1.042   7.690 -0.9092  1.7254 -0.0839
  160SAPE   H7Y17934   4.139   1.117   7.797  0.5076  0.8451 -0.3017
  160SAPE   C3817935   4.204   0.947   7.661 -0.5223 -0.1615  0.1261
  160SAPE   H8X17936   4.301   0.982   7.619  0.8087  1.4981  4.1216
  160SAPE   H8Y17937   4.146   0.888   7.586  0.1642 -0.9920  0.2386
  160SAPE   C3917938   4.227   0.860   7.783 -0.5779  0.3252  0.3500
  160SAPE   H9X17939   4.282   0.918   7.861  1.2325  1.5310 -1.6949
  160SAPE   H9Y17940   4.292   0.777   7.745 -0.7011  0.4476 -0.1308
  160SAPE  C31017941   4.102   0.797   7.844 -0.2817 -0.1664  0.0834
  160SAPE  H10X17942   4.057   0.738   7.761 -1.9161 -0.5741  1.2105
  160SAPE  H10Y17943   4.030   0.875   7.877  1.8846  1.6716  0.7097
  160SAPE  C31117944   4.131   0.708   7.969 -0.0939 -0.2416 -0.2374
  160SAPE  H11X17945   4.210   0.634   7.945 -1.2156 -2.8488  3.3179
  160SAPE  H11Y17946   4.042   0.646   7.993  0.4271 -1.6934 -1.8906
  160SAPE  C31217947   4.143   0.787   8.101 -0.2450 -0.5298 -0.5304
  160SAPE  H12X17948   4.049   0.844   8.118  0.2517  0.2003 -0.1837
  160SAPE  H12Y17949   4.217   0.869   8.090 -2.5608  1.4128 -2.6556
  160SAPE  C31317950   4.187   0.707   8.227  0.5547 -0.1884 -0.2981
  160SAPE  H13X17951   4.200   0.777   8.312  0.1915 -1.1028  0.5317
  160SAPE  H13Y17952   4.283   0.652   8.222  0.3793 -0.8085  1.7658
  160SAPE  C31417953   4.067   0.627   8.282  0.9721  0.4561  0.2438
  160SAPE  H14X17954   4.041   0.550   8.206 -0.6926  0.6399  0.5939
  160SAPE  H14Y17955   3.982   0.699   8.277  0.0349 -0.6938 -2.8725
  160SAPE  C31517956   4.075   0.577   8.433  0.4665  0.0914  0.2088
  160SAPE  H15X17957   4.176   0.536   8.455 -0.6156 -1.4157  2.7741
  160SAPE  H15Y17958   3.997   0.501   8.452 -0.1846  0.9884  1.2371
  160SAPE  C31617959   4.063   0.695   8.539 -0.2482 -0.9525 -0.1151
  160SAPE  H16X17960   3.977   0.755   8.503 -0.1561 -0.6376  0.1884
  160SAPE  H16Y17961   4.161   0.746   8.539 -1.2657  1.2122  2.2496
  160SAPE  C31717962   4.027   0.645   8.678  0.5902 -0.2287 -0.2165
  160SAPE  H17X17963   4.113   0.592   8.723 -0.0307  0.1615  1.5463
  160SAPE  H17Y17964   3.944   0.571   8.669 -0.2815  0.6918 -0.0410
  160SAPE  C31817965   3.989   0.758   8.772  1.0333 -0.5904 -0.0750
  160SAPE  H18X17966   4.044   0.848   8.739  0.1354  0.2776  0.7451
  160SAPE  H18Y17967   4.026   0.727   8.872  1.7511  0.6852  0.0741
  160SAPE  H18Z17968   3.878   0.767   8.770  1.2191  3.3495 -2.0742
  161SOPE     N17969   2.366   5.485  10.596  0.7898 -0.0977 -0.2516
  161SOPE   HN117970   2.468   5.482  10.576  1.3770 -2.7329  2.2679
  161SOPE   HN217971   2.339   5.388  10.624 -1.2355  0.8276  1.2823
  161SOPE   HN317972   2.310   5.517  10.515  1.4789  0.7843 -0.3947
  161SOPE   C1217973   2.347   5.575  10.717 -0.6039 -1.2250  0.2614
  161SOPE  H12A17974   2.357   5.503  10.801 -1.4930 -0.8125  0.7333
  161SOPE  H12B17975   2.241   5.609  10.714 -0.2963  0.0165  1.9953
  161SOPE   C1117976   2.455   5.683  10.716  0.1720 -0.2368 -0.1864
  161SOPE  H11A17977   2.560   5.652  10.700  0.6722  0.6587  1.1994
  161SOPE  H11B17978   2.454   5.723  10.820 -0.2447  0.4904 -0.4625
  161SOPE     P17979   2.356   5.926  10.659 -0.0749 -0.3252  0.1946
  161SOPE   O1317980   2.458   6.029  10.618 -0.3361 -0.1581  0.0182
  161SOPE   O1417981   2.311   5.938  10.801 -0.5801 -0.1370 -0.3821
  161SOPE   O1217982   2.419   5.789  10.620  0.4346 -0.0879  0.3305
  161SOPE   O1117983   2.233   5.930  10.561  0.9592  0.6073  0.4656
  161SOPE    C117984   2.236   5.863  10.431  0.7295 -0.3694  0.3128
  161SOPE    HA17985   2.165   5.778  10.434 -0.1102  0.3294  0.7685
  161SOPE    HB17986   2.332   5.813  10.407 -0.0666 -1.9890  0.3837
  161SOPE    C217987   2.182   5.964  10.330 -0.8785  0.0252 -0.1144
  161SOPE    HS17988   2.080   5.994  10.361 -0.5047 -0.4079  1.6885
  161SOPE   O2117989   2.185   5.894  10.202 -0.1442  0.3219 -0.0628
  161SOPE   C2117990   2.071   5.875  10.139 -0.0899  0.4443 -0.1278
  161SOPE   O2217991   1.961   5.923  10.163 -0.0825  0.0668 -0.0615
  161SOPE   C2217992   2.096   5.755  10.046  0.5930  0.1923  0.1761
  161SOPE   H2R17993   2.110   5.669  10.114 -2.8548 -0.6227  0.0119
  161SOPE   H2S17994   2.189   5.766   9.986  0.7943 -0.9287  0.2722
  161SOPE    C317995   2.262   6.093  10.323  0.7161  0.4973 -0.7215
  161SOPE    HX17996   2.366   6.060  10.299 -0.6115 -2.6791 -2.8061
  161SOPE    HY17997   2.259   6.137  10.425  0.2853  1.4152 -1.1255
  161SOPE   O3117998   2.196   6.173  10.227 -0.3168 -0.4165 -0.3324
  161SOPE   C3117999   2.255   6.189  10.110  0.1536  0.2754 -0.2272
  161SOPE   O3218000   2.373   6.165  10.088 -0.1801  0.1803 -0.4439
  161SOPE   C3218001   2.152   6.235  10.001 -0.3210 -0.3654 -0.4937
  161SOPE   H2X18002   2.114   6.330  10.045  0.8525 -0.5712  1.0837
  161SOPE   H2Y18003   2.069   6.164  10.017  0.1770 -0.6235  1.1104
  161SOPE   C2318004   1.978   5.730   9.945 -0.1503  0.0230  0.3332
  161SOPE   H3R18005   1.894   5.740  10.017  2.0040 -1.3201  3.2690
  161SOPE   H3S18006   1.992   5.628   9.904 -0.6544  0.3543 -0.6787
  161SOPE   C2418007   1.971   5.828   9.830  0.6763 -0.7721  0.0113
  161SOPE   H4R18008   1.886   5.792   9.769  0.6903  1.4943 -1.4594
  161SOPE   H4S18009   1.940   5.928   9.867 -1.1972 -1.3004 -0.0135
  161SOPE   C2518010   2.085   5.849   9.730  0.0493  0.0768 -0.2164
  161SOPE   H5R18011   2.147   5.931   9.773 -0.3105  1.3971 -2.1209
  161SOPE   H5S18012   2.150   5.759   9.731  2.4096  1.6667  1.8595
  161SOPE   C2618013   2.053   5.891   9.586  0.7112  0.1456  0.2408
  161SOPE   H6R18014   2.154   5.918   9.549  1.2587 -0.0646  1.5487
  161SOPE   H6S18015   2.029   5.793   9.538  1.3146 -0.8897  1.9784
  161SOPE   C2718016   1.937   5.987   9.566  0.6480  0.9926  0.0715
  161SOPE   H7R18017   1.833   5.948   9.563  0.6681  0.9696 -0.5601
  161SOPE   H7S18018   1.937   6.041   9.663 -1.3114  0.9246  0.1407
  161SOPE   C2818019   1.969   6.085   9.448 -0.1624 -0.8404 -0.4824
  161SOPE   H8R18020   1.884   6.156   9.442  1.4898  1.1018 -2.2630
  161SOPE   H8S18021   2.057   6.148   9.472 -0.4776 -0.6796  0.2955
  161SOPE   C2918022   2.001   6.025   9.316  0.0590  0.7130  0.2443
  161SOPE   H9118023   2.088   5.958   9.304 -0.9492 -1.0147  2.0133
  161SOPE  C21018024   1.939   6.052   9.200  0.0329 -0.2072 -0.2920
  161SOPE  H10118025   1.987   5.997   9.118  1.4770  0.2656  0.1926
  161SOPE  C21118026   1.825   6.146   9.177 -0.4391 -0.1670  0.0918
  161SOPE  H11R18027   1.852   6.253   9.166  0.0899 -0.1003  1.6803
  161SOPE  H11S18028   1.758   6.153   9.266 -0.5980  3.1671 -0.1595
  161SOPE  C21218029   1.732   6.099   9.065 -0.0785  0.2109  0.3594
  161SOPE  H12R18030   1.644   6.166   9.063 -0.1011  0.2225  1.4032
  161SOPE  H12S18031   1.690   5.997   9.081 -0.6909  0.3758 -0.1497
  161SOPE  C21318032   1.796   6.099   8.918  0.6075  0.1806 -0.1821
  161SOPE  H13R18033   1.887   6.034   8.916  1.5110  1.3932  0.3923
  161SOPE  H13S18034   1.824   6.203   8.893  0.8616  1.0301  3.1180
  161SOPE  C21418035   1.702   6.047   8.806  0.3615 -0.2545 -0.1404
  161SOPE  H14R18036   1.633   5.964   8.834 -0.1742 -0.5074 -2.0716
  161SOPE  H14S18037   1.772   6.013   8.727  0.7743 -0.9037  0.4973
  161SOPE  C21518038   1.624   6.169   8.750  0.2358  0.0908 -0.2900
  161SOPE  H15R18039   1.696   6.247   8.716 -1.4227  2.1570  0.7166
  161SOPE  H15S18040   1.551   6.209   8.824  2.6197 -0.2429  2.4365
  161SOPE  C21618041   1.551   6.130   8.618 -0.3164  0.7142  0.6961
  161SOPE  H16R18042   1.462   6.070   8.647  0.6367 -0.3480  1.5378
  161SOPE  H16S18043   1.610   6.061   8.554 -0.9336  2.6782 -2.1582
  161SOPE  C21718044   1.507   6.244   8.523 -0.0552  0.3035  0.9691
  161SOPE  H17R18045   1.424   6.302   8.568 -0.6135 -1.0411  1.7237
  161SOPE  H17S18046   1.459   6.193   8.436  0.0276  0.9794  0.5171
  161SOPE  C21818047   1.619   6.336   8.478 -0.3542  0.4237 -0.3149
  161SOPE  H18R18048   1.709   6.273   8.459  0.7928  2.1938 -1.0715
  161SOPE  H18S18049   1.646   6.399   8.566  0.4287 -0.7535  0.3199
  161SOPE  H18T18050   1.595   6.399   8.390  1.1239  1.0621 -0.2953
  161SOPE   C3318051   2.223   6.235   9.866  0.0873  0.4360 -0.0653
  161SOPE   H3X18052   2.249   6.128   9.849  1.6346  0.5340  1.4100
  161SOPE   H3Y18053   2.313   6.300   9.873  0.3629  0.2153 -1.3528
  161SOPE   C3418054   2.149   6.297   9.750  0.6078  0.3426 -1.0032
  161SOPE   H4X18055   2.111   6.397   9.777 -3.0164 -1.1251 -0.0753
  161SOPE   H4Y18056   2.058   6.240   9.721  0.3134  0.0683  0.3826
  161SOPE   C3518057   2.226   6.307   9.618 -0.0983 -0.2205  0.8095
  161SOPE   H5X18058   2.248   6.216   9.558  0.2211  0.9597 -0.9591
  161SOPE   H5Y18059   2.326   6.350   9.638  0.1252 -0.2971 -0.0795
  161SOPE   C3618060   2.153   6.401   9.522 -0.6192  0.5113 -0.5956
  161SOPE   H6X18061   2.150   6.501   9.568  0.1569 -0.8287  2.6085
  161SOPE   H6Y18062   2.045   6.380   9.506 -0.9828  0.5574  1.5072
  161SOPE   C3718063   2.225   6.406   9.388  0.8718  0.0693  0.1603
  161SOPE   H7X18064   2.231   6.305   9.343 -1.9347  0.6342 -1.7398
  161SOPE   H7Y18065   2.330   6.441   9.401  0.3357  2.5553 -1.4535
  161SOPE   C3818066   2.155   6.501   9.289 -0.0648 -0.1442 -0.6083
  161SOPE   H8X18067   2.155   6.602   9.337  3.2571  0.2982 -1.2334
  161SOPE   H8Y18068   2.050   6.477   9.264 -0.6500  2.8243 -1.4097
  161SOPE   C3918069   2.222   6.519   9.153 -0.1167  0.3316 -0.2442
  161SOPE   H9X18070   2.220   6.419   9.104 -1.3678 -0.9748  2.2711
  161SOPE   H9Y18071   2.328   6.550   9.161 -0.6879  3.2162 -2.4416
  161SOPE  C31018072   2.145   6.622   9.073  0.1318  0.0393 -0.7096
  161SOPE  H10X18073   2.074   6.678   9.137  0.1123 -0.7672 -0.0101
  161SOPE  H10Y18074   2.094   6.559   8.997 -1.5683  0.6124 -0.0917
  161SOPE  C31118075   2.229   6.723   8.998  0.1932 -1.2118  0.9834
  161SOPE  H11X18076   2.306   6.666   8.941  0.2049  1.4243 -1.9092
  161SOPE  H11Y18077   2.281   6.775   9.081  1.0997 -0.5274  0.0153
  161SOPE  C31218078   2.147   6.824   8.916 -0.2268 -0.5027 -0.5878
  161SOPE  H12X18079   2.077   6.882   8.980 -1.4720  1.1467 -3.2479
  161SOPE  H12Y18080   2.085   6.778   8.837 -1.5430  2.4767 -1.4280
  161SOPE  C31318081   2.231   6.933   8.854  0.3650  0.4944  0.1639
  161SOPE  H13X18082   2.297   6.893   8.774  0.9561 -0.5653  1.1533
  161SOPE  H13Y18083   2.284   6.985   8.937 -1.3127 -1.0330  2.2881
  161SOPE  C31418084   2.139   7.029   8.780  0.1806  0.0837 -0.2757
  161SOPE  H14X18085   2.069   7.079   8.850 -1.3802 -2.8852  0.4354
  161SOPE  H14Y18086   2.072   6.962   8.722  0.0380  0.0890 -0.1155
  161SOPE  C31518087   2.212   7.124   8.686  0.6476 -0.6661  0.0758
  161SOPE  H15X18088   2.259   7.053   8.615  0.3334  0.3878 -1.2236
  161SOPE  H15Y18089   2.282   7.194   8.736 -0.3720  0.1021  0.4776
  161SOPE  C31618090   2.114   7.199   8.586 -0.0302  0.5052 -0.0054
  161SOPE  H16X18091   2.043   7.133   8.532 -0.4438 -0.0060  1.1324
  161SOPE  H16Y18092   2.163   7.267   8.513 -1.1828 -0.5324 -1.7942
  161SOPE  C31718093   2.009   7.291   8.669 -0.3664  0.3959  0.6861
  161SOPE  H17X18094   1.966   7.250   8.762 -1.3645  1.8198  0.8830
  161SOPE  H17Y18095   1.927   7.316   8.598 -0.3595  1.4130  1.0128
  161SOPE  C31818096   2.074   7.429   8.702  0.0606 -0.0132  0.5889
  161SOPE  H18X18097   1.996   7.504   8.728  2.5022  3.4345 -1.2281
  161SOPE  H18Y18098   2.139   7.466   8.619  1.5624 -0.1237  1.6688
  161SOPE  H18Z18099   2.147   7.409   8.783  0.7530  0.2940  0.0511
  162SOPE     N18100   1.236   3.964  11.078  0.2462 -0.3720  0.0312
  162SOPE   HN118101   1.243   3.862  11.097  1.5716 -0.3188 -0.1065
  162SOPE   HN218102   1.170   3.998  11.151 -0.5659 -1.2046 -0.2958
  162SOPE   HN318103   1.184   3.977  10.989 -0.8646 -1.1598  0.5302
  162SOPE   C1218104   1.374   4.027  11.087 -0.1315 -0.1057 -0.6424
  162SOPE  H12A18105   1.446   3.971  11.023  0.4764 -0.6061  0.4467
  162SOPE  H12B18106   1.404   4.030  11.194  0.5027 -0.6112 -0.7983
  162SOPE   C1118107   1.373   4.171  11.037 -0.3590 -0.7878 -0.3682
  162SOPE  H11A18108   1.468   4.224  11.060 -0.1320 -0.0053 -2.7854
  162SOPE  H11B18109   1.295   4.228  11.093  0.1914 -0.0159 -0.3745
  162SOPE     P18110   1.416   4.288  10.813 -0.2106 -0.1130 -0.0348
  162SOPE   O1318111   1.564   4.264  10.819 -0.2561  0.0671 -0.0765
  162SOPE   O1418112   1.367   4.417  10.863 -0.0796 -0.1027  0.2472
  162SOPE   O1218113   1.341   4.173  10.896 -0.0134 -0.4430 -0.0533
  162SOPE   O1118114   1.353   4.266  10.671 -0.2382  1.2212  0.2481
  162SOPE    C118115   1.209   4.283  10.664 -0.3450 -0.4968  0.1747
  162SOPE    HA18116   1.183   4.351  10.580  0.9057  1.9421  1.6601
  162SOPE    HB18117   1.160   4.325  10.754  0.0668 -0.8135  0.5475
  162SOPE    C218118   1.141   4.144  10.647  0.1361 -0.8717  0.2487
  162SOPE    HS18119   1.217   4.069  10.677 -0.1537 -0.3487  2.4930
  162SOPE   O2118120   1.094   4.123  10.511 -0.3006 -0.0258  0.0250
  162SOPE   C2118121   1.090   4.014  10.457  0.5737  0.7688 -1.1361
  162SOPE   O2218122   1.123   3.913  10.522 -0.3231  0.0604  0.5246
  162SOPE   C2218123   1.041   4.017  10.303  0.4856 -0.3933  0.3092
  162SOPE   H2R18124   1.095   4.105  10.263  1.6655 -0.3912  1.8235
  162SOPE   H2S18125   0.932   4.036  10.311  0.3335 -0.7215 -0.7802
  162SOPE    C318126   1.018   4.124  10.739  0.1123  0.0056  0.1487
  162SOPE    HX18127   0.955   4.214  10.724 -0.2463 -0.4379 -1.1747
  162SOPE    HY18128   1.052   4.136  10.844  0.3194  0.0514  0.0768
  162SOPE   O3118129   0.941   4.002  10.711  0.1840 -0.2148 -0.4089
  162SOPE   C3118130   0.959   3.900  10.794  0.7649  0.3371 -0.2004
  162SOPE   O3218131   1.035   3.892  10.892 -0.0373  0.2431 -0.6242
  162SOPE   C3218132   0.851   3.784  10.759 -0.6515 -0.4461 -0.7884
  162SOPE   H2X18133   0.753   3.834  10.775 -0.3174  0.8322 -2.4489
  162SOPE   H2Y18134   0.863   3.708  10.838 -0.2703 -2.7616 -2.9417
  162SOPE   C2318135   1.071   3.885  10.218  0.5498  0.1744  0.5172
  162SOPE   H3R18136   0.971   3.837  10.215  1.1604 -1.1896  1.0037
  162SOPE   H3S18137   1.140   3.816  10.271  0.5698 -1.7227 -1.7785
  162SOPE   C2418138   1.121   3.900  10.081  0.4683  0.2654  0.4075
  162SOPE   H4R18139   1.041   3.936  10.013 -1.7743 -1.1168  2.1481
  162SOPE   H4S18140   1.206   3.971  10.071  1.2181 -0.7662 -0.9287
  162SOPE   C2518141   1.177   3.770  10.019 -0.0659  0.0744  0.1995
  162SOPE   H5R18142   1.265   3.738  10.079 -1.2610 -2.3784  0.7666
  162SOPE   H5S18143   1.109   3.682  10.022 -0.7288  0.6097  1.7314
  162SOPE   C2618144   1.215   3.774   9.871 -0.0552  0.4387  0.8448
  162SOPE   H6R18145   1.246   3.878   9.845  0.5542 -0.1890 -1.1355
  162SOPE   H6S18146   1.311   3.722   9.851 -0.8886 -0.0902 -2.4786
  162SOPE   C2718147   1.113   3.720   9.776  0.7426  0.1480 -0.3239
  162SOPE   H7R18148   1.023   3.707   9.840  0.3526  1.3138 -0.6045
  162SOPE   H7S18149   1.096   3.787   9.689 -0.6942 -1.0307 -0.9924
  162SOPE   C2818150   1.157   3.580   9.711 -0.0488  0.6124  0.0583
  162SOPE   H8R18151   1.233   3.594   9.631  1.5270 -1.5624  1.0605
  162SOPE   H8S18152   1.191   3.503   9.784 -1.5536 -0.3451 -0.2024
  162SOPE   C2918153   1.034   3.515   9.647  0.0368  0.0232 -0.1955
  162SOPE   H9118154   0.955   3.488   9.718 -0.6140  2.3700  0.0758
  162SOPE  C21018155   1.009   3.509   9.511 -0.6080 -0.0591 -0.1332
  162SOPE  H10118156   0.915   3.471   9.469 -0.0950 -0.4385 -0.9742
  162SOPE  C21118157   1.088   3.553   9.393 -0.0936 -0.8325  0.2595
  162SOPE  H11R18158   1.071   3.491   9.302 -2.0695  0.0215 -0.0170
  162SOPE  H11S18159   1.195   3.540   9.419 -0.0541  0.3451  0.7163
  162SOPE  C21218160   1.062   3.697   9.349  0.1949 -0.4466 -0.1168
  162SOPE  H12R18161   1.132   3.727   9.268 -2.3477  1.1137 -1.8927
  162SOPE  H12S18162   1.071   3.766   9.436 -0.7173 -0.7901  0.2559
  162SOPE  C21318163   0.921   3.713   9.278 -0.4332  0.3668 -0.8432
  162SOPE  H13R18164   0.843   3.700   9.355  0.2285  0.8781 -0.0630
  162SOPE  H13S18165   0.910   3.632   9.203  0.6946  1.7213 -2.5594
  162SOPE  C21418166   0.895   3.837   9.200  1.1110  0.1697 -0.5631
  162SOPE  H14R18167   0.938   3.833   9.098 -0.4978  0.6270 -1.3063
  162SOPE  H14S18168   0.953   3.925   9.235  0.5192  1.6161 -2.9831
  162SOPE  C21518169   0.739   3.866   9.190  0.3294  0.7057 -0.5771
  162SOPE  H15R18170   0.706   3.906   9.288 -1.7414  1.4730 -1.5095
  162SOPE  H15S18171   0.679   3.772   9.186  0.2193  0.7803 -0.6745
  162SOPE  C21618172   0.697   3.957   9.078  0.3841  0.4451 -0.5241
  162SOPE  H16R18173   0.773   4.036   9.056 -0.6761  1.3918 -0.9097
  162SOPE  H16S18174   0.603   4.008   9.108 -0.1265 -0.2061 -0.9808
  162SOPE  C21718175   0.668   3.875   8.951  0.4997 -0.6500  0.4772
  162SOPE  H17R18176   0.612   3.781   8.969  1.2563 -0.9381  1.4487
  162SOPE  H17S18177   0.767   3.851   8.909  0.0961 -0.9091 -0.3330
  162SOPE  C21818178   0.589   3.940   8.834  0.0628 -0.1893  0.4244
  162SOPE  H18R18179   0.646   4.025   8.791  2.2897 -1.7761  0.0675
  162SOPE  H18S18180   0.495   3.977   8.880  0.6079  0.8641  0.7477
  162SOPE  H18T18181   0.563   3.870   8.753  0.3524  0.9736 -0.7071
  162SOPE   C3318182   0.857   3.737  10.615  0.0238 -0.2146  0.4036
  162SOPE   H3X18183   0.963   3.735  10.581 -0.0496 -1.4595  0.2173
  162SOPE   H3Y18184   0.793   3.796  10.546  1.2504  1.9063  1.0081
  162SOPE   C3418185   0.811   3.585  10.600  0.1008  0.0249  0.2492
  162SOPE   H4X18186   0.710   3.575  10.646 -0.1301 -1.4041 -0.4971
  162SOPE   H4Y18187   0.879   3.518  10.657  0.4805  0.6495  0.5313
  162SOPE   C3518188   0.799   3.545  10.448  0.7969  0.6464 -0.4584
  162SOPE   H5X18189   0.900   3.529  10.404 -0.7876 -1.6656 -3.5569
  162SOPE   H5Y18190   0.738   3.622  10.397 -2.2903 -0.0840  1.8185
  162SOPE   C3618191   0.722   3.419  10.429 -0.0806  0.3820 -0.2313
  162SOPE   H6X18192   0.623   3.427  10.479  0.1368 -1.7101  0.6098
  162SOPE   H6Y18193   0.779   3.334  10.471  1.8784  1.4563 -0.6001
  162SOPE   C3718194   0.694   3.381  10.285 -0.6388 -0.1347  0.4207
  162SOPE   H7X18195   0.693   3.270  10.277 -2.5397 -0.3099  2.0457
  162SOPE   H7Y18196   0.786   3.407  10.229 -0.4020 -1.0226  0.3754
  162SOPE   C3818197   0.567   3.441  10.229  0.4910 -0.2024  0.3538
  162SOPE   H8X18198   0.581   3.550  10.215 -0.8162  0.3107  2.4341
  162SOPE   H8Y18199   0.477   3.422  10.292 -2.1629  2.3014 -2.3733
  162SOPE   C3918200   0.507   3.357  10.110  0.6412  0.6918  1.0518
  162SOPE   H9X18201   0.397   3.377  10.108  0.1972 -1.5253 -0.6783
  162SOPE   H9Y18202   0.523   3.249  10.129  0.8857  0.4456 -0.4652
  162SOPE  C31018203   0.563   3.403   9.980 -0.2159 -0.6309 -0.6216
  162SOPE  H10X18204   0.673   3.385   9.990 -0.4287 -1.3865  0.5863
  162SOPE  H10Y18205   0.551   3.514   9.976  0.4588 -0.4697  0.9840
  162SOPE  C31118206   0.500   3.340   9.858  0.7741  0.7530  0.1042
  162SOPE  H11X18207   0.390   3.338   9.867  0.8455 -0.4096  0.8949
  162SOPE  H11Y18208   0.538   3.237   9.846  1.5001  0.8105  1.6269
  162SOPE  C31218209   0.534   3.424   9.736  0.4636 -0.6725  0.5097
  162SOPE  H12X18210   0.629   3.479   9.750  0.0353  0.1491  0.2637
  162SOPE  H12Y18211   0.447   3.493   9.731  0.6514 -0.4593  0.1445
  162SOPE  C31318212   0.545   3.344   9.608  0.1828 -0.4923  0.2145
  162SOPE  H13X18213   0.443   3.323   9.569 -0.6803  1.3222  1.3289
  162SOPE  H13Y18214   0.599   3.248   9.620  2.6919  0.6117 -1.2978
  162SOPE  C31418215   0.625   3.428   9.506  0.2011  0.2200  0.3074
  162SOPE  H14X18216   0.717   3.459   9.560  1.7335 -0.7970 -1.5869
  162SOPE  H14Y18217   0.568   3.523   9.496  2.6893  2.0102  1.9209
  162SOPE  C31518218   0.661   3.358   9.372 -0.1338 -0.0223 -0.1226
  162SOPE  H15X18219   0.562   3.326   9.331 -1.4096  2.8738  0.4788
  162SOPE  H15Y18220   0.723   3.270   9.400  0.4104  0.1938 -0.6285
  162SOPE  C31618221   0.728   3.438   9.264  0.1017 -0.3969 -0.2541
  162SOPE  H16X18222   0.838   3.425   9.272  0.3015 -0.2532 -2.2238
  162SOPE  H16Y18223   0.690   3.539   9.290 -1.0560 -1.1588  1.1582
  162SOPE  C31718224   0.690   3.399   9.120 -0.5295 -0.5414  0.1375
  162SOPE  H17X18225   0.581   3.406   9.101 -0.8205 -0.1309  1.8135
  162SOPE  H17Y18226   0.727   3.300   9.085 -2.1774 -0.4629 -2.0382
  162SOPE  C31818227   0.759   3.499   9.020 -0.1932  0.5562 -0.5390
  162SOPE  H18X18228   0.726   3.605   9.032  0.4421  0.4950  2.2547
  162SOPE  H18Y18229   0.768   3.459   8.917 -1.9332 -0.7827 -0.2244
  162SOPE  H18Z18230   0.868   3.508   9.040  0.4472 -2.9005 -1.8639
  163SOPE     N18231   0.469   0.940  11.312 -0.2707  0.2121  0.3180
  163SOPE   HN118232   0.557   0.886  11.323  0.1103  0.9402  0.9949
  163SOPE   HN218233   0.435   0.959  11.408  0.6829  0.1101  0.6937
  163SOPE   HN318234   0.397   0.887  11.260 -0.6038  0.1491  0.8286
  163SOPE   C1218235   0.507   1.065  11.248  0.0638 -0.0229 -0.2923
  163SOPE  H12A18236   0.592   1.112  11.302  3.5865 -3.1835 -2.5690
  163SOPE  H12B18237   0.419   1.130  11.230 -0.1204 -0.4868 -1.1437
  163SOPE   C1118238   0.577   1.027  11.119  0.7755 -0.5097  0.5908
  163SOPE  H11A18239   0.605   1.121  11.067 -1.2144  0.1045  0.5263
  163SOPE  H11B18240   0.505   0.972  11.054  1.3107 -0.7397  0.1888
  163SOPE     P18241   0.754   0.867  11.015 -0.0874  0.0333  0.1230
  163SOPE   O1318242   0.661   0.763  10.988  0.1022  0.7359 -0.7976
  163SOPE   O1418243   0.893   0.831  11.041  0.7198  0.0846 -0.1364
  163SOPE   O1218244   0.696   0.942  11.140 -0.7049  0.2510  0.3003
  163SOPE   O1118245   0.759   0.972  10.898 -0.0615 -0.0590 -0.2592
  163SOPE    C118246   0.662   0.998  10.797 -0.7146  0.2805  0.0267
  163SOPE    HA18247   0.656   1.109  10.799  0.2199  0.3638 -0.9695
  163SOPE    HB18248   0.563   0.956  10.824 -1.7749  0.4143 -3.2580
  163SOPE    C218249   0.701   0.949  10.655 -0.6752 -0.2182  0.0553
  163SOPE    HS18250   0.622   0.988  10.587  0.5356  0.7956 -0.8278
  163SOPE   O2118251   0.712   0.807  10.638  0.2988 -0.7536  0.1129
  163SOPE   C2118252   0.595   0.743  10.639 -0.3928  0.1718  0.3397
  163SOPE   O2218253   0.488   0.790  10.650  0.0437 -0.3602  0.0179
  163SOPE   C2218254   0.622   0.589  10.635 -0.0519 -0.0392 -1.1185
  163SOPE   H2R18255   0.612   0.555  10.740 -1.0574 -0.5263 -1.3642
  163SOPE   H2S18256   0.727   0.579  10.599  1.2447  3.8692  0.9786
  163SOPE    C318257   0.838   1.009  10.617 -0.2407 -0.2559  0.4513
  163SOPE    HX18258   0.911   0.953  10.680 -1.4146 -0.4499  1.6754
  163SOPE    HY18259   0.872   1.112  10.642  1.5373 -0.7779  0.3136
  163SOPE   O3118260   0.853   0.994  10.476 -0.0016  0.4960 -0.2375
  163SOPE   C3118261   0.929   0.887  10.436 -0.7195 -0.7034  0.3861
  163SOPE   O3218262   0.988   0.815  10.512  0.1364  0.0962  0.3955
  163SOPE   C3218263   0.923   0.872  10.286  0.4512  0.4277  0.9237
  163SOPE   H2X18264   0.866   0.947  10.226  0.2938 -1.2821 -1.1969
  163SOPE   H2Y18265   0.863   0.779  10.268  0.6534  0.6187 -1.0014
  163SOPE   C2318266   0.517   0.508  10.552  0.3675  0.1201 -0.1451
  163SOPE   H3R18267   0.416   0.548  10.575  0.0925 -0.4152 -0.3998
  163SOPE   H3S18268   0.532   0.403  10.587  1.4268  0.7132  1.2406
  163SOPE   C2418269   0.547   0.504  10.405  0.5724  0.7135 -0.6507
  163SOPE   H4R18270   0.629   0.432  10.382 -0.7214 -0.6337 -1.2276
  163SOPE   H4S18271   0.462   0.462  10.347 -1.7258  3.1087  0.7697
  163SOPE   C2518272   0.581   0.631  10.322  0.7636 -0.2249  0.3949
  163SOPE   H5R18273   0.505   0.707  10.352  0.9310  0.2225 -0.2767
  163SOPE   H5S18274   0.674   0.680  10.360 -0.7169  1.6322  1.8725
  163SOPE   C2618275   0.584   0.631  10.167 -0.0435  0.1645 -1.3584
  163SOPE   H6R18276   0.661   0.555  10.143 -0.1713 -0.9315  1.3319
  163SOPE   H6S18277   0.481   0.605  10.133 -1.6139 -0.8475  3.4059
  163SOPE   C2718278   0.622   0.764  10.102 -0.3351 -0.6728 -0.4495
  163SOPE   H7R18279   0.567   0.848  10.150 -0.7081 -0.8149 -0.6195
  163SOPE   H7S18280   0.730   0.784  10.115 -0.3829 -0.2350 -0.7122
  163SOPE   C2818281   0.589   0.785   9.948  0.1265  0.6656  0.3357
  163SOPE   H8R18282   0.484   0.763   9.919 -1.1160  5.4074  0.5237
  163SOPE   H8S18283   0.601   0.895   9.937  1.2999  0.4393 -0.8930
  163SOPE   C2918284   0.692   0.717   9.865 -0.3917 -0.0375  0.5340
  163SOPE   H9118285   0.785   0.691   9.917  0.2322 -0.4834 -0.7560
  163SOPE  C21018286   0.685   0.680   9.736  0.6621 -0.1690 -0.3608
  163SOPE  H10118287   0.766   0.622   9.689  0.1288  0.3157 -1.9380
  163SOPE  C21118288   0.563   0.707   9.645 -0.6954 -0.1908  0.3195
  163SOPE  H11R18289   0.562   0.815   9.621 -1.0919 -0.0440  1.0020
  163SOPE  H11S18290   0.472   0.667   9.694 -0.7968  1.0984  1.2064
  163SOPE  C21218291   0.582   0.624   9.517 -0.0565  0.6630 -0.6864
  163SOPE  H12R18292   0.589   0.517   9.547  3.3644  1.0712  0.4341
  163SOPE  H12S18293   0.676   0.654   9.464  1.1909  1.4435  1.8145
  163SOPE  C21318294   0.462   0.642   9.418 -0.5200 -0.5232  0.6512
  163SOPE  H13R18295   0.463   0.748   9.386 -0.5871 -0.7545 -0.1362
  163SOPE  H13S18296   0.364   0.632   9.468  0.0182  1.2940  2.1723
  163SOPE  C21418297   0.468   0.565   9.282 -0.1571 -0.2366 -0.0409
  163SOPE  H14R18298   0.438   0.459   9.292  2.5599 -1.4256 -2.8506
  163SOPE  H14S18299   0.573   0.561   9.244 -0.2264  0.8827 -0.3903
  163SOPE  C21518300   0.387   0.626   9.172  0.2191  0.5817  0.5969
  163SOPE  H15R18301   0.433   0.718   9.131  0.2147 -0.8434 -2.9639
  163SOPE  H15S18302   0.291   0.650   9.222 -1.7625 -1.5161 -1.9108
  163SOPE  C21618303   0.353   0.529   9.052  0.2885 -0.2041 -0.2475
  163SOPE  H16R18304   0.284   0.587   8.988 -0.7363 -3.0648 -1.9359
  163SOPE  H16S18305   0.282   0.448   9.080 -0.7143  0.5359 -0.5854
  163SOPE  C21718306   0.472   0.474   8.967 -0.4319  0.6989 -0.3483
  163SOPE  H17R18307   0.545   0.423   9.033 -0.4519  1.7581  0.5093
  163SOPE  H17S18308   0.525   0.561   8.923  0.6528  0.0771 -0.3057
  163SOPE  C21818309   0.422   0.369   8.862  1.0401 -0.3613 -0.6635
  163SOPE  H18R18310   0.395   0.276   8.915  3.8020 -0.0167  1.6001
  163SOPE  H18S18311   0.505   0.350   8.790  1.3187 -0.8456 -0.2185
  163SOPE  H18T18312   0.333   0.401   8.804 -1.7878 -3.2508  1.7549
  163SOPE   C3318313   1.063   0.844  10.228  0.1558 -0.3279  0.2195
  163SOPE   H3X18314   1.136   0.787  10.289  1.4825 -1.3394 -2.1765
  163SOPE   H3Y18315   1.107   0.943  10.204 -1.6221 -0.0975 -2.5617
  163SOPE   C3418316   1.039   0.767  10.090 -0.2718 -0.7641 -0.7399
  163SOPE   H4X18317   0.967   0.833  10.037 -0.8928  1.0320  2.0972
  163SOPE   H4Y18318   0.990   0.669  10.106 -1.1724 -0.4750 -1.5939
  163SOPE   C3518319   1.169   0.739  10.010 -0.0995  0.4465 -0.6075
  163SOPE   H5X18320   1.234   0.687  10.083 -1.0431 -0.1822 -0.2005
  163SOPE   H5Y18321   1.222   0.828   9.971 -0.2858  1.2962  0.9952
  163SOPE   C3618322   1.142   0.641   9.898 -0.0648  0.2291 -0.1567
  163SOPE   H6X18323   1.065   0.567   9.929 -0.0504 -0.6191 -2.0162
  163SOPE   H6Y18324   1.237   0.586   9.880  0.2146  0.1787  1.3165
  163SOPE   C3718325   1.104   0.711   9.767  0.1794  0.3719 -0.2622
  163SOPE   H7X18326   1.186   0.776   9.728 -1.0638  1.9786 -0.3050
  163SOPE   H7Y18327   1.020   0.776   9.801 -0.0178 -0.3149  0.6075
  163SOPE   C3818328   1.061   0.615   9.644  0.7290 -0.3045 -0.5742
  163SOPE   H8X18329   0.966   0.564   9.673 -0.3882  1.3857 -1.1652
  163SOPE   H8Y18330   1.138   0.538   9.624 -0.3411 -1.6400  0.2090
  163SOPE   C3918331   1.024   0.693   9.513 -0.3040  0.6089  0.2783
  163SOPE   H9X18332   1.112   0.751   9.478  1.1595 -1.4581  0.3911
  163SOPE   H9Y18333   0.952   0.776   9.532  1.5355  2.0734  1.1461
  163SOPE  C31018334   0.964   0.602   9.405 -0.7503 -0.0305 -0.2021
  163SOPE  H10X18335   0.874   0.550   9.445 -0.5526 -0.0125  0.2715
  163SOPE  H10Y18336   1.041   0.523   9.390 -0.0172  0.7331 -0.5734
  163SOPE  C31118337   0.936   0.671   9.274 -0.2446  0.2856 -1.0819
  163SOPE  H11X18338   1.031   0.715   9.236  0.4417  0.0215  0.2570
  163SOPE  H11Y18339   0.859   0.749   9.292  0.8979  1.1665  0.3353
  163SOPE  C31218340   0.897   0.574   9.168 -0.0446  0.1037  0.0905
  163SOPE  H12X18341   0.804   0.519   9.195  1.2035 -2.7572 -1.0441
  163SOPE  H12Y18342   0.983   0.504   9.163  1.8382  2.0749  2.2856
  163SOPE  C31318343   0.895   0.642   9.031  0.3566  0.3337 -0.3465
  163SOPE  H13X18344   0.991   0.696   9.016  0.5315  0.1098 -0.0360
  163SOPE  H13Y18345   0.816   0.719   9.040  1.0607  0.8338  2.2002
  163SOPE  C31418346   0.885   0.548   8.910  0.1787 -0.2640 -0.4357
  163SOPE  H14X18347   0.778   0.517   8.918  0.3321 -0.4465  1.0008
  163SOPE  H14Y18348   0.944   0.457   8.932 -0.2704 -0.0140  2.0323
  163SOPE  C31518349   0.909   0.616   8.772 -0.3025  0.0684  0.8102
  163SOPE  H15X18350   0.990   0.692   8.784  0.6884 -0.6019 -1.1716
  163SOPE  H15Y18351   0.814   0.666   8.744  0.3405  0.5678 -0.5910
  163SOPE  C31618352   0.950   0.522   8.664  0.0281  0.8510  0.3240
  163SOPE  H16X18353   0.869   0.446   8.653  0.2710  0.5087  0.8518
  163SOPE  H16Y18354   1.036   0.460   8.699  0.8350  2.2169  0.8299
  163SOPE  C31718355   0.995   0.571   8.530 -0.0962  0.2284  0.0502
  163SOPE  H17X18356   1.078   0.641   8.551 -0.4320  1.4504 -2.3954
  163SOPE  H17Y18357   0.918   0.628   8.473 -0.9907 -1.8715 -0.9730
  163SOPE  C31818358   1.053   0.455   8.437 -0.2472 -0.4240  0.1442
  163SOPE  H18X18359   0.966   0.399   8.398 -0.8228 -0.1664  1.0460
  163SOPE  H18Y18360   1.130   0.394   8.488  0.2357 -1.6918 -1.9692
  163SOPE  H18Z18361   1.100   0.507   8.350 -0.1207 -0.7204  0.0359
  164SOPE     N18362   6.166   5.688  10.696 -0.2898  0.6646 -0.3706
  164SOPE   HN118363   6.116   5.622  10.633  1.4770  0.0354 -1.2098
  164SOPE   HN218364   6.134   5.657  10.790 -0.8978  0.9666 -0.4817
  164SOPE   HN318365   6.132   5.785  10.685  0.6344  1.4264  2.4971
  164SOPE   C1218366   6.316   5.683  10.669  0.3646 -0.2339  0.4112
  164SOPE  H12A18367   6.342   5.575  10.660 -2.8797 -1.0053 -1.0812
  164SOPE  H12B18368   6.374   5.724  10.755  2.9475 -3.6141  0.4612
  164SOPE   C1118369   6.355   5.759  10.539  1.0135 -0.9952  0.2132
  164SOPE  H11A18370   6.320   5.704  10.449 -0.0924 -0.3323  0.2038
  164SOPE  H11B18371   6.465   5.769  10.530  0.8293  1.4132 -0.0383
  164SOPE     P18372   6.389   6.018  10.558 -0.1448  0.0528  0.1031
  164SOPE   O1318373   6.472   6.003  10.679  0.4010  0.2191 -0.1146
  164SOPE   O1418374   6.306   6.145  10.537  0.4666  0.0857  0.3733
  164SOPE   O1218375   6.299   5.894  10.538 -0.3074  0.4377 -0.3544
  164SOPE   O1118376   6.489   6.015  10.437  0.0184 -0.1387 -0.7816
  164SOPE    C118377   6.458   5.976  10.301  0.6993  0.4020  0.2828
  164SOPE    HA18378   6.383   5.895  10.290  0.9706  0.3351 -1.2775
  164SOPE    HB18379   6.549   5.958  10.241 -0.1424  0.2578 -1.0078
  164SOPE    C218380   6.406   6.094  10.213  0.9334  0.2686 -0.6096
  164SOPE    HS18381   6.462   6.181  10.254 -1.7571  1.0088  1.7825
  164SOPE   O2118382   6.267   6.104  10.246 -0.2941 -0.0858  0.3933
  164SOPE   C2118383   6.220   6.227  10.244 -0.9402 -0.1723  0.5056
  164SOPE   O2218384   6.279   6.329  10.210  0.0304 -0.6784 -0.0548
  164SOPE   C2218385   6.073   6.219  10.283  0.4165 -0.1723  0.0141
  164SOPE   H2R18386   6.034   6.322  10.294 -2.7845 -1.4827  2.2421
  164SOPE   H2S18387   6.064   6.164  10.379 -0.7750 -0.5684 -0.3022
  164SOPE    C318388   6.430   6.079  10.061  0.7939  0.6911 -0.0652
  164SOPE    HX18389   6.384   6.169  10.014 -1.9771 -0.5055  0.1588
  164SOPE    HY18390   6.364   5.993  10.036  1.1937  0.2300  0.4473
  164SOPE   O3118391   6.568   6.052  10.024 -0.2138 -0.4446 -0.2495
  164SOPE   C3118392   6.643   6.166   9.997 -0.5674 -0.4657 -0.4146
  164SOPE   O3218393   6.606   6.280  10.021  0.2016 -0.0373  0.3836
  164SOPE   C3218394   6.786   6.127   9.965 -0.1044 -0.5071  0.6016
  164SOPE   H2X18395   6.781   6.018   9.942  0.0900 -0.6092  1.0359
  164SOPE   H2Y18396   6.841   6.148  10.059 -3.3392  2.0182  2.1499
  164SOPE   C2318397   5.992   6.131  10.182 -0.2012  0.0377  0.1701
  164SOPE   H3R18398   5.898   6.103  10.233  0.7026 -1.1396  1.2397
  164SOPE   H3S18399   6.041   6.033  10.164 -2.0103 -0.7706 -0.6349
  164SOPE   C2418400   5.955   6.197  10.051  0.8554 -0.1937  1.1815
  164SOPE   H4R18401   5.918   6.300  10.070 -0.7087 -0.1665 -1.4669
  164SOPE   H4S18402   6.051   6.214   9.998 -0.1873  2.4304 -0.0459
  164SOPE   C2518403   5.871   6.113   9.949 -0.2703 -0.0389  0.2191
  164SOPE   H5R18404   5.929   6.022   9.920 -0.6732 -0.4354  0.6455
  164SOPE   H5S18405   5.780   6.076  10.001  1.2629 -2.1095  1.6118
  164SOPE   C2618406   5.836   6.198   9.826  0.6321  0.2482 -0.5139
  164SOPE   H6R18407   5.762   6.273   9.861 -0.0228 -1.0990  1.1173
  164SOPE   H6S18408   5.921   6.248   9.774 -0.5279  0.2570 -2.5120
  164SOPE   C2718409   5.759   6.111   9.727 -0.0145 -0.2690 -0.5531
  164SOPE   H7R18410   5.835   6.041   9.685  2.1369 -0.3069  2.9122
  164SOPE   H7S18411   5.685   6.053   9.787 -1.7736  1.6867 -0.7312
  164SOPE   C2818412   5.678   6.187   9.618  0.3137  0.6042 -0.1632
  164SOPE   H8R18413   5.619   6.125   9.548 -0.6348  0.1978  0.9499
  164SOPE   H8S18414   5.596   6.242   9.668 -0.1657  3.7796 -3.9660
  164SOPE   C2918415   5.761   6.283   9.539 -0.6037  1.2426 -0.7342
  164SOPE   H9118416   5.839   6.328   9.603 -2.7441  0.3457  2.8088
  164SOPE  C21018417   5.771   6.302   9.411  0.2126  0.4249 -0.2359
  164SOPE  H10118418   5.834   6.387   9.382  1.6533 -0.5465 -0.0237
  164SOPE  C21118419   5.684   6.233   9.305  0.0911 -0.3666  0.6058
  164SOPE  H11R18420   5.637   6.305   9.234  3.1646  0.9152 -0.2833
  164SOPE  H11S18421   5.587   6.202   9.351 -0.8778  1.2151 -0.2901
  164SOPE  C21218422   5.752   6.113   9.231  0.5012 -0.0410 -1.0470
  164SOPE  H12R18423   5.769   6.038   9.311 -2.9810  0.7377  0.6627
  164SOPE  H12S18424   5.844   6.150   9.182  0.3115 -0.3919 -1.6754
  164SOPE  C21318425   5.659   6.057   9.123 -0.0334 -0.1592  0.6306
  164SOPE  H13R18426   5.607   6.134   9.061 -1.2632 -1.3289  0.1669
  164SOPE  H13S18427   5.568   6.001   9.153 -0.0415  0.6724  2.2714
  164SOPE  C21418428   5.739   5.963   9.029 -0.0788  0.1596 -0.6019
  164SOPE  H14R18429   5.778   5.873   9.081 -0.4951 -0.4878 -1.3891
  164SOPE  H14S18430   5.826   6.011   8.979  0.1017 -0.1747 -0.6121
  164SOPE  C21518431   5.642   5.907   8.927  0.7288 -0.6159 -0.6877
  164SOPE  H15R18432   5.586   5.994   8.884 -0.5371 -1.4338 -0.7558
  164SOPE  H15S18433   5.557   5.860   8.982  0.0151  1.9502  0.6304
  164SOPE  C21618434   5.710   5.825   8.826  0.3769  0.5090  0.9768
  164SOPE  H16R18435   5.792   5.874   8.769 -0.2081 -2.3362 -2.6602
  164SOPE  H16S18436   5.643   5.804   8.740 -0.2266  3.5027  0.6075
  164SOPE  C21718437   5.772   5.688   8.875 -0.4573 -0.1734  0.8457
  164SOPE  H17R18438   5.696   5.624   8.925  0.6471 -0.0821  2.7556
  164SOPE  H17S18439   5.836   5.713   8.962  0.0464  0.7333  0.2313
  164SOPE  C21818440   5.845   5.617   8.763 -0.3358  0.9409 -0.7627
  164SOPE  H18R18441   5.918   5.684   8.712 -0.4725  0.7685 -1.1860
  164SOPE  H18S18442   5.766   5.590   8.690 -2.3102 -0.0848  1.6074
  164SOPE  H18T18443   5.896   5.526   8.800  0.8490  1.5492 -0.8275
  164SOPE   C3318444   6.842   6.211   9.852  0.5476 -0.1720 -0.1774
  164SOPE   H3X18445   6.953   6.205   9.852  0.6232  0.7913  0.9572
  164SOPE   H3Y18446   6.821   6.320   9.861  1.4697  0.2796 -2.6771
  164SOPE   C3418447   6.800   6.176   9.709  0.8585 -0.0200  0.3175
  164SOPE   H4X18448   6.818   6.068   9.688 -1.8872 -0.5279  0.2033
  164SOPE   H4Y18449   6.857   6.227   9.629  1.1498 -0.3488  0.3133
  164SOPE   C3518450   6.653   6.202   9.678 -0.2357 -0.3845 -0.5669
  164SOPE   H5X18451   6.616   6.306   9.691  1.9837  0.5868 -1.4675
  164SOPE   H5Y18452   6.588   6.147   9.749 -0.1363  0.9699  0.6110
  164SOPE   C3618453   6.607   6.164   9.539  0.7705 -0.3500 -0.3404
  164SOPE   H6X18454   6.501   6.195   9.532  0.6359 -0.9313 -1.0103
  164SOPE   H6Y18455   6.610   6.054   9.528  0.9588 -0.3510 -0.2993
  164SOPE   C3718456   6.679   6.224   9.423  0.2413  0.0937  0.0331
  164SOPE   H7X18457   6.790   6.218   9.428  0.2766  0.7000  0.1493
  164SOPE   H7Y18458   6.658   6.333   9.427 -1.4178 -0.1146 -1.7496
  164SOPE   C3818459   6.639   6.165   9.287  0.2511 -0.0390  0.2905
  164SOPE   H8X18460   6.535   6.203   9.274 -0.7416 -1.1521  3.8603
  164SOPE   H8Y18461   6.633   6.054   9.281 -2.9001  0.0956 -1.0792
  164SOPE   C3918462   6.734   6.204   9.179 -0.7737 -0.9469  0.2741
  164SOPE   H9X18463   6.840   6.180   9.203 -0.7743 -1.6577 -0.3765
  164SOPE   H9Y18464   6.717   6.314   9.171 -3.2773 -1.2499  0.8375
  164SOPE  C31018465   6.695   6.158   9.038  0.4817  0.0321  0.1482
  164SOPE  H10X18466   6.706   6.048   9.026  2.0562  0.3778 -2.2426
  164SOPE  H10Y18467   6.767   6.215   8.975  0.2653  0.6575  0.4605
  164SOPE  C31118468   6.549   6.198   9.001  0.0779  0.0262  0.1436
  164SOPE  H11X18469   6.536   6.305   9.029 -2.6813 -0.0786 -0.4972
  164SOPE  H11Y18470   6.489   6.152   9.083  2.2621  1.3930  2.6813
  164SOPE  C31218471   6.498   6.169   8.858  0.3838 -0.2956 -0.0195
  164SOPE  H12X18472   6.527   6.066   8.829  0.5536 -0.0691 -0.6943
  164SOPE  H12Y18473   6.546   6.241   8.787 -0.6727  0.0701 -0.3779
  164SOPE  C31318474   6.337   6.197   8.847  0.2749 -0.2016 -0.0446
  164SOPE  H13X18475   6.289   6.120   8.912 -1.5276 -1.1565 -2.3634
  164SOPE  H13Y18476   6.301   6.182   8.743  0.0262 -0.7762  0.1198
  164SOPE  C31418477   6.295   6.328   8.909  0.4507  0.2374  0.2914
  164SOPE  H14X18478   6.353   6.400   8.849  0.7460 -0.4741 -0.2929
  164SOPE  H14Y18479   6.312   6.338   9.019 -0.8665 -0.6139  0.6041
  164SOPE  C31518480   6.146   6.344   8.884  0.7758  0.9118  0.3295
  164SOPE  H15X18481   6.080   6.259   8.912 -1.2381  1.6405 -1.8286
  164SOPE  H15Y18482   6.142   6.354   8.773  1.1230  1.4222  0.3586
  164SOPE  C31618483   6.085   6.470   8.959  0.1124  0.4082 -0.1832
  164SOPE  H16X18484   6.137   6.565   8.933  0.1419  0.8237  1.3124
  164SOPE  H16Y18485   6.112   6.448   9.065 -0.5440  0.8626  0.0821
  164SOPE  C31718486   5.932   6.480   8.939  0.1533  0.3136 -0.2678
  164SOPE  H17X18487   5.912   6.482   8.830 -0.7083 -0.0613 -0.1217
  164SOPE  H17Y18488   5.900   6.585   8.954 -3.5663 -0.0839 -3.8732
  164SOPE  C31818489   5.839   6.379   9.013 -0.2204 -0.1978 -0.3993
  164SOPE  H18X18490   5.730   6.400   9.004 -0.2786 -0.0183  0.6188
  164SOPE  H18Y18491   5.861   6.383   9.122 -1.6349  1.5180 -0.1323
  164SOPE  H18Z18492   5.860   6.275   8.979 -0.3956  0.0995 -1.4390
  165SOPE     N18493   4.325   0.276  10.675 -0.2859  0.1526 -0.0652
  165SOPE   HN118494   4.368   0.225  10.595  0.1072 -0.3901  0.4848
  165SOPE   HN218495   4.236   0.224  10.692 -0.1079 -0.1907 -0.1782
  165SOPE   HN318496   4.301   0.365  10.628 -4.4033 -0.9850 -0.5468
  165SOPE   C1218497   4.423   0.265  10.790  0.1171  0.6342 -0.0620
  165SOPE  H12A18498   4.439   0.159  10.819  1.5069  0.5917 -0.9404
  165SOPE  H12B18499   4.380   0.317  10.879 -1.2791 -0.0088 -0.3233
  165SOPE   C1118500   4.547   0.341  10.744 -0.0968 -0.0070 -1.0182
  165SOPE  H11A18501   4.565   0.306  10.641 -0.8965 -1.3507 -0.7189
  165SOPE  H11B18502   4.630   0.311  10.811 -0.9468  2.4053  1.3132
  165SOPE     P18503   4.623   0.580  10.802  0.1303 -0.3776 -0.5919
  165SOPE   O1318504   4.751   0.514  10.844 -0.0714 -0.7240  0.2115
  165SOPE   O1418505   4.551   0.669  10.895 -0.3192  0.2316  0.4948
  165SOPE   O1218506   4.524   0.479  10.747  0.2546  0.0119 -0.1936
  165SOPE   O1118507   4.638   0.661  10.666 -0.1098  0.6764 -0.7680
  165SOPE    C118508   4.752   0.682  10.595 -0.2442 -0.6763  1.3264
  165SOPE    HA18509   4.829   0.608  10.626  2.2185  1.8557  1.5859
  165SOPE    HB18510   4.774   0.789  10.610 -0.1502 -0.1386 -1.9230
  165SOPE    C218511   4.717   0.662  10.445  0.0200  0.4210 -0.3551
  165SOPE    HS18512   4.642   0.740  10.420  0.4650  0.6078 -1.1558
  165SOPE   O2118513   4.666   0.528  10.429 -0.1245 -0.3533 -0.3548
  165SOPE   C2118514   4.575   0.510  10.337 -0.9692  0.4427  0.5388
  165SOPE   O2218515   4.518   0.597  10.274  0.4937  0.2401 -0.4735
  165SOPE   C2218516   4.554   0.358  10.320  0.1510 -0.1802 -0.1630
  165SOPE   H2R18517   4.466   0.345  10.254 -0.9215  0.1343  1.1522
  165SOPE   H2S18518   4.525   0.308  10.415 -1.5040  1.1360  0.0709
  165SOPE    C318519   4.832   0.675  10.348 -0.3783 -0.8796  0.0156
  165SOPE    HX18520   4.907   0.596  10.370  0.7982  0.2717  0.2960
  165SOPE    HY18521   4.883   0.773  10.366 -1.9395  0.1156 -0.7294
  165SOPE   O3118522   4.795   0.670  10.206 -0.2727 -0.0065  0.6431
  165SOPE   C3118523   4.746   0.789  10.157  0.7698  0.6464  0.9136
  165SOPE   O3218524   4.742   0.892  10.224  0.0114 -0.0547  0.2578
  165SOPE   C3218525   4.710   0.769  10.004 -0.6044 -0.2827 -0.3496
  165SOPE   H2X18526   4.610   0.722   9.997 -0.1314 -1.1997 -1.3708
  165SOPE   H2Y18527   4.796   0.706   9.973 -0.2655 -0.3519  0.6929
  165SOPE   C2318528   4.686   0.287  10.263 -0.6206 -0.5260  0.8317
  165SOPE   H3R18529   4.647   0.190  10.225 -2.4661  0.7135 -0.5942
  165SOPE   H3S18530   4.769   0.269  10.334 -1.0448 -3.4700  0.7379
  165SOPE   C2418531   4.746   0.348  10.132  0.1790  0.0243 -0.5024
  165SOPE   H4R18532   4.797   0.442  10.163  0.1792 -0.3946  0.8659
  165SOPE   H4S18533   4.816   0.269  10.099 -0.0746  0.0295 -1.0485
  165SOPE   C2518534   4.645   0.364  10.013  0.3487 -0.1226  0.5546
  165SOPE   H5R18535   4.587   0.271   9.995  1.0350 -0.5306  0.3895
  165SOPE   H5S18536   4.581   0.445  10.054  0.1005 -1.0294  2.0674
  165SOPE   C2618537   4.714   0.412   9.889  0.3900 -0.0987  0.1702
  165SOPE   H6R18538   4.764   0.508   9.917  1.1415 -0.3053 -0.4247
  165SOPE   H6S18539   4.792   0.339   9.858  0.1417 -0.9467  1.4732
  165SOPE   C2718540   4.621   0.439   9.769 -0.0860 -0.4743 -0.8762
  165SOPE   H7R18541   4.528   0.492   9.799  0.5316  0.0939  0.0625
  165SOPE   H7S18542   4.675   0.510   9.702  0.6403  1.8734  1.9798
  165SOPE   C2818543   4.570   0.311   9.696 -0.2267 -0.3697 -0.2878
  165SOPE   H8R18544   4.513   0.247   9.767 -0.1165  0.4164  0.5172
  165SOPE   H8S18545   4.493   0.347   9.624  0.2926 -0.4134 -0.8703
  165SOPE   C2918546   4.670   0.223   9.626  0.2951  0.3099  0.0136
  165SOPE   H9118547   4.717   0.146   9.689  0.2722 -0.0575 -0.4075
  165SOPE  C21018548   4.696   0.234   9.496 -0.4384  0.8146  0.3576
  165SOPE  H10118549   4.779   0.177   9.453 -0.3293  2.2782 -1.4616
  165SOPE  C21118550   4.636   0.331   9.407  0.2973  0.5900 -0.0983
  165SOPE  H11R18551   4.706   0.411   9.373 -2.9290  4.7523  2.0769
  165SOPE  H11S18552   4.547   0.382   9.449 -2.1454 -1.9023 -1.9426
  165SOPE  C21218553   4.602   0.271   9.264 -0.3921  0.7647 -0.4418
  165SOPE  H12R18554   4.692   0.214   9.232 -1.6298 -1.1703 -0.6361
  165SOPE  H12S18555   4.581   0.355   9.195 -1.8617  0.4900 -0.3494
  165SOPE  C21318556   4.485   0.166   9.260 -0.4659 -0.0398  0.1571
  165SOPE  H13R18557   4.400   0.226   9.300 -0.2378  0.2693  0.1804
  165SOPE  H13S18558   4.523   0.092   9.333  1.5327  1.1535  0.4108
  165SOPE  C21418559   4.450   0.125   9.116 -0.5615  0.2742  0.1427
  165SOPE  H14R18560   4.378   0.041   9.127 -0.1743 -0.0041  0.5670
  165SOPE  H14S18561   4.545   0.108   9.061 -0.7893  1.4513 -0.6639
  165SOPE  C21518562   4.375   0.232   9.039 -0.4790  0.3827 -0.2658
  165SOPE  H15R18563   4.446   0.300   8.988  0.1442  0.0574  0.1465
  165SOPE  H15S18564   4.304   0.281   9.109  1.1759 -0.2447  1.9751
  165SOPE  C21618565   4.289   0.163   8.935 -0.2134 -0.6767  0.3945
  165SOPE  H16R18566   4.214   0.089   8.971 -0.1648 -0.1282  1.6584
  165SOPE  H16S18567   4.359   0.104   8.872  1.7738  1.2294  0.7271
  165SOPE  C21718568   4.211   0.265   8.845  0.3043  0.0221 -0.3660
  165SOPE  H17R18569   4.161   0.320   8.928  0.3852 -0.6357  0.1235
  165SOPE  H17S18570   4.137   0.205   8.789  0.1563 -0.6348  0.5076
  165SOPE  C21818571   4.296   0.353   8.747  0.1683  1.0643 -0.3761
  165SOPE  H18R18572   4.362   0.421   8.805 -0.8225  2.1278 -0.4426
  165SOPE  H18S18573   4.233   0.411   8.675 -0.7576 -0.1715 -0.5935
  165SOPE  H18T18574   4.358   0.287   8.684 -0.5661 -0.4498  0.4336
  165SOPE   C3318575   4.719   0.898   9.924 -0.0119  0.3020  0.2436
  165SOPE   H3X18576   4.824   0.932   9.918  0.8215 -2.3140 -2.7334
  165SOPE   H3Y18577   4.650   0.964   9.981 -2.3107 -0.5872 -1.3406
  165SOPE   C3418578   4.670   0.893   9.778 -0.1048  0.0532 -0.5225
  165SOPE   H4X18579   4.679   0.993   9.731  1.1650  0.2449  0.0748
  165SOPE   H4Y18580   4.566   0.863   9.754 -0.2485 -0.6251  0.8676
  165SOPE   C3518581   4.749   0.796   9.681 -0.0625  0.2491  0.2878
  165SOPE   H5X18582   4.728   0.693   9.717 -0.5414 -0.3451 -1.6195
  165SOPE   H5Y18583   4.855   0.827   9.691  0.6735 -1.0793 -2.4168
  165SOPE   C3618584   4.719   0.790   9.533 -0.1641 -0.2042 -0.1475
  165SOPE   H6X18585   4.798   0.728   9.487 -0.8415 -1.8249  0.8027
  165SOPE   H6Y18586   4.716   0.894   9.492 -2.0621  0.5246  1.6508
  165SOPE   C3718587   4.580   0.725   9.511  0.4155  0.3930 -0.1854
  165SOPE   H7X18588   4.497   0.786   9.552 -1.6949 -1.4233 -1.5802
  165SOPE   H7Y18589   4.578   0.630   9.567  1.5952  0.3906 -0.1133
  165SOPE   C3818590   4.547   0.710   9.364 -0.0367  0.8175 -0.1000
  165SOPE   H8X18591   4.605   0.632   9.312  1.1347  1.0812  0.7882
  165SOPE   H8Y18592   4.586   0.804   9.319 -0.3736  0.9643 -0.0921
  165SOPE   C3918593   4.396   0.696   9.347 -0.8303 -0.1571 -0.4667
  165SOPE   H9X18594   4.347   0.784   9.395 -0.7108 -0.6926  0.6772
  165SOPE   H9Y18595   4.364   0.610   9.409  0.5815 -2.0795 -2.2553
  165SOPE  C31018596   4.346   0.655   9.210 -0.4321  0.7884 -0.4007
  165SOPE  H10X18597   4.235   0.662   9.213 -0.5891 -1.2197  0.4805
  165SOPE  H10Y18598   4.353   0.545   9.193 -0.3401  0.8872 -0.9963
  165SOPE  C31118599   4.407   0.735   9.093 -0.3947  0.5958  0.4516
  165SOPE  H11X18600   4.514   0.710   9.079 -0.6506  0.2533 -1.0317
  165SOPE  H11Y18601   4.400   0.844   9.112 -0.2986  0.9650 -1.4240
  165SOPE  C31218602   4.329   0.717   8.961  0.5985 -0.1203  0.0122
  165SOPE  H12X18603   4.228   0.747   8.995  0.9104 -2.3030  3.3491
  165SOPE  H12Y18604   4.332   0.613   8.923  0.0390  0.1669 -0.8313
  165SOPE  C31318605   4.369   0.818   8.854 -1.2049 -0.5349 -0.8724
  165SOPE  H13X18606   4.329   0.920   8.872 -3.0208 -1.1208 -1.3326
  165SOPE  H13Y18607   4.315   0.792   8.760 -0.3343  1.1887 -1.8837
  165SOPE  C31418608   4.526   0.827   8.826 -0.3410 -0.4583  0.8142
  165SOPE  H14X18609   4.581   0.856   8.918 -0.8393 -0.9959  1.2884
  165SOPE  H14Y18610   4.532   0.911   8.754  0.2132  0.3699  1.8083
  165SOPE  C31518611   4.592   0.702   8.765  0.5581 -0.0916  0.2902
  165SOPE  H15X18612   4.576   0.607   8.820  1.4294 -0.2794  0.2361
  165SOPE  H15Y18613   4.698   0.737   8.759  0.3105  0.5485 -0.5976
  165SOPE  C31618614   4.538   0.668   8.617  0.7457 -0.5824 -0.1778
  165SOPE  H16X18615   4.431   0.643   8.628  0.6593 -0.2445 -0.2388
  165SOPE  H16Y18616   4.569   0.569   8.578 -0.3649 -0.3730 -1.6543
  165SOPE  C31718617   4.545   0.788   8.523  0.7365  0.6055  0.8599
  165SOPE  H17X18618   4.650   0.823   8.526  1.3106 -0.9502 -0.1036
  165SOPE  H17Y18619   4.466   0.861   8.552 -1.4388 -0.5445 -1.7556
  165SOPE  C31818620   4.518   0.749   8.375 -0.5979  0.3901 -0.0593
  165SOPE  H18X18621   4.431   0.679   8.376  0.9380 -1.6206  1.4314
  165SOPE  H18Y18622   4.595   0.682   8.332 -2.0585 -0.0347 -2.1994
  165SOPE  H18Z18623   4.489   0.822   8.297 -0.5560 -0.9494 -1.3895
  166SOPE     N18624   0.823   5.822  10.515 -0.6512 -0.3715 -0.3451
  166SOPE   HN118625   0.771   5.912  10.524 -0.5542 -0.3452 -0.0364
  166SOPE   HN218626   0.905   5.838  10.454  0.0735 -0.8730  0.4855
  166SOPE   HN318627   0.761   5.742  10.490  2.6884 -3.1452 -0.4548
  166SOPE   C1218628   0.877   5.776  10.653 -0.2150 -0.1258  1.2303
  166SOPE  H12A18629   0.933   5.682  10.637  0.0760  0.5175 -2.5647
  166SOPE  H12B18630   0.786   5.765  10.715 -0.3822  1.7834  1.3865
  166SOPE   C1118631   0.971   5.880  10.717 -0.1453  0.8199  0.0828
  166SOPE  H11A18632   1.074   5.870  10.676 -0.9255 -2.0075 -1.4388
  166SOPE  H11B18633   0.965   5.847  10.823 -2.2104 -2.3484 -0.8537
  166SOPE     P18634   1.012   6.128  10.771 -0.1972  0.3903 -0.0264
  166SOPE   O1318635   1.105   6.073  10.881  0.3394  0.1603  0.0058
  166SOPE   O1418636   0.921   6.243  10.804  0.2146 -0.0353 -0.2782
  166SOPE   O1218637   0.926   6.014  10.706 -0.1131 -0.2685  0.5166
  166SOPE   O1118638   1.100   6.179  10.648  0.5034  0.3670 -0.4639
  166SOPE    C118639   1.093   6.101  10.529  0.0594  0.2789  0.5197
  166SOPE    HA18640   0.991   6.072  10.494 -0.9073  1.9443  1.8175
  166SOPE    HB18641   1.145   6.004  10.542 -1.1515 -0.2801  1.3860
  166SOPE    C218642   1.160   6.176  10.407  0.5662 -0.1691 -0.4665
  166SOPE    HS18643   1.244   6.239  10.444  0.6085  0.0792 -0.9744
  166SOPE   O2118644   1.062   6.260  10.346  0.4826  0.4869  0.2236
  166SOPE   C2118645   1.050   6.381  10.402  0.0505  0.3611  0.1315
  166SOPE   O2218646   1.115   6.429  10.496 -0.0116  0.3442  0.1195
  166SOPE   C2218647   0.932   6.454  10.334 -0.0704 -0.2177  0.0087
  166SOPE   H2R18648   0.896   6.511  10.422  0.9254 -2.4463  1.9922
  166SOPE   H2S18649   0.851   6.382  10.309 -2.1406  2.2686 -0.8449
  166SOPE    C318650   1.207   6.085  10.297 -0.0294  0.0291 -0.7948
  166SOPE    HX18651   1.235   6.141  10.205 -2.7970  0.9663 -1.1432
  166SOPE    HY18652   1.128   6.012  10.270 -1.4842  0.3954  2.0383
  166SOPE   O3118653   1.328   6.012  10.343 -0.1783 -0.0655 -0.2358
  166SOPE   C3118654   1.346   5.885  10.297  0.2421  0.0889  1.1020
  166SOPE   O3218655   1.261   5.814  10.249  0.1445 -0.2292 -0.3307
  166SOPE   C3218656   1.486   5.843  10.306  0.6389 -0.0928 -0.1663
  166SOPE   H2X18657   1.491   5.774  10.393 -1.4488  0.5049  0.4900
  166SOPE   H2Y18658   1.555   5.929  10.313  0.3488  0.2890 -1.7310
  166SOPE   C2318659   0.976   6.535  10.212  0.6973  0.2606 -0.2654
  166SOPE   H3R18660   1.023   6.633  10.235  2.2538  0.1778 -2.7322
  166SOPE   H3S18661   0.880   6.556  10.161  2.0140  0.1142 -2.9450
  166SOPE   C2418662   1.059   6.450  10.111  0.1363  0.1016 -0.1725
  166SOPE   H4R18663   1.161   6.442  10.154  0.6894 -1.6876 -1.6962
  166SOPE   H4S18664   1.013   6.349  10.109 -1.0434  0.5969  0.6600
  166SOPE   C2518665   1.067   6.496   9.963 -0.5764 -0.3009  0.2481
  166SOPE   H5R18666   1.096   6.603   9.953 -0.6008  0.0487  3.0733
  166SOPE   H5S18667   1.140   6.422   9.925 -0.4258 -0.6370  1.1685
  166SOPE   C2618668   0.938   6.479   9.894 -0.3444  0.2588  0.0320
  166SOPE   H6R18669   0.891   6.385   9.929 -0.7143  0.2097 -0.5966
  166SOPE   H6S18670   0.873   6.565   9.922 -1.5232 -0.1095 -1.4985
  166SOPE   C2718671   0.951   6.473   9.734 -0.1612 -1.2196  0.1342
  166SOPE   H7R18672   0.994   6.569   9.700  0.4519 -1.6571 -0.3513
  166SOPE   H7S18673   1.007   6.379   9.714  0.9449 -1.0418  2.0950
  166SOPE   C2818674   0.822   6.460   9.653 -0.4500 -0.3018 -0.0995
  166SOPE   H8R18675   0.751   6.542   9.677 -0.1002  0.6719 -2.1714
  166SOPE   H8S18676   0.842   6.472   9.544  0.5993 -2.0554 -0.1305
  166SOPE   C2918677   0.738   6.339   9.691  1.1490 -0.2269  0.5170
  166SOPE   H9118678   0.708   6.314   9.794 -3.4480 -0.1121 -0.5805
  166SOPE  C21018679   0.697   6.251   9.594 -0.1566 -0.6498 -0.4877
  166SOPE  H10118680   0.647   6.156   9.618 -1.8961  0.6040  1.1395
  166SOPE  C21118681   0.723   6.256   9.452 -0.6270 -0.4873  0.4029
  166SOPE  H11R18682   0.680   6.346   9.403 -0.7965 -0.6159  0.3137
  166SOPE  H11S18683   0.668   6.176   9.397 -1.4161  1.4264 -1.7521
  166SOPE  C21218684   0.867   6.235   9.396 -0.1159 -0.4498 -0.3691
  166SOPE  H12R18685   0.892   6.127   9.388  0.9520 -0.1700 -1.0945
  166SOPE  H12S18686   0.939   6.273   9.472 -0.4079  1.3569 -0.9424
  166SOPE  C21318687   0.900   6.305   9.259 -0.3192  0.3396 -0.0179
  166SOPE  H13R18688   1.010   6.312   9.245 -0.3687  2.4452  0.2945
  166SOPE  H13S18689   0.846   6.402   9.261  0.3864  0.8417  4.0190
  166SOPE  C21418690   0.853   6.212   9.139 -0.0340 -0.8180 -0.6674
  166SOPE  H14R18691   0.746   6.196   9.166  0.1204 -0.9939 -0.1513
  166SOPE  H14S18692   0.913   6.120   9.156 -0.6836 -1.0985  0.1374
  166SOPE  C21518693   0.888   6.270   9.001 -0.3247 -0.4455 -0.6656
  166SOPE  H15R18694   0.852   6.196   8.926  0.6864  0.5537 -2.1859
  166SOPE  H15S18695   0.999   6.274   8.991  0.1991 -3.7565  1.8647
  166SOPE  C21618696   0.830   6.414   8.966  0.1612 -0.0205 -0.1400
  166SOPE  H16R18697   0.895   6.499   8.995 -1.9068  2.5881 -2.5602
  166SOPE  H16S18698   0.733   6.416   9.020  0.4285 -1.8434  0.4785
  166SOPE  C21718699   0.787   6.440   8.821  0.8230  0.1210  0.5088
  166SOPE  H17R18700   0.875   6.457   8.755  1.2331  1.8001  1.4283
  166SOPE  H17S18701   0.739   6.539   8.836 -1.5828 -1.2750  2.8593
  166SOPE  C21818702   0.683   6.337   8.782 -1.1326  0.3227 -0.1589
  166SOPE  H18R18703   0.720   6.235   8.757  3.0260  1.4041  0.8127
  166SOPE  H18S18704   0.650   6.376   8.683  1.8357  1.2132 -0.9262
  166SOPE  H18T18705   0.601   6.331   8.857 -1.6562  1.5787 -0.6059
  166SOPE   C3318706   1.544   5.760  10.183  0.4176 -1.0098 -0.5958
  166SOPE   H3X18707   1.477   5.673  10.168 -0.4825 -0.4355  0.0396
  166SOPE   H3Y18708   1.649   5.727  10.202  0.9770 -0.8919 -3.0775
  166SOPE   C3418709   1.537   5.839  10.047  0.2358 -0.0165 -0.4775
  166SOPE   H4X18710   1.623   5.909  10.061 -0.0124 -0.1066  1.8720
  166SOPE   H4Y18711   1.439   5.890  10.035 -0.2579 -1.0889 -1.1013
  166SOPE   C3518712   1.557   5.750   9.920 -0.2142 -0.0524 -0.1182
  166SOPE   H5X18713   1.469   5.683   9.910  1.1424 -1.6703 -2.2491
  166SOPE   H5Y18714   1.651   5.691   9.925 -0.9095 -1.0681  1.7356
  166SOPE   C3618715   1.578   5.824   9.783  0.2440  0.2743 -0.8179
  166SOPE   H6X18716   1.668   5.888   9.792  1.4230 -1.2366 -1.3847
  166SOPE   H6Y18717   1.487   5.888   9.782 -1.5860 -2.0400  1.3567
  166SOPE   C3718718   1.596   5.730   9.660  0.8191 -0.2445 -0.1948
  166SOPE   H7X18719   1.519   5.652   9.678  2.8358 -1.9423  1.6914
  166SOPE   H7Y18720   1.691   5.673   9.666  2.2332  2.1027  0.8635
  166SOPE   C3818721   1.575   5.798   9.525 -0.0988 -0.5125 -0.3736
  166SOPE   H8X18722   1.654   5.872   9.502 -0.3325 -0.9737 -2.9577
  166SOPE   H8Y18723   1.474   5.841   9.509  0.2961  0.2514 -0.8712
  166SOPE   C3918724   1.580   5.676   9.425  0.0066 -0.0724  0.5749
  166SOPE   H9X18725   1.475   5.640   9.418  0.3324 -1.1285  0.9454
  166SOPE   H9Y18726   1.642   5.594   9.467 -0.8187 -0.6924  0.6141
  166SOPE  C31018727   1.632   5.726   9.290  0.5180  0.9950 -0.0825
  166SOPE  H10X18728   1.743   5.727   9.287  0.5055  0.8333 -1.6647
  166SOPE  H10Y18729   1.593   5.829   9.273  0.0065  0.9761  0.9088
  166SOPE  C31118730   1.588   5.644   9.170 -0.4035 -0.6576  0.7604
  166SOPE  H11X18731   1.478   5.633   9.178 -0.3350 -0.0865  3.9629
  166SOPE  H11Y18732   1.637   5.544   9.178  0.3850 -0.5816 -2.0589
  166SOPE  C31218733   1.623   5.707   9.032 -0.5826 -0.4570 -1.6641
  166SOPE  H12X18734   1.699   5.787   9.044 -0.1145 -1.2090  1.0677
  166SOPE  H12Y18735   1.530   5.755   8.995 -1.0843 -0.8148 -0.8831
  166SOPE  C31318736   1.675   5.607   8.931 -0.0031 -0.4585  0.2217
  166SOPE  H13X18737   1.758   5.550   8.979 -0.0592  0.3543  1.3142
  166SOPE  H13Y18738   1.720   5.657   8.842  3.0911  0.0436  1.9236
  166SOPE  C31418739   1.574   5.503   8.893  0.3296  0.7668  0.2173
  166SOPE  H14X18740   1.487   5.547   8.839  0.6768  2.1830  0.7685
  166SOPE  H14Y18741   1.546   5.447   8.984 -0.8747 -0.6601 -0.9741
  166SOPE  C31518742   1.641   5.394   8.805  0.0512 -0.4793 -0.0080
  166SOPE  H15X18743   1.565   5.313   8.790 -1.1013  0.5478  0.1436
  166SOPE  H15Y18744   1.727   5.358   8.866  1.1223  0.6641 -0.8036
  166SOPE  C31618745   1.683   5.431   8.664  0.2388 -0.0303 -0.2457
  166SOPE  H16X18746   1.753   5.361   8.614  1.3293  1.6731 -1.2144
  166SOPE  H16Y18747   1.738   5.528   8.657 -1.4218  0.9854  0.2168
  166SOPE  C31718748   1.564   5.433   8.563 -0.0047  0.0112  0.3708
  166SOPE  H17X18749   1.480   5.497   8.596  1.2342  2.4600 -0.9526
  166SOPE  H17Y18750   1.533   5.326   8.563  0.5687 -0.1594 -0.1431
  166SOPE  C31818751   1.609   5.468   8.420 -0.2755 -0.0613 -0.1900
  166SOPE  H18X18752   1.702   5.412   8.398  0.7966  2.0726 -1.5043
  166SOPE  H18Y18753   1.636   5.576   8.422  0.5544 -0.2677  1.9189
  166SOPE  H18Z18754   1.528   5.454   8.345 -0.3459 -3.2396  0.3469
  167SOPE     N18755   1.391   0.085   6.126 -0.6395 -0.5544 -0.1232
  167SOPE   HN118756   1.415   0.073   6.227 -0.0754 -2.2520 -0.4314
  167SOPE   HN218757   1.377  -0.017   6.109 -0.2005 -0.9524  1.6806
  167SOPE   HN318758   1.475   0.125   6.081 -0.6577  0.2029  0.4929
  167SOPE   C1218759   1.270   0.169   6.108  0.1183  0.1819  0.5996
  167SOPE  H12A18760   1.182   0.126   6.161 -0.0015  0.6737  0.8083
  167SOPE  H12B18761   1.245   0.171   6.000 -1.3950 -0.0244  0.9160
  167SOPE   C1118762   1.293   0.317   6.145  0.2339  0.1899 -0.2056
  167SOPE  H11A18763   1.294   0.304   6.255  0.8030 -3.7899 -0.5196
  167SOPE  H11B18764   1.203   0.375   6.117  1.4879  0.8585 -3.2408
  167SOPE     P18765   1.501   0.467   6.159 -0.2304 -0.3001 -0.0094
  167SOPE   O1318766   1.429   0.573   6.234  0.2834  0.5586 -0.4717
  167SOPE   O1418767   1.614   0.502   6.069  0.2054  0.5664 -0.0060
  167SOPE   O1218768   1.411   0.374   6.077  0.2238  0.5662  0.3748
  167SOPE   O1118769   1.541   0.358   6.266 -0.1007  0.2404  0.0341
  167SOPE    C118770   1.673   0.291   6.270  0.1468 -0.3169  0.1992
  167SOPE    HA18771   1.726   0.285   6.173 -2.4274  0.8854 -1.4012
  167SOPE    HB18772   1.646   0.187   6.300 -1.7500 -0.5215 -1.8960
  167SOPE    C218773   1.759   0.357   6.381 -0.2624 -0.5898 -0.7627
  167SOPE    HS18774   1.854   0.301   6.389 -0.3496 -0.5068  1.3486
  167SOPE   O2118775   1.686   0.350   6.504 -0.0949  0.0456  0.3270
  167SOPE   C2118776   1.676   0.230   6.554  0.0332 -0.2076 -0.0678
  167SOPE   O2218777   1.743   0.138   6.513  0.3696  0.9738  0.4027
  167SOPE   C2218778   1.590   0.230   6.681 -0.3587 -0.2645  0.2682
  167SOPE   H2R18779   1.613   0.133   6.729 -1.8627 -0.0045  1.5853
  167SOPE   H2S18780   1.483   0.243   6.652  0.0874  2.7212 -0.2962
  167SOPE    C318781   1.794   0.503   6.353  0.3595  0.1877 -0.6564
  167SOPE    HX18782   1.701   0.558   6.327  0.1758  0.4180  0.4549
  167SOPE    HY18783   1.851   0.520   6.259  0.0801 -2.4678 -1.3950
  167SOPE   O3118784   1.873   0.557   6.462  0.1718 -0.1084  0.0025
  167SOPE   C3118785   1.802   0.617   6.557  0.4875 -0.0049 -0.5052
  167SOPE   O3218786   1.686   0.665   6.551  0.4326  0.8010  0.5157
  167SOPE   C3218787   1.887   0.601   6.685 -0.1442  0.3752  0.2309
  167SOPE   H2X18788   1.991   0.631   6.663  0.3103 -1.3853 -0.2028
  167SOPE   H2Y18789   1.878   0.492   6.706  1.7303 -0.1341 -1.2881
  167SOPE   C2318790   1.622   0.338   6.778  0.3803  0.8416  0.0910
  167SOPE   H3R18791   1.580   0.432   6.735  0.8065  0.3574 -1.4263
  167SOPE   H3S18792   1.730   0.365   6.787  0.6948  0.2836 -1.7036
  167SOPE   C2418793   1.558   0.313   6.918 -0.0044 -0.7332  0.0107
  167SOPE   H4R18794   1.453   0.276   6.907 -0.6683  0.9926  0.1444
  167SOPE   H4S18795   1.619   0.236   6.970 -0.2443 -0.2203  1.0740
  167SOPE   C2518796   1.570   0.448   7.004  0.4741  0.2249 -0.2484
  167SOPE   H5R18797   1.680   0.458   7.005  0.5969 -0.1923 -2.7372
  167SOPE   H5S18798   1.533   0.536   6.947 -0.1405 -0.2380 -0.5799
  167SOPE   C2618799   1.510   0.430   7.143  0.4094  0.1788  0.1796
  167SOPE   H6R18800   1.401   0.420   7.127  0.0651  2.0277  1.0743
  167SOPE   H6S18801   1.548   0.330   7.174 -1.4074 -0.3216  0.9145
  167SOPE   C2718802   1.543   0.543   7.241  0.1105 -0.2654  0.6964
  167SOPE   H7R18803   1.652   0.565   7.251 -0.4725  2.2463  2.5368
  167SOPE   H7S18804   1.507   0.640   7.202 -0.8184 -0.9427 -0.1747
  167SOPE   C2818805   1.497   0.503   7.379 -0.5339  0.3191  0.5235
  167SOPE   H8R18806   1.532   0.400   7.400 -2.4789 -0.5975 -0.4869
  167SOPE   H8S18807   1.533   0.568   7.461 -2.7566  1.1030  0.9314
  167SOPE   C2918808   1.345   0.507   7.375  0.1363 -0.3870  0.8545
  167SOPE   H9118809   1.314   0.600   7.325  0.5662 -0.1454  1.0313
  167SOPE  C21018810   1.258   0.423   7.423 -0.4509  0.7308 -0.6200
  167SOPE  H10118811   1.154   0.459   7.423 -0.7901  0.0252  2.1409
  167SOPE  C21118812   1.291   0.297   7.501 -0.0984  0.0314  0.2839
  167SOPE  H11R18813   1.363   0.231   7.447  0.6096  1.2879 -0.3428
  167SOPE  H11S18814   1.194   0.245   7.514 -0.7543  1.7100  2.8061
  167SOPE  C21218815   1.360   0.305   7.638  0.0008  0.0425  0.3592
  167SOPE  H12R18816   1.459   0.353   7.619 -1.0304  1.5302 -1.5832
  167SOPE  H12S18817   1.377   0.202   7.676  1.8858 -0.4559 -1.5913
  167SOPE  C21318818   1.266   0.383   7.739 -0.8704  1.1370  0.7536
  167SOPE  H13R18819   1.163   0.343   7.747 -1.3058  1.5209 -1.9457
  167SOPE  H13S18820   1.266   0.482   7.689  0.4340  0.7091 -0.1425
  167SOPE  C21418821   1.324   0.400   7.883  1.0422  0.3310  0.6735
  167SOPE  H14R18822   1.248   0.469   7.926  0.1616 -0.1664 -0.0416
  167SOPE  H14S18823   1.423   0.449   7.881 -0.1494  3.1083  2.8228
  167SOPE  C21518824   1.333   0.276   7.982  0.5625  0.2578 -0.0832
  167SOPE  H15R18825   1.422   0.215   7.954  0.9786  1.0033 -0.4155
  167SOPE  H15S18826   1.243   0.216   7.956  1.0548  0.3745 -2.2569
  167SOPE  C21618827   1.324   0.327   8.127  0.2274  0.3936 -0.0611
  167SOPE  H16R18828   1.263   0.256   8.186 -0.3889  1.2450  0.3461
  167SOPE  H16S18829   1.274   0.426   8.128  0.5097  0.5351  1.0724
  167SOPE  C21718830   1.461   0.352   8.187 -0.4477 -0.5040  0.0710
  167SOPE  H17R18831   1.522   0.258   8.187 -2.0313 -1.5752  0.5372
  167SOPE  H17S18832   1.449   0.371   8.296 -0.3349 -0.8464  0.1467
  167SOPE  C21818833   1.537   0.475   8.136 -0.5202  0.1550 -0.2319
  167SOPE  H18R18834   1.601   0.517   8.216  3.0321 -0.6920 -2.3860
  167SOPE  H18S18835   1.468   0.553   8.098 -0.4465  0.5414  0.4157
  167SOPE  H18T18836   1.602   0.440   8.053 -1.2416 -0.9577 -0.3509
  167SOPE   C3318837   1.851   0.682   6.803 -0.1872 -0.0362  0.1224
  167SOPE   H3X18838   1.744   0.658   6.819 -0.2851 -0.2412 -0.7624
  167SOPE   H3Y18839   1.864   0.790   6.783 -0.1614 -0.2201 -0.9422
  167SOPE   C3418840   1.929   0.652   6.933 -0.5159  0.2251 -0.2458
  167SOPE   H4X18841   2.039   0.659   6.920 -0.1569 -2.3679  0.7082
  167SOPE   H4Y18842   1.916   0.547   6.967  2.3137 -0.2431 -0.3530
  167SOPE   C3518843   1.899   0.738   7.060 -0.0386  0.6204  0.3940
  167SOPE   H5X18844   1.793   0.728   7.095  0.2589  1.3387  1.5638
  167SOPE   H5Y18845   1.891   0.846   7.037 -1.1238  0.4846  0.0735
  167SOPE   C3618846   1.988   0.714   7.183 -0.1190  0.2622  0.3590
  167SOPE   H6X18847   1.954   0.777   7.267  0.9497  0.8365  0.3801
  167SOPE   H6Y18848   2.092   0.741   7.155  0.2460 -0.4131  1.0286
  167SOPE   C3718849   1.995   0.564   7.221 -0.7909 -0.1099 -0.1908
  167SOPE   H7X18850   2.082   0.513   7.174  0.1389  0.5990  0.7203
  167SOPE   H7Y18851   1.902   0.503   7.220 -0.6178 -0.3980  0.5825
  167SOPE   C3818852   2.019   0.559   7.374  0.0707 -0.1291  0.3636
  167SOPE   H8X18853   2.087   0.635   7.418 -0.5568 -0.7276  2.4535
  167SOPE   H8Y18854   2.068   0.461   7.386  1.6483  0.2428 -2.3326
  167SOPE   C3918855   1.892   0.566   7.458 -0.0061 -0.1671  0.2979
  167SOPE   H9X18856   1.906   0.506   7.551  1.7883  0.2798  0.3679
  167SOPE   H9Y18857   1.812   0.511   7.405  0.1862 -1.3293  1.1594
  167SOPE  C31018858   1.851   0.710   7.501 -0.1173  0.1761 -0.3894
  167SOPE  H10X18859   1.791   0.748   7.415  0.1178  1.2419 -0.0969
  167SOPE  H10Y18860   1.941   0.773   7.515 -0.4098  0.6593 -0.6310
  167SOPE  C31118861   1.772   0.707   7.627  0.4764 -0.7205 -0.7929
  167SOPE  H11X18862   1.809   0.621   7.687  0.4636 -0.6315 -0.6584
  167SOPE  H11Y18863   1.665   0.683   7.611  0.2698 -1.8266  1.7041
  167SOPE  C31218864   1.784   0.841   7.701  0.0422 -0.1427 -0.8441
  167SOPE  H12X18865   1.752   0.925   7.636  0.0295  1.6536  1.3707
  167SOPE  H12Y18866   1.894   0.840   7.716  0.3784 -3.1799 -2.4834
  167SOPE  C31318867   1.714   0.842   7.837 -0.7449 -0.4596  0.1878
  167SOPE  H13X18868   1.606   0.859   7.822 -0.6169  1.3465  1.0515
  167SOPE  H13Y18869   1.744   0.938   7.885 -0.0427 -0.3856 -0.3791
  167SOPE  C31418870   1.756   0.732   7.934  0.2840  0.7454  0.4154
  167SOPE  H14X18871   1.730   0.630   7.898  2.0847 -0.4039  2.1318
  167SOPE  H14Y18872   1.698   0.742   8.028  1.5231  2.4870  1.0474
  167SOPE  C31518873   1.902   0.735   7.978 -0.3491 -0.0641  0.6674
  167SOPE  H15X18874   1.942   0.839   7.975  1.7154 -0.8246 -0.7760
  167SOPE  H15Y18875   1.952   0.675   7.899 -0.1402 -3.4769  3.1770
  167SOPE  C31618876   1.918   0.679   8.118  0.2426  0.0650  0.0129
  167SOPE  H16X18877   1.853   0.739   8.186 -0.2104 -0.1720 -0.2054
  167SOPE  H16Y18878   2.012   0.714   8.165 -0.0999  2.2211 -0.7573
  167SOPE  C31718879   1.908   0.535   8.145 -0.0013 -0.0027 -0.0490
  167SOPE  H17X18880   1.975   0.481   8.074  0.3191  1.4034 -0.8561
  167SOPE  H17Y18881   1.806   0.495   8.126  0.9050 -2.3317 -0.4313
  167SOPE  C31818882   1.958   0.502   8.282  1.1056  0.3463 -0.5937
  167SOPE  H18X18883   1.979   0.393   8.288  2.0464  0.4945 -1.0017
  167SOPE  H18Y18884   1.877   0.517   8.357  1.7768 -0.8297  0.4119
  167SOPE  H18Z18885   2.046   0.556   8.323 -1.1940  2.9507  1.2692
  168SOPE     N18886   0.483   5.057   6.270 -0.2929  0.3015  0.3765
  168SOPE   HN118887   0.543   5.093   6.193 -0.7527  1.0579  0.3503
  168SOPE   HN218888   0.383   5.075   6.247 -0.5525 -1.4417  0.0307
  168SOPE   HN318889   0.512   5.103   6.358  1.7497 -0.6176  0.2265
  168SOPE   C1218890   0.489   4.904   6.272 -0.4026 -0.5263  0.2885
  168SOPE  H12A18891   0.597   4.885   6.254 -0.6671  0.0546 -2.3852
  168SOPE  H12B18892   0.436   4.863   6.184 -1.0960  0.2798  0.3203
  168SOPE   C1118893   0.444   4.862   6.407 -0.0996  0.0888  0.0308
  168SOPE  H11A18894   0.458   4.753   6.418 -0.0023  0.1088  0.1087
  168SOPE  H11B18895   0.336   4.883   6.421 -0.3770 -0.6947 -0.8658
  168SOPE     P18896   0.650   4.867   6.566 -0.4782 -0.3780 -0.5632
  168SOPE   O1318897   0.697   4.961   6.669  0.1864  0.6167  0.3301
  168SOPE   O1418898   0.740   4.836   6.453  0.1084  0.7872  0.0459
  168SOPE   O1218899   0.521   4.936   6.503  0.3258 -0.3208  0.3551
  168SOPE   O1118900   0.602   4.735   6.630  0.6101  0.9343 -0.0586
  168SOPE    C118901   0.483   4.726   6.716  0.0036 -0.4033  0.1696
  168SOPE    HA18902   0.410   4.667   6.657  0.9542 -1.3447 -0.1070
  168SOPE    HB18903   0.439   4.825   6.741 -1.2519 -0.0506 -3.0791
  168SOPE    C218904   0.508   4.657   6.851  0.0515  0.2161  0.3086
  168SOPE    HS18905   0.403   4.638   6.882 -0.4365  2.0949 -0.0602
  168SOPE   O2118906   0.587   4.747   6.934  0.5573  0.2660 -0.9923
  168SOPE   C2118907   0.525   4.843   6.989 -0.2583 -0.5796 -0.3365
  168SOPE   O2218908   0.407   4.878   6.988  0.0080 -0.5301 -0.0519
  168SOPE   C2218909   0.628   4.939   7.052  0.5018  0.8755  0.0602
  168SOPE   H2R18910   0.711   4.960   6.982  2.1100  1.0664  1.9505
  168SOPE   H2S18911   0.676   4.881   7.134  1.8904  1.1749 -0.5178
  168SOPE    C318912   0.597   4.528   6.833  0.3097 -0.6134  0.3741
  168SOPE    HX18913   0.702   4.562   6.838 -0.0529  0.4870  0.9733
  168SOPE    HY18914   0.577   4.476   6.737  4.2220  0.5128 -1.2375
  168SOPE   O3118915   0.567   4.443   6.948 -0.0055 -0.6001 -0.2199
  168SOPE   C3118916   0.638   4.327   6.938 -0.2145  0.0386 -0.2233
  168SOPE   O3218917   0.708   4.293   6.838 -0.0722  0.5726 -0.0260
  168SOPE   C3218918   0.613   4.246   7.070 -0.1407  0.5088  0.0715
  168SOPE   H2X18919   0.505   4.217   7.073  0.2830 -1.2372 -0.4515
  168SOPE   H2Y18920   0.624   4.312   7.158 -0.4419  0.4057  0.1896
  168SOPE   C2318921   0.558   5.065   7.116 -0.1785 -0.3627  0.6699
  168SOPE   H3R18922   0.517   5.119   7.028  0.2880  1.4428  1.5146
  168SOPE   H3S18923   0.642   5.127   7.154  0.2544 -1.1419  1.0108
  168SOPE   C2418924   0.462   5.048   7.223 -0.3915 -0.5843 -0.2038
  168SOPE   H4R18925   0.441   5.151   7.258  0.0049 -1.4077  2.7620
  168SOPE   H4S18926   0.367   5.005   7.184 -0.2769 -0.2547 -0.8544
  168SOPE   C2518927   0.506   4.982   7.347 -0.0583 -0.3199  0.1626
  168SOPE   H5R18928   0.477   4.876   7.331  1.0573 -0.5306 -0.5621
  168SOPE   H5S18929   0.615   4.970   7.365 -0.0360 -0.4831 -0.0775
  168SOPE   C2618930   0.454   5.047   7.476 -0.1841  0.4416  0.1220
  168SOPE   H6R18931   0.481   4.969   7.551 -0.0281  1.2299  0.8989
  168SOPE   H6S18932   0.498   5.147   7.496  0.4853  0.3293 -0.7019
  168SOPE   C2718933   0.304   5.053   7.487 -0.6797  0.1990 -0.4876
  168SOPE   H7R18934   0.257   5.113   7.406  0.0165  0.5608 -0.6252
  168SOPE   H7S18935   0.274   4.947   7.472  2.6494 -1.0981  1.1163
  168SOPE   C2818936   0.247   5.094   7.626  0.2260 -0.2708  0.0381
  168SOPE   H8R18937   0.137   5.080   7.627  0.1529  0.2586  1.1818
  168SOPE   H8S18938   0.280   5.015   7.696 -0.5577 -0.7148 -0.0796
  168SOPE   C2918939   0.304   5.230   7.665 -0.1777 -0.0259 -0.1225
  168SOPE   H9118940   0.353   5.291   7.588 -0.1828  0.0944 -0.0296
  168SOPE  C21018941   0.297   5.276   7.793  0.1085  0.2417 -0.1465
  168SOPE  H10118942   0.352   5.364   7.830  2.2198 -1.0756  0.0498
  168SOPE  C21118943   0.227   5.206   7.907  1.3106 -0.2313 -0.6214
  168SOPE  H11R18944   0.160   5.124   7.871  0.5763 -0.3425  0.9285
  168SOPE  H11S18945   0.153   5.271   7.958  2.9564  0.7552  0.5998
  168SOPE  C21218946   0.323   5.175   8.018  0.2829  0.5379 -0.2567
  168SOPE  H12R18947   0.272   5.139   8.110  1.6240  1.1919  0.7731
  168SOPE  H12S18948   0.390   5.255   8.054  1.0915 -0.3635  0.2869
  168SOPE  C21318949   0.420   5.062   7.973 -0.0615  0.3402 -0.0003
  168SOPE  H13R18950   0.459   5.085   7.871 -1.2723  0.1690 -0.5192
  168SOPE  H13S18951   0.366   4.966   7.961  2.6298 -1.4757  1.4878
  168SOPE  C21418952   0.537   5.036   8.069 -0.0169 -0.1033 -0.6115
  168SOPE  H14R18953   0.599   5.127   8.081 -0.3086  0.1909 -1.2838
  168SOPE  H14S18954   0.597   4.951   8.029  1.2418  0.1518  0.6629
  168SOPE  C21518955   0.496   4.994   8.208 -1.0250  0.7309  0.2926
  168SOPE  H15R18956   0.432   5.072   8.253 -1.8729 -0.5454  1.3895
  168SOPE  H15S18957   0.581   4.990   8.279 -1.6087  0.9907  1.0273
  168SOPE  C21618958   0.413   4.860   8.201 -0.3431  0.7155 -0.4922
  168SOPE  H16R18959   0.483   4.781   8.166  0.3093  0.8624  0.4714
  168SOPE  H16S18960   0.323   4.868   8.135  0.4095 -1.2258 -1.8430
  168SOPE  C21718961   0.365   4.813   8.346 -0.0303 -0.3129  1.0752
  168SOPE  H17R18962   0.317   4.715   8.321 -1.9703  0.6874  0.6280
  168SOPE  H17S18963   0.280   4.880   8.374 -0.0358 -0.9781  2.7651
  168SOPE  C21818964   0.470   4.811   8.466  1.0504  0.6480  0.2141
  168SOPE  H18R18965   0.423   4.751   8.547  1.2255  1.4717  0.9431
  168SOPE  H18S18966   0.483   4.912   8.512  3.1735 -0.2974  1.8427
  168SOPE  H18T18967   0.570   4.769   8.443  0.4411 -1.0160  0.5031
  168SOPE   C3318968   0.693   4.112   7.076 -0.4587  0.3782  0.1591
  168SOPE   H3X18969   0.778   4.128   7.006 -0.3151  2.7795  0.7777
  168SOPE   H3Y18970   0.635   4.030   7.030 -2.5355  1.1208  1.3132
  168SOPE   C3418971   0.740   4.068   7.216  0.0070  1.0494 -0.2201
  168SOPE   H4X18972   0.764   4.151   7.285  3.6982  2.4223 -2.8410
  168SOPE   H4Y18973   0.822   3.997   7.190 -0.3968  0.3479  0.3948
  168SOPE   C3518974   0.632   3.968   7.282  0.6558 -0.2966  0.7356
  168SOPE   H5X18975   0.610   3.877   7.221 -2.1922  1.4888 -1.1994
  168SOPE   H5Y18976   0.536   4.024   7.273  1.7294  1.2634 -2.9283
  168SOPE   C3618977   0.675   3.935   7.418  0.5611 -0.1142 -0.5117
  168SOPE   H6X18978   0.700   4.031   7.469 -0.4727 -0.2944  0.3747
  168SOPE   H6Y18979   0.760   3.863   7.425  1.5247  0.5804 -3.5982
  168SOPE   C3718980   0.561   3.891   7.511  0.5057 -0.1596  0.5878
  168SOPE   H7X18981   0.557   3.782   7.488 -3.3925 -0.1641  0.6323
  168SOPE   H7Y18982   0.459   3.928   7.487  0.1861 -1.7585 -0.7202
  168SOPE   C3818983   0.597   3.925   7.656  0.2717  0.4949  0.8431
  168SOPE   H8X18984   0.618   4.034   7.655  0.1312  0.5260 -0.7001
  168SOPE   H8Y18985   0.699   3.880   7.662  1.7857  3.7094  0.9349
  168SOPE   C3918986   0.506   3.871   7.762 -0.0073 -0.1612 -0.1744
  168SOPE   H9X18987   0.570   3.828   7.842  0.5138 -0.9653 -1.0037
  168SOPE   H9Y18988   0.446   3.788   7.719 -2.0899  0.7945  0.7463
  168SOPE  C31018989   0.389   3.961   7.810 -0.2162 -0.0056 -0.2711
  168SOPE  H10X18990   0.325   3.998   7.727 -0.3929 -1.0223 -0.6058
  168SOPE  H10Y18991   0.432   4.049   7.862  0.1830 -0.6703  0.5480
  168SOPE  C31118992   0.301   3.887   7.911 -0.0111  0.0593  0.3162
  168SOPE  H11X18993   0.241   3.813   7.853 -0.6892  2.9386 -2.9743
  168SOPE  H11Y18994   0.224   3.952   7.958 -2.0910 -1.6319 -0.5621
  168SOPE  C31218995   0.364   3.809   8.029 -0.4748  0.7590  0.0513
  168SOPE  H12X18996   0.442   3.733   8.005 -0.6579 -0.1521  2.0587
  168SOPE  H12Y18997   0.295   3.738   8.081 -0.6267  0.5975 -0.3694
  168SOPE  C31318998   0.438   3.899   8.125 -0.0608 -0.5198 -0.6045
  168SOPE  H13X18999   0.493   3.981   8.074 -1.1782  1.0533  0.6561
  168SOPE  H13Y19000   0.511   3.839   8.185  0.1189  1.5044  1.2988
  168SOPE  C31419001   0.344   3.968   8.229 -0.2616 -0.2129  0.1018
  168SOPE  H14X19002   0.265   3.900   8.267 -2.0329  1.7503  0.1577
  168SOPE  H14Y19003   0.295   4.056   8.180 -3.1046 -1.6171  0.2159
  168SOPE  C31519004   0.422   4.014   8.346 -0.3485 -0.7959  0.0804
  168SOPE  H15X19005   0.466   3.926   8.396 -1.1621 -1.2879 -0.0512
  168SOPE  H15Y19006   0.346   4.061   8.413 -0.6360 -0.2135 -0.6329
  168SOPE  C31619007   0.540   4.117   8.325 -0.1809 -0.5650  0.5797
  168SOPE  H16X19008   0.487   4.207   8.287  2.1042  0.4621 -0.4056
  168SOPE  H16Y19009   0.616   4.078   8.254 -1.0313 -0.9654 -0.1251
  168SOPE  C31719010   0.625   4.148   8.447 -0.2503  0.0304 -0.8670
  168SOPE  H17X19011   0.561   4.184   8.530 -1.9806 -1.5354 -1.4654
  168SOPE  H17Y19012   0.695   4.230   8.417 -1.4768  0.9855 -1.2039
  168SOPE  C31819013   0.724   4.034   8.481 -1.0971  0.2611 -0.0220
  168SOPE  H18X19014   0.796   4.061   8.561 -0.4864  0.1339 -0.5210
  168SOPE  H18Y19015   0.789   4.012   8.393 -0.9208  2.2758 -0.4385
  168SOPE  H18Z19016   0.672   3.937   8.495 -2.3310  0.9083  0.0099
  169SOPE     N19017   5.735   5.338   5.945  0.5411 -0.0958  0.0562
  169SOPE   HN119018   5.700   5.435   5.962 -1.1836 -0.9993  2.1387
  169SOPE   HN219019   5.778   5.301   6.032  1.0101 -1.1820 -0.6233
  169SOPE   HN319020   5.793   5.335   5.859 -1.7558 -0.3168 -1.5875
  169SOPE   C1219021   5.616   5.253   5.914  0.0824 -1.2599 -0.3884
  169SOPE  H12A19022   5.659   5.152   5.905 -0.2385 -1.5118  0.7752
  169SOPE  H12B19023   5.578   5.277   5.812 -0.6246  0.6948  0.2803
  169SOPE   C1119024   5.514   5.248   6.027  0.4805 -0.4739 -0.3579
  169SOPE  H11A19025   5.416   5.209   5.993 -0.5508  1.9952 -0.4689
  169SOPE  H11B19026   5.478   5.346   6.067 -2.9651 -0.8436 -2.1694
  169SOPE     P19027   5.646   5.224   6.254  0.0701  0.3083 -0.0722
  169SOPE   O1319028   5.771   5.284   6.200  0.4246 -0.8277 -0.1809
  169SOPE   O1419029   5.668   5.123   6.362  0.0402  1.1778  0.7278
  169SOPE   O1219030   5.571   5.173   6.126 -0.1500  1.1711 -0.2486
  169SOPE   O1119031   5.546   5.333   6.299  0.0828  0.5984 -1.0003
  169SOPE    C119032   5.435   5.302   6.383 -0.5019 -0.5241 -0.1405
  169SOPE    HA19033   5.471   5.241   6.468  0.1457  1.0471  0.7606
  169SOPE    HB19034   5.354   5.253   6.325 -1.0647  1.5124 -1.1974
  169SOPE    C219035   5.371   5.424   6.443  0.2325 -0.3784  0.0845
  169SOPE    HS19036   5.349   5.495   6.361  0.8926 -1.3229 -0.9274
  169SOPE   O2119037   5.459   5.481   6.540 -0.4484 -0.4237 -0.2524
  169SOPE   C2119038   5.417   5.578   6.613 -0.3079 -0.0749 -0.2272
  169SOPE   O2219039   5.318   5.650   6.594  0.2178  0.3123  0.0083
  169SOPE   C2219040   5.503   5.577   6.741  0.8187 -0.0862 -0.7269
  169SOPE   H2R19041   5.610   5.562   6.717  1.3513 -0.9459  1.8656
  169SOPE   H2S19042   5.467   5.490   6.799  0.9610 -0.7816 -1.6493
  169SOPE    C319043   5.230   5.379   6.509  0.2022 -0.1968 -0.3438
  169SOPE    HX19044   5.172   5.326   6.431  1.1517 -1.7740 -0.0188
  169SOPE    HY19045   5.178   5.475   6.532 -4.4066 -2.5212  0.0053
  169SOPE   O3119046   5.245   5.305   6.632  0.3713  0.2341 -0.3467
  169SOPE   C3119047   5.144   5.298   6.712 -0.5206 -0.3573 -0.3629
  169SOPE   O3219048   5.032   5.343   6.686 -0.4570  0.4934  0.3100
  169SOPE   C3219049   5.189   5.244   6.850 -0.5122 -0.3142  0.2183
  169SOPE   H2X19050   5.297   5.268   6.852 -0.7458  0.7862  1.3770
  169SOPE   H2Y19051   5.162   5.136   6.849 -2.2126  0.0751 -0.6468
  169SOPE   C2319052   5.472   5.700   6.830  0.6036 -0.6896 -0.0468
  169SOPE   H3R19053   5.368   5.687   6.865 -0.0678  1.7907 -0.9445
  169SOPE   H3S19054   5.486   5.791   6.768  0.8880 -0.0720  0.9053
  169SOPE   C2419055   5.555   5.703   6.965  0.4367 -0.2952 -0.3969
  169SOPE   H4R19056   5.651   5.650   6.950 -0.2749 -1.5964 -0.4527
  169SOPE   H4S19057   5.555   5.812   6.989 -1.9414 -0.6090  1.4112
  169SOPE   C2519058   5.489   5.621   7.078 -0.2515 -0.2307  0.0215
  169SOPE   H5R19059   5.379   5.621   7.063  0.0743 -0.9047 -3.0279
  169SOPE   H5S19060   5.526   5.517   7.064  1.2210 -0.1028  2.4425
  169SOPE   C2619061   5.514   5.678   7.216  0.8633  0.1016 -0.2449
  169SOPE   H6R19062   5.621   5.664   7.242  0.8565  0.9427  0.2581
  169SOPE   H6S19063   5.502   5.788   7.216 -0.2884 -0.0082  0.3158
  169SOPE   C2719064   5.433   5.626   7.340  0.1012 -0.5845 -0.3870
  169SOPE   H7R19065   5.323   5.626   7.322  0.0697 -3.0258 -0.5437
  169SOPE   H7S19066   5.463   5.519   7.353 -2.4644 -1.4549 -0.9217
  169SOPE   C2819067   5.444   5.700   7.477  0.9162  0.3941  0.0981
  169SOPE   H8R19068   5.552   5.700   7.503  0.4984  1.4294  1.9547
  169SOPE   H8S19069   5.399   5.801   7.480  0.0180 -0.0212  1.5710
  169SOPE   C2919070   5.368   5.611   7.572  0.3865  0.3871  0.4497
  169SOPE   H9119071   5.291   5.551   7.521  0.4111 -1.6428  2.6206
  169SOPE  C21019072   5.383   5.593   7.705 -0.8844 -0.7490 -0.2644
  169SOPE  H10119073   5.304   5.545   7.764 -0.5424  0.3173  1.1259
  169SOPE  C21119074   5.484   5.668   7.782  0.7280  0.3338 -0.9457
  169SOPE  H11R19075   5.541   5.741   7.721  3.9473  1.4935  3.0541
  169SOPE  H11S19076   5.552   5.609   7.847  1.4444  0.9377 -1.1323
  169SOPE  C21219077   5.405   5.758   7.882 -0.4627 -0.1382 -1.0488
  169SOPE  H12R19078   5.317   5.813   7.843 -0.9402 -0.6033 -0.6383
  169SOPE  H12S19079   5.480   5.834   7.913 -1.2839 -0.2791  1.4600
  169SOPE  C21319080   5.373   5.683   8.016  0.2530  0.1274 -0.4018
  169SOPE  H13R19081   5.468   5.650   8.062  0.2754 -0.4667 -0.8676
  169SOPE  H13S19082   5.315   5.590   8.001  1.9597 -1.4070  1.8748
  169SOPE  C21419083   5.290   5.760   8.116  0.0162 -0.1927  0.4223
  169SOPE  H14R19084   5.204   5.804   8.061 -0.6343  0.6824  2.0734
  169SOPE  H14S19085   5.344   5.844   8.163 -1.3626  0.0365  1.6623
  169SOPE  C21519086   5.257   5.666   8.230  0.3243 -0.2234  0.1192
  169SOPE  H15R19087   5.341   5.619   8.286  0.6037 -0.3097 -0.3667
  169SOPE  H15S19088   5.192   5.584   8.193 -0.3451  0.4603 -0.2572
  169SOPE  C21619089   5.175   5.735   8.343  0.2284  0.1227  0.6325
  169SOPE  H16R19090   5.094   5.798   8.300  0.2669 -0.1051  0.2205
  169SOPE  H16S19091   5.236   5.810   8.397 -2.2136  0.9899  2.3602
  169SOPE  C21719092   5.117   5.647   8.445  0.1346  0.9924  0.1468
  169SOPE  H17R19093   5.097   5.700   8.541  0.8221 -0.0836  0.9046
  169SOPE  H17S19094   5.199   5.588   8.490  0.1655  0.7707 -0.1989
  169SOPE  C21819095   5.002   5.556   8.423 -0.2353  0.3829  0.5302
  169SOPE  H18R19096   5.011   5.484   8.507  1.1256 -0.0508  0.0485
  169SOPE  H18S19097   4.999   5.496   8.329  1.3535  1.0878 -0.0144
  169SOPE  H18T19098   4.909   5.614   8.436  0.7651  2.5683 -1.3219
  169SOPE   C3319099   5.117   5.316   6.972 -0.0980 -0.4843 -0.2307
  169SOPE   H3X19100   5.006   5.313   6.969 -0.1653 -2.3841  1.7448
  169SOPE   H3Y19101   5.141   5.424   6.986 -2.0028 -0.3646  3.2924
  169SOPE   C3419102   5.130   5.232   7.099 -0.6793  0.4114  0.4353
  169SOPE   H4X19103   5.237   5.228   7.129 -0.0320  1.0884 -1.6365
  169SOPE   H4Y19104   5.087   5.132   7.078 -0.3839  0.2787  0.4502
  169SOPE   C3519105   5.067   5.281   7.229  0.1338 -0.1088  0.5333
  169SOPE   H5X19106   4.959   5.265   7.208  0.5191  1.2589 -3.5093
  169SOPE   H5Y19107   5.075   5.392   7.227 -3.5233  0.2865 -0.7944
  169SOPE   C3619108   5.120   5.203   7.352 -0.3770  0.6108 -0.1099
  169SOPE   H6X19109   5.231   5.201   7.346 -0.4732  0.2084 -2.3707
  169SOPE   H6Y19110   5.072   5.103   7.354 -0.7145  0.7310 -1.5076
  169SOPE   C3719111   5.091   5.272   7.482  0.5530  0.0670  0.0868
  169SOPE   H7X19112   4.986   5.306   7.491  1.1068  1.8758  0.0059
  169SOPE   H7Y19113   5.150   5.365   7.488 -1.4371  1.2992  2.1367
  169SOPE   C3819114   5.110   5.184   7.601  0.4855 -0.3248 -0.9152
  169SOPE   H8X19115   5.044   5.096   7.590  0.2118 -0.5324  1.6757
  169SOPE   H8Y19116   5.208   5.132   7.595  1.4575  0.9276  2.1752
  169SOPE   C3919117   5.106   5.267   7.731  0.0645  0.8449 -0.4301
  169SOPE   H9X19118   5.001   5.295   7.754 -0.1279 -0.7020  0.7717
  169SOPE   H9Y19119   5.165   5.361   7.727 -1.7170  2.0662  0.4073
  169SOPE  C31019120   5.157   5.189   7.857  0.2067  0.7396  0.6199
  169SOPE  H10X19121   5.252   5.145   7.819 -0.5831 -0.7438  0.2719
  169SOPE  H10Y19122   5.093   5.100   7.874 -0.4301  1.4900  2.2931
  169SOPE  C31119123   5.184   5.274   7.974  0.3056  0.0504 -0.6612
  169SOPE  H11X19124   5.090   5.324   8.007  1.0928  1.0387  0.1943
  169SOPE  H11Y19125   5.244   5.366   7.954 -1.7248  1.8983  1.1760
  169SOPE  C31219126   5.260   5.207   8.089  0.1805  0.2137  0.0462
  169SOPE  H12X19127   5.358   5.171   8.051 -0.0872  0.7631 -1.2025
  169SOPE  H12Y19128   5.206   5.118   8.128  0.1106  0.5980  0.8361
  169SOPE  C31319129   5.271   5.301   8.195  0.9080 -0.2603  0.8447
  169SOPE  H13X19130   5.171   5.343   8.218 -0.2741 -2.0324 -0.7250
  169SOPE  H13Y19131   5.323   5.388   8.149 -1.0938  1.1735  1.1197
  169SOPE  C31419132   5.327   5.247   8.322 -0.2322 -0.8273 -0.3601
  169SOPE  H14X19133   5.433   5.224   8.299  0.2914  1.8991 -1.0804
  169SOPE  H14Y19134   5.290   5.146   8.349 -0.2825 -0.5623  0.6042
  169SOPE  C31519135   5.326   5.345   8.442 -0.3975  0.1378  0.1606
  169SOPE  H15X19136   5.224   5.354   8.486 -1.3206 -2.8513 -1.0609
  169SOPE  H15Y19137   5.360   5.438   8.392 -2.2402  1.5352  1.3629
  169SOPE  C31619138   5.426   5.304   8.552  0.1821  0.4851 -0.0034
  169SOPE  H16X19139   5.390   5.210   8.599 -1.5987  0.9678 -0.3284
  169SOPE  H16Y19140   5.407   5.387   8.623 -0.3102  0.5455 -0.2065
  169SOPE  C31719141   5.576   5.305   8.525  0.3380  0.1476 -0.4970
  169SOPE  H17X19142   5.634   5.364   8.599  0.9144  0.3016 -1.0642
  169SOPE  H17Y19143   5.583   5.357   8.427  0.4454  1.7973  0.3386
  169SOPE  C31819144   5.633   5.167   8.506  0.0301  0.1525  0.2082
  169SOPE  H18X19145   5.743   5.173   8.491 -0.1940  1.6775 -1.1418
  169SOPE  H18Y19146   5.594   5.114   8.417 -1.0375  1.8092 -0.3556
  169SOPE  H18Z19147   5.612   5.111   8.600 -1.4543  0.3736  0.0340
  170SOPE     N19148   5.088   3.825   6.663 -0.3522  0.5993  0.5048
  170SOPE   HN119149   5.058   3.919   6.631  1.9782  0.4691 -2.6206
  170SOPE   HN219150   5.176   3.832   6.718  0.7186  0.3881 -1.1126
  170SOPE   HN319151   5.123   3.773   6.580 -0.6105  0.3638  0.5447
  170SOPE   C1219152   4.977   3.738   6.716 -0.6340 -0.3654  0.7108
  170SOPE  H12A19153   4.917   3.796   6.790 -0.0613  2.5963 -0.9855
  170SOPE  H12B19154   5.018   3.660   6.784  1.7196 -1.5782 -1.9185
  170SOPE   C1119155   4.895   3.662   6.605 -0.4086  0.4633  0.1186
  170SOPE  H11A19156   4.837   3.592   6.669  0.5076 -0.0178  0.4266
  170SOPE  H11B19157   4.956   3.598   6.538 -0.1646  0.0824  0.7028
  170SOPE     P19158   4.658   3.761   6.566 -0.1962  0.0526  0.5435
  170SOPE   O1319159   4.600   3.624   6.558 -0.4029 -0.2080  0.3692
  170SOPE   O1419160   4.605   3.863   6.477 -0.7129 -0.1067 -0.3130
  170SOPE   O1219161   4.813   3.756   6.531 -0.1235  0.0281 -0.1362
  170SOPE   O1119162   4.654   3.826   6.704 -0.4179  0.4207 -0.7464
  170SOPE    C119163   4.617   3.960   6.734  0.0297 -0.2389  0.0080
  170SOPE    HA19164   4.507   3.968   6.744  0.2666  1.9174  1.6873
  170SOPE    HB19165   4.632   4.032   6.651 -1.0633  2.6469  2.1464
  170SOPE    C219166   4.694   4.001   6.867  0.8956  0.5340 -0.2277
  170SOPE    HS19167   4.800   3.975   6.848  0.8524 -0.0362  0.3187
  170SOPE   O2119168   4.635   3.925   6.972 -0.7615  0.1955 -0.1308
  170SOPE   C2119169   4.724   3.897   7.073  0.3056 -0.4243  0.5350
  170SOPE   O2219170   4.843   3.934   7.077  0.6229  0.1175  0.2471
  170SOPE   C2219171   4.657   3.825   7.188 -0.4013  0.1708 -0.1205
  170SOPE   H2R19172   4.668   3.715   7.180 -3.6480 -0.3755  1.1781
  170SOPE   H2S19173   4.549   3.841   7.167 -0.6381 -1.8928 -0.7423
  170SOPE    C319174   4.683   4.149   6.898  0.9063  0.0496 -0.4980
  170SOPE    HX19175   4.596   4.173   6.962  1.8442  2.3318  0.0311
  170SOPE    HY19176   4.679   4.217   6.810  1.0667  0.4286 -0.2199
  170SOPE   O3119177   4.800   4.197   6.963  0.1670  0.2083 -0.4085
  170SOPE   C3119178   4.794   4.207   7.094 -0.5867  0.1277 -0.0872
  170SOPE   O3219179   4.696   4.190   7.164  0.1864 -0.6931  0.1064
  170SOPE   C3219180   4.931   4.248   7.149  0.3336 -0.9524  0.0341
  170SOPE   H2X19181   4.922   4.358   7.152  0.4654 -0.9112 -0.7641
  170SOPE   H2Y19182   5.008   4.240   7.069 -1.1128  0.2823 -1.5615
  170SOPE   C2319183   4.716   3.869   7.329  0.3719  0.0367 -0.1584
  170SOPE   H3R19184   4.687   3.974   7.352 -0.4631 -0.6979  2.5538
  170SOPE   H3S19185   4.827   3.864   7.321  0.4614 -0.4656  1.0856
  170SOPE   C2419186   4.677   3.771   7.440  0.1163 -0.3565 -0.3138
  170SOPE   H4R19187   4.566   3.780   7.436  0.2929  2.4651 -1.2152
  170SOPE   H4S19188   4.704   3.665   7.426 -0.3054 -0.7389  1.4943
  170SOPE   C2519189   4.718   3.821   7.582  0.2672 -0.4130 -0.4543
  170SOPE   H5R19190   4.712   3.733   7.649 -1.4052 -1.8520 -2.3581
  170SOPE   H5S19191   4.827   3.840   7.575  0.7319 -3.1581 -2.4208
  170SOPE   C2619192   4.628   3.930   7.631 -0.5085 -0.5682 -0.0651
  170SOPE   H6R19193   4.657   4.022   7.577 -1.1620 -0.4353 -0.1974
  170SOPE   H6S19194   4.525   3.905   7.599 -0.5324 -0.0482 -0.4071
  170SOPE   C2719195   4.650   3.954   7.783 -0.1810  0.0336 -0.1824
  170SOPE   H7R19196   4.758   3.977   7.800 -0.1955 -0.5065  0.7513
  170SOPE   H7S19197   4.593   4.046   7.805  1.7256  1.4000 -0.7609
  170SOPE   C2819198   4.596   3.839   7.871  0.2456 -0.4501  0.3431
  170SOPE   H8R19199   4.640   3.739   7.854  0.7042 -0.2490  0.3216
  170SOPE   H8S19200   4.629   3.863   7.975 -0.0924 -1.8848  0.7967
  170SOPE   C2919201   4.444   3.837   7.856  0.1199  0.1150  0.5219
  170SOPE   H9119202   4.399   3.937   7.851 -0.2666 -0.0810 -0.0159
  170SOPE  C21019203   4.370   3.736   7.852  1.1420  0.2066  0.6279
  170SOPE  H10119204   4.264   3.765   7.841  1.3040  1.3778  1.8610
  170SOPE  C21119205   4.397   3.589   7.852 -0.4516  0.2372 -0.1210
  170SOPE  H11R19206   4.503   3.561   7.867 -0.4237 -0.0204 -0.7600
  170SOPE  H11S19207   4.367   3.555   7.750 -1.9854  3.1882 -0.7850
  170SOPE  C21219208   4.317   3.529   7.969 -0.4715 -0.1488 -0.2396
  170SOPE  H12R19209   4.334   3.580   8.066  2.6231  1.5997 -1.5358
  170SOPE  H12S19210   4.368   3.432   7.988  0.4832  0.5301  0.8186
  170SOPE  C21319211   4.174   3.499   7.931 -0.0998 -0.1093 -0.6841
  170SOPE  H13R19212   4.157   3.429   7.847 -0.9942 -1.2006  0.3627
  170SOPE  H13S19213   4.122   3.593   7.907 -2.1845 -0.9256  0.4042
  170SOPE  C21419214   4.109   3.427   8.046 -0.0382  0.2449 -0.5720
  170SOPE  H14R19215   4.100   3.499   8.130 -0.6283  0.4902 -0.8394
  170SOPE  H14S19216   4.172   3.344   8.083  0.0870  1.6297  2.6326
  170SOPE  C21519217   3.965   3.380   8.020  0.3359 -0.1358  0.1355
  170SOPE  H15R19218   3.965   3.323   7.925  1.2445  0.0422  0.0230
  170SOPE  H15S19219   3.900   3.470   8.007  0.1415 -0.4249 -1.0405
  170SOPE  C21619220   3.904   3.303   8.134  0.2285 -0.1215  0.1319
  170SOPE  H16R19221   3.912   3.360   8.229 -0.3712 -2.5284  1.7419
  170SOPE  H16S19222   3.950   3.206   8.161 -0.4565 -0.8789 -1.3038
  170SOPE  C21719223   3.760   3.279   8.109 -0.0342 -0.0817  0.0538
  170SOPE  H17R19224   3.746   3.245   8.004  0.8692 -2.6734  0.6806
  170SOPE  H17S19225   3.714   3.376   8.135  1.5123  0.2900  1.6634
  170SOPE  C21819226   3.706   3.185   8.216 -0.5228  0.2200  0.4150
  170SOPE  H18R19227   3.595   3.180   8.225 -0.6612  1.5027 -0.2082
  170SOPE  H18S19228   3.741   3.219   8.315  1.8446 -2.1701  0.5010
  170SOPE  H18T19229   3.736   3.078   8.214 -1.3727 -0.0297 -0.9561
  170SOPE   C3319230   4.962   4.173   7.284 -0.5905 -0.4563  0.6949
  170SOPE   H3X19231   4.926   4.068   7.287  0.5440 -0.8494  1.5104
  170SOPE   H3Y19232   4.924   4.244   7.360  0.3470 -0.8102  1.5208
  170SOPE   C3419233   5.108   4.163   7.310 -0.8458 -0.2978  0.9037
  170SOPE   H4X19234   5.153   4.264   7.320  1.3496 -1.3744  2.7318
  170SOPE   H4Y19235   5.164   4.112   7.228 -3.1578 -0.6800 -0.5316
  170SOPE   C3519236   5.135   4.096   7.445  0.1829  0.6920 -0.2177
  170SOPE   H5X19237   5.240   4.060   7.451  0.7723  2.5639  1.8329
  170SOPE   H5Y19238   5.076   4.002   7.451  0.6358  0.4929  2.2710
  170SOPE   C3619239   5.113   4.196   7.559  0.0824  0.1425 -0.1635
  170SOPE   H6X19240   5.007   4.228   7.554 -0.1608 -0.7925 -1.3382
  170SOPE   H6Y19241   5.173   4.289   7.548  2.3715 -1.2681 -0.3968
  170SOPE   C3719242   5.155   4.139   7.696 -0.1127  0.5988 -0.3734
  170SOPE   H7X19243   5.109   4.205   7.773 -1.3827 -0.3349 -0.3099
  170SOPE   H7Y19244   5.264   4.135   7.718 -0.2056 -2.0798 -0.0483
  170SOPE   C3819245   5.107   3.994   7.724  0.2264  0.0701  0.3761
  170SOPE   H8X19246   5.194   3.927   7.711  0.5982  0.6344 -0.0371
  170SOPE   H8Y19247   5.025   3.965   7.655  0.1228  1.5336 -0.1454
  170SOPE   C3919248   5.042   3.973   7.863 -0.2829  0.2797 -0.0344
  170SOPE   H9X19249   4.953   4.039   7.873 -2.3534 -2.3232 -0.2811
  170SOPE   H9Y19250   5.120   3.995   7.939  1.0104 -1.1403 -0.9117
  170SOPE  C31019251   5.000   3.831   7.891  0.0160  0.7506 -0.0198
  170SOPE  H10X19252   5.081   3.758   7.870 -1.3243 -0.6932 -0.3039
  170SOPE  H10Y19253   4.903   3.822   7.839 -1.3753  0.1528  2.5212
  170SOPE  C31119254   4.962   3.807   8.041 -0.2216  0.1270  0.1304
  170SOPE  H11X19255   4.868   3.865   8.052 -0.6633 -0.5677  0.0391
  170SOPE  H11Y19256   5.044   3.856   8.098 -2.0965 -0.2942  3.4752
  170SOPE  C31219257   4.952   3.656   8.075 -0.4011 -0.3260  0.4104
  170SOPE  H12X19258   4.973   3.636   8.182  2.8544  1.2423  0.2153
  170SOPE  H12Y19259   5.030   3.593   8.026  0.4977  0.8794  0.2461
  170SOPE  C31319260   4.805   3.593   8.045 -0.1860  0.0506  0.1676
  170SOPE  H13X19261   4.798   3.575   7.935  2.8732 -0.0548 -0.1079
  170SOPE  H13Y19262   4.729   3.670   8.070 -0.3756  0.9336 -2.7352
  170SOPE  C31419263   4.782   3.458   8.120 -0.1429 -0.2949  0.3060
  170SOPE  H14X19264   4.802   3.481   8.227  0.7643 -1.1147  0.3281
  170SOPE  H14Y19265   4.841   3.371   8.084 -1.6780 -0.7651 -1.2215
  170SOPE  C31519266   4.638   3.396   8.111  0.4620  0.3126  0.0682
  170SOPE  H15X19267   4.617   3.394   8.002 -0.2739  2.9350  0.1094
  170SOPE  H15Y19268   4.576   3.470   8.166  0.0624 -0.5296  0.7705
  170SOPE  C31619269   4.618   3.254   8.170  0.1542 -1.1702 -0.3328
  170SOPE  H16X19270   4.681   3.194   8.102  0.2801 -0.1130 -1.1741
  170SOPE  H16Y19271   4.511   3.234   8.152 -0.3628  1.8109 -1.2325
  170SOPE  C31719272   4.649   3.254   8.320 -0.1621 -0.1252  0.5151
  170SOPE  H17X19273   4.571   3.314   8.371  0.2565 -0.0911  1.1252
  170SOPE  H17Y19274   4.746   3.298   8.350  0.8519 -1.3652 -0.7793
  170SOPE  C31819275   4.634   3.112   8.367  0.6433 -0.3833 -0.4840
  170SOPE  H18X19276   4.537   3.077   8.325  0.4237  1.4357 -1.6053
  170SOPE  H18Y19277   4.648   3.102   8.477  0.3323  0.9744 -0.2944
  170SOPE  H18Z19278   4.716   3.046   8.331  0.8647 -0.4452  0.1263
  171SOPE     N19279   6.784   0.263   6.307 -0.1924  0.1374 -0.1503
  171SOPE   HN119280   6.826   0.327   6.377 -0.7412  1.8271 -1.2813
  171SOPE   HN219281   6.746   0.182   6.359 -1.0267  0.2028 -0.6337
  171SOPE   HN319282   6.857   0.218   6.247  0.3128  1.4882 -0.5920
  171SOPE   C1219283   6.681   0.340   6.224  0.2909 -1.1209 -0.4700
  171SOPE  H12A19284   6.620   0.265   6.171 -0.6111 -1.0682  0.4678
  171SOPE  H12B19285   6.736   0.409   6.156 -1.6567  0.5457 -0.4472
  171SOPE   C1119286   6.591   0.418   6.309  0.3632  0.2899 -0.2130
  171SOPE  H11A19287   6.555   0.498   6.240  0.5467  0.6237  0.0762
  171SOPE  H11B19288   6.634   0.475   6.394 -0.9370  0.7754  0.1434
  171SOPE     P19289   6.390   0.381   6.462  0.6330  0.4465 -0.1914
  171SOPE   O1319290   6.319   0.499   6.406  0.5090 -0.0144 -0.1736
  171SOPE   O1419291   6.478   0.393   6.577 -0.2409 -0.1654  0.1036
  171SOPE   O1219292   6.482   0.330   6.348 -0.0675 -0.3008 -0.3294
  171SOPE   O1119293   6.291   0.257   6.483  0.2375 -0.0840 -0.1250
  171SOPE    C119294   6.295   0.165   6.587  1.0013  0.3502 -0.0394
  171SOPE    HA19295   6.393   0.111   6.590  0.8938  0.0507 -1.4414
  171SOPE    HB19296   6.221   0.086   6.562 -0.3994  2.4123 -2.8592
  171SOPE    C219297   6.262   0.215   6.730  0.1994  0.6536  0.6319
  171SOPE    HS19298   6.319   0.308   6.752 -1.5844  2.6930 -2.4844
  171SOPE   O2119299   6.277   0.108   6.824 -0.6976 -0.5719 -0.1120
  171SOPE   C2119300   6.405   0.098   6.861 -0.8303 -0.9332  1.4871
  171SOPE   O2219301   6.501   0.144   6.796  0.2719 -0.2195 -0.0745
  171SOPE   C2219302   6.411   0.032   6.995 -0.4288 -0.8254  0.5796
  171SOPE   H2R19303   6.492  -0.042   6.979  1.9563  1.5606  0.8588
  171SOPE   H2S19304   6.311  -0.013   7.017 -0.7004 -1.0375 -1.0159
  171SOPE    C319305   6.117   0.245   6.757  0.1927  0.7756 -0.9281
  171SOPE    HX19306   6.059   0.152   6.734  0.0122  0.9372 -1.1352
  171SOPE    HY19307   6.077   0.319   6.684 -0.2579 -1.3664 -3.0262
  171SOPE   O3119308   6.086   0.291   6.893  0.1805  0.0999  0.1291
  171SOPE   C3119309   5.988   0.230   6.965 -0.5254  0.8921 -0.0121
  171SOPE   O3219310   5.916   0.139   6.923 -0.1058  0.9808  0.0899
  171SOPE   C3219311   5.984   0.284   7.101  0.0477  1.0358 -0.7818
  171SOPE   H2X19312   6.067   0.247   7.165 -1.2974 -1.1386 -0.1858
  171SOPE   H2Y19313   5.886   0.256   7.144  1.2413 -1.5953  0.4272
  171SOPE   C2319314   6.430   0.137   7.108  0.4659  0.4875 -0.6879
  171SOPE   H3R19315   6.358   0.222   7.108 -0.7224 -0.4834 -1.3083
  171SOPE   H3S19316   6.533   0.177   7.107  0.4006  0.6497 -1.0441
  171SOPE   C2419317   6.400   0.081   7.244  0.5012  0.4439  0.5811
  171SOPE   H4R19318   6.438  -0.024   7.242 -0.6199  0.0166  0.7411
  171SOPE   H4S19319   6.457   0.140   7.318 -0.1090  2.2782 -0.3472
  171SOPE   C2519320   6.254   0.083   7.288  0.0801  0.7754 -0.3982
  171SOPE   H5R19321   6.212   0.185   7.277 -0.7582  0.4160 -0.6402
  171SOPE   H5S19322   6.190   0.031   7.213  1.5002 -1.5266 -0.1440
  171SOPE   C2619323   6.225   0.029   7.422  0.5139 -0.2681 -0.1551
  171SOPE   H6R19324   6.118   0.050   7.438 -0.1688 -1.9138 -2.0390
  171SOPE   H6S19325   6.228  -0.082   7.413  2.4847 -0.5336  2.5616
  171SOPE   C2719326   6.326   0.069   7.529  0.0266  0.7270 -0.3712
  171SOPE   H7R19327   6.422   0.026   7.494 -0.6563  0.8304 -2.5516
  171SOPE   H7S19328   6.327   0.179   7.544 -0.0766  0.3889  2.6028
  171SOPE   C2819329   6.281   0.004   7.658  1.3679  0.2004 -0.0054
  171SOPE   H8R19330   6.183   0.047   7.685 -0.2931 -3.1483 -0.1120
  171SOPE   H8S19331   6.259  -0.104   7.643  0.6674  0.4849 -1.1354
  171SOPE   C2919332   6.380   0.052   7.762  0.4035  0.7727  0.3766
  171SOPE   H9119333   6.384   0.160   7.779 -1.5221  0.7541  1.1734
  171SOPE  C21019334   6.455  -0.023   7.845  0.0622 -0.0357  0.2112
  171SOPE  H10119335   6.519   0.032   7.916  1.3780  0.9020 -1.6088
  171SOPE  C21119336   6.477  -0.175   7.849  0.3725 -0.0271  0.8808
  171SOPE  H11R19337   6.569  -0.202   7.906  1.6880  1.4933 -0.4077
  171SOPE  H11S19338   6.501  -0.210   7.747  0.6529  1.0522  0.5547
  171SOPE  C21219339   6.354  -0.251   7.903 -0.0225  0.5479 -0.3409
  171SOPE  H12R19340   6.286  -0.266   7.816  0.0181  0.0038 -0.2797
  171SOPE  H12S19341   6.302  -0.186   7.976 -1.3918  1.0732 -1.7248
  171SOPE  C21319342   6.375  -0.391   7.955 -0.5799  0.8009 -0.8952
  171SOPE  H13R19343   6.440  -0.451   7.888  2.0163  1.3759  0.9835
  171SOPE  H13S19344   6.283  -0.453   7.963  0.3505 -0.4151  1.2740
  171SOPE  C21419345   6.441  -0.393   8.090 -0.7414  0.0298 -0.1809
  171SOPE  H14R19346   6.362  -0.349   8.153 -2.4052 -2.1713 -0.6156
  171SOPE  H14S19347   6.536  -0.336   8.101  0.2494 -1.8657  2.0994
  171SOPE  C21519348   6.460  -0.531   8.152  0.7512 -0.8406  0.5758
  171SOPE  H15R19349   6.526  -0.595   8.090  3.3632  1.5655  0.7026
  171SOPE  H15S19350   6.363  -0.584   8.141  0.2231  0.4635 -1.4548
  171SOPE  C21619351   6.518  -0.520   8.289 -0.7882  0.4996 -0.3506
  171SOPE  H16R19352   6.452  -0.465   8.360 -2.7091 -1.2964 -0.6351
  171SOPE  H16S19353   6.615  -0.469   8.269 -0.6031 -0.0126 -0.7962
  171SOPE  C21719354   6.526  -0.653   8.359 -0.3241 -0.0964 -0.0734
  171SOPE  H17R19355   6.599  -0.716   8.304 -0.7641  0.3588 -1.1991
  171SOPE  H17S19356   6.431  -0.710   8.352 -0.3167  0.0503 -1.5695
  171SOPE  C21819357   6.583  -0.645   8.506 -0.0958  0.2315 -0.0157
  171SOPE  H18R19358   6.497  -0.608   8.566  0.7572  0.3341  1.1755
  171SOPE  H18S19359   6.672  -0.580   8.518  1.1676 -1.5835  0.9959
  171SOPE  H18T19360   6.608  -0.748   8.539  1.1265 -0.2276 -2.1886
  171SOPE   C3319361   5.990   0.433   7.092 -0.0152  0.1174 -0.2995
  171SOPE   H3X19362   5.894   0.464   7.045 -0.1789  0.8419  0.4890
  171SOPE   H3Y19363   6.071   0.473   7.028 -0.5601 -0.0673 -1.1215
  171SOPE   C3419364   6.011   0.513   7.224 -0.3722 -0.0870  0.1387
  171SOPE   H4X19365   6.047   0.616   7.204  0.9934 -0.7985 -1.3737
  171SOPE   H4Y19366   6.094   0.465   7.280  0.7329  2.7440  1.0833
  171SOPE   C3519367   5.902   0.496   7.326 -0.4362 -0.1361 -0.3795
  171SOPE   H5X19368   5.840   0.406   7.305 -0.2963 -0.5704  0.9636
  171SOPE   H5Y19369   5.840   0.589   7.331  1.1149  0.8624  1.7544
  171SOPE   C3619370   5.962   0.492   7.475  0.1712 -0.2528 -0.0741
  171SOPE   H6X19371   6.010   0.589   7.500  2.3779 -0.7036 -2.1877
  171SOPE   H6Y19372   6.051   0.425   7.485  3.2572  3.5547  0.5942
  171SOPE   C3719373   5.853   0.449   7.572  0.0329  0.3611 -1.3348
  171SOPE   H7X19374   5.837   0.340   7.560  0.5798 -0.1893  1.9216
  171SOPE   H7Y19375   5.761   0.510   7.559 -0.2929  0.5577  1.3456
  171SOPE   C3819376   5.898   0.484   7.717  0.0445 -0.0757 -0.6040
  171SOPE   H8X19377   5.819   0.454   7.789  0.4275 -1.1616 -0.6183
  171SOPE   H8Y19378   5.905   0.595   7.723  2.0966 -0.2201  0.9535
  171SOPE   C3919379   6.031   0.420   7.760 -0.0604 -0.1985  0.0176
  171SOPE   H9X19380   6.124   0.468   7.724  1.4805 -2.9841  0.0541
  171SOPE   H9Y19381   6.036   0.323   7.706  1.0922  1.7205 -3.6851
  171SOPE  C31019382   6.047   0.415   7.912 -0.9052  0.4753  0.5682
  171SOPE  H10X19383   5.950   0.425   7.965  0.1387  1.1295  2.4302
  171SOPE  H10Y19384   6.107   0.505   7.941 -0.0414 -0.0436  0.4324
  171SOPE  C31119385   6.107   0.283   7.964  0.7196 -0.2105  0.5574
  171SOPE  H11X19386   6.199   0.276   7.903  0.3585 -0.0075 -0.0210
  171SOPE  H11Y19387   6.041   0.199   7.935  0.7187 -0.4528  1.2471
  171SOPE  C31219388   6.158   0.279   8.107  0.8011  0.0599  0.1320
  171SOPE  H12X19389   6.069   0.282   8.173 -1.2656 -1.8722 -2.3758
  171SOPE  H12Y19390   6.226   0.364   8.134 -2.6904  2.3062  2.8374
  171SOPE  C31319391   6.223   0.147   8.151 -0.3558 -0.1409 -0.0883
  171SOPE  H13X19392   6.292   0.128   8.066 -0.0517  0.0988  0.1048
  171SOPE  H13Y19393   6.153   0.061   8.151  0.1960 -0.5918  0.2187
  171SOPE  C31419394   6.302   0.151   8.287 -0.0336  0.7329 -0.1379
  171SOPE  H14X19395   6.231   0.180   8.367 -1.0089  0.0293 -0.7306
  171SOPE  H14Y19396   6.391   0.217   8.279  2.0122 -2.0137 -1.9526
  171SOPE  C31519397   6.358   0.015   8.329 -0.1001  0.2566 -0.3783
  171SOPE  H15X19398   6.273  -0.056   8.321  0.0491  0.0163  0.1529
  171SOPE  H15Y19399   6.383   0.010   8.437  0.4320  0.2532 -0.4993
  171SOPE  C31619400   6.471  -0.042   8.251 -0.0095 -0.2297  0.4070
  171SOPE  H16X19401   6.539   0.043   8.229 -0.1019  0.2810  1.9526
  171SOPE  H16Y19402   6.436  -0.095   8.160 -3.5936 -0.1723  1.5855
  171SOPE  C31719403   6.567  -0.132   8.329 -0.5578 -0.1649  0.5495
  171SOPE  H17X19404   6.519  -0.231   8.339  0.7189 -0.9099 -0.4458
  171SOPE  H17Y19405   6.583  -0.092   8.432 -0.2365 -0.8034  0.7532
  171SOPE  C31819406   6.699  -0.143   8.262  0.1580  0.2529  0.7120
  171SOPE  H18X19407   6.760  -0.053   8.283 -0.5783  0.3376  2.8136
  171SOPE  H18Y19408   6.687  -0.147   8.152  2.1425  1.2134  0.4296
  171SOPE  H18Z19409   6.749  -0.238   8.291 -0.1863 -0.2518 -0.3010
  172SOPE     N19410   6.344   2.178   6.297  0.2290 -0.5505 -0.5919
  172SOPE   HN119411   6.338   2.078   6.269  0.3521 -0.6897 -0.1440
  172SOPE   HN219412   6.305   2.239   6.223  0.0469 -1.1816 -1.0169
  172SOPE   HN319413   6.445   2.198   6.313 -0.1044  0.9332 -0.2121
  172SOPE   C1219414   6.259   2.209   6.424  0.0863 -0.1788 -0.6614
  172SOPE  H12A19415   6.304   2.145   6.503  1.8984 -0.2573 -1.7079
  172SOPE  H12B19416   6.155   2.172   6.407  0.2659 -0.7115 -0.6232
  172SOPE   C1119417   6.258   2.359   6.470 -0.6268 -0.1023 -0.5678
  172SOPE  H11A19418   6.365   2.387   6.468 -1.0987  1.7735 -1.1618
  172SOPE  H11B19419   6.214   2.363   6.572 -0.5210  0.0418 -0.5282
  172SOPE     P19420   6.191   2.580   6.400  0.2747  0.3576  0.1508
  172SOPE   O1319421   6.129   2.649   6.285 -0.0109  0.3717 -0.2311
  172SOPE   O1419422   6.335   2.613   6.419  0.0483  0.1656  1.1028
  172SOPE   O1219423   6.172   2.426   6.380 -0.2538  0.2794 -0.2166
  172SOPE   O1119424   6.118   2.619   6.528  0.3904  0.2805  0.0093
  172SOPE    C119425   5.977   2.591   6.545 -0.3894  1.2276  0.5858
  172SOPE    HA19426   5.945   2.507   6.480  1.4198  0.7379  0.2762
  172SOPE    HB19427   5.910   2.668   6.500 -0.5643  0.8012  0.0992
  172SOPE    C219428   5.930   2.567   6.686 -0.2676 -0.2952 -0.0860
  172SOPE    HS19429   5.828   2.523   6.686 -0.1385 -0.7858 -2.9685
  172SOPE   O2119430   5.933   2.689   6.753  0.0638 -0.1949 -0.0919
  172SOPE   C2119431   5.854   2.706   6.860 -0.0723  0.0298  0.4869
  172SOPE   O2219432   5.771   2.624   6.900  0.3131  0.1535  0.1253
  172SOPE   C2219433   5.894   2.832   6.941  0.0428 -0.5758 -0.4507
  172SOPE   H2R19434   5.913   2.909   6.864  0.2621 -2.8041 -2.7613
  172SOPE   H2S19435   5.986   2.805   6.997 -1.6996 -1.6633  2.1137
  172SOPE    C319436   6.029   2.469   6.754  0.4517 -0.5619 -0.2013
  172SOPE    HX19437   6.127   2.520   6.767 -1.0626  2.2135  1.3114
  172SOPE    HY19438   6.024   2.386   6.681  0.5881 -0.6476 -0.1127
  172SOPE   O3119439   5.977   2.408   6.876  0.0766  0.0871 -0.3873
  172SOPE   C3119440   6.034   2.443   6.993 -0.1940  0.1624 -0.6758
  172SOPE   O3219441   6.120   2.528   7.009  0.0286  0.0797  0.1933
  172SOPE   C3219442   5.959   2.386   7.107  0.0414 -0.1573  0.2717
  172SOPE   H2X19443   5.916   2.291   7.069  1.2173 -0.6259  0.0641
  172SOPE   H2Y19444   5.880   2.458   7.139 -0.3481 -0.7864  0.7488
  172SOPE   C2319445   5.785   2.878   7.047  0.0975  0.6091  0.3439
  172SOPE   H3R19446   5.687   2.854   7.000 -0.3359  1.0479  1.0004
  172SOPE   H3S19447   5.773   2.986   7.071 -0.7163  0.4894  0.5141
  172SOPE   C2419448   5.802   2.808   7.181  0.2800 -0.3076  0.0778
  172SOPE   H4R19449   5.822   2.700   7.163 -0.1668 -0.4647  0.5105
  172SOPE   H4S19450   5.900   2.847   7.215  0.4801  0.0042 -0.8183
  172SOPE   C2519451   5.695   2.853   7.280 -0.4185  0.3988  0.2171
  172SOPE   H5R19452   5.690   2.964   7.286 -0.6758  0.3235  1.9202
  172SOPE   H5S19453   5.595   2.820   7.245  0.7983 -1.8042 -1.4814
  172SOPE   C2619454   5.711   2.823   7.426  0.2975  0.4671 -0.1506
  172SOPE   H6R19455   5.796   2.883   7.462  1.3694 -2.2746  2.2628
  172SOPE   H6S19456   5.625   2.872   7.477 -0.7140 -1.8431  0.4970
  172SOPE   C2719457   5.732   2.673   7.465  0.2270 -0.0296 -0.9642
  172SOPE   H7R19458   5.643   2.617   7.430 -0.8505  0.4064  0.9464
  172SOPE   H7S19459   5.827   2.631   7.425 -0.0336 -0.6033 -0.9900
  172SOPE   C2819460   5.735   2.640   7.619  0.7515  0.2032 -0.0055
  172SOPE   H8R19461   5.769   2.538   7.646  1.9481  0.4878 -0.4080
  172SOPE   H8S19462   5.809   2.703   7.673  3.8792 -2.3825 -1.0249
  172SOPE   C2919463   5.598   2.661   7.679  0.2085 -0.5316 -0.1038
  172SOPE   H9119464   5.553   2.759   7.655  1.3233 -0.3295 -1.5234
  172SOPE  C21019465   5.519   2.564   7.728  0.3365  0.5706  0.1973
  172SOPE  H10119466   5.415   2.589   7.756 -0.5985 -0.0292 -2.4356
  172SOPE  C21119467   5.547   2.412   7.733  0.4213 -0.7800 -0.4885
  172SOPE  H11R19468   5.623   2.371   7.664  0.0652 -1.6833 -0.3567
  172SOPE  H11S19469   5.456   2.358   7.699  0.1691 -0.3100 -0.5748
  172SOPE  C21219470   5.572   2.364   7.878  0.2835 -0.2700  0.3872
  172SOPE  H12R19471   5.661   2.426   7.902  1.0998 -0.2468 -2.3860
  172SOPE  H12S19472   5.604   2.257   7.882  1.0514 -0.0106  2.2569
  172SOPE  C21319473   5.457   2.387   7.980 -0.2764 -0.6210 -0.9087
  172SOPE  H13R19474   5.362   2.361   7.930 -2.6561  2.0018  1.8475
  172SOPE  H13S19475   5.446   2.497   7.991  1.0490 -0.5352 -0.2280
  172SOPE  C21419476   5.488   2.331   8.117 -0.2654 -0.9692 -0.3505
  172SOPE  H14R19477   5.589   2.362   8.152 -0.3073 -0.9746 -0.2238
  172SOPE  H14S19478   5.479   2.220   8.115 -0.5886 -0.9361 -2.0281
  172SOPE  C21519479   5.387   2.377   8.219  0.2141  0.0437 -0.2308
  172SOPE  H15R19480   5.282   2.356   8.190  0.1018 -0.4947  0.5381
  172SOPE  H15S19481   5.390   2.486   8.239  0.7394 -0.2557  1.4760
  172SOPE  C21619482   5.413   2.312   8.356  0.0724  0.1682 -0.3024
  172SOPE  H16R19483   5.512   2.350   8.389 -0.7389  1.0825  1.1966
  172SOPE  H16S19484   5.424   2.202   8.343 -0.2230  0.0416  0.4726
  172SOPE  C21719485   5.308   2.338   8.459 -0.0748  0.2134  0.4108
  172SOPE  H17R19486   5.295   2.448   8.461  0.0042  0.2115  2.3837
  172SOPE  H17S19487   5.345   2.307   8.559 -1.6283 -1.9976  0.3841
  172SOPE  C21819488   5.176   2.264   8.430  0.1548 -0.0803 -0.7847
  172SOPE  H18R19489   5.202   2.157   8.420  0.3803 -0.2565  1.3151
  172SOPE  H18S19490   5.143   2.297   8.329  0.5310  0.0026 -0.8861
  172SOPE  H18T19491   5.101   2.272   8.511  0.5135 -1.6981 -0.2649
  172SOPE   C3319492   6.040   2.347   7.231 -0.3511  0.4272  0.1552
  172SOPE   H3X19493   6.086   2.443   7.260 -1.5404  1.3599 -0.9087
  172SOPE   H3Y19494   6.106   2.259   7.217  1.0883  1.5355 -0.2070
  172SOPE   C3419495   5.942   2.317   7.342  0.0649 -0.5332 -0.3284
  172SOPE   H4X19496   5.870   2.239   7.308 -0.7832  0.0310  0.1364
  172SOPE   H4Y19497   5.884   2.406   7.374 -0.2163 -1.7680  3.0227
  172SOPE   C3519498   6.018   2.266   7.465 -0.3695  0.5809  0.7854
  172SOPE   H5X19499   6.104   2.335   7.480 -1.4679  2.0556  0.5685
  172SOPE   H5Y19500   6.056   2.162   7.459  0.1248  0.8283 -0.6948
  172SOPE   C3619501   5.940   2.278   7.596 -0.1947 -0.3940  0.7033
  172SOPE   H6X19502   5.840   2.233   7.577 -0.3882 -0.1211  1.0780
  172SOPE   H6Y19503   5.919   2.387   7.604 -0.9444 -0.4544 -0.1948
  172SOPE   C3719504   6.011   2.232   7.725  0.7648  0.7221  0.4565
  172SOPE   H7X19505   6.114   2.273   7.738  2.3115 -2.6253 -0.3082
  172SOPE   H7Y19506   6.025   2.122   7.720  0.7364  0.6452  1.7360
  172SOPE   C3819507   5.920   2.256   7.851 -0.0044  0.1744 -0.7143
  172SOPE   H8X19508   5.829   2.196   7.830  0.6531 -1.3584  0.6194
  172SOPE   H8Y19509   5.898   2.364   7.870 -1.3072 -0.3843  1.2131
  172SOPE   C3919510   5.971   2.200   7.980 -1.0572  0.3730 -0.2737
  172SOPE   H9X19511   6.064   2.246   8.018 -0.8963 -0.3768  0.2727
  172SOPE   H9Y19512   5.981   2.091   7.957 -1.2565  0.1470  0.6752
  172SOPE  C31019513   5.873   2.220   8.090  0.1469 -0.2636 -0.4462
  172SOPE  H10X19514   5.774   2.170   8.082  0.5225 -1.3891  1.2909
  172SOPE  H10Y19515   5.851   2.329   8.092  0.1535 -0.2582 -0.6353
  172SOPE  C31119516   5.916   2.164   8.230  0.0993  0.9774  0.5939
  172SOPE  H11X19517   5.996   2.230   8.268  3.2646 -0.3243 -3.1694
  172SOPE  H11Y19518   5.946   2.057   8.228 -0.2579  0.8896 -0.4807
  172SOPE  C31219519   5.816   2.177   8.344  0.5476 -0.8583 -0.3641
  172SOPE  H12X19520   5.747   2.090   8.339 -1.9695  0.8640  1.6728
  172SOPE  H12Y19521   5.754   2.268   8.329 -0.7202 -1.9138 -1.8920
  172SOPE  C31319522   5.883   2.179   8.479  0.2900  0.1894  0.5700
  172SOPE  H13X19523   5.953   2.266   8.481  1.1579 -0.3552 -2.4674
  172SOPE  H13Y19524   5.952   2.093   8.490  0.2496  0.3482  2.5270
  172SOPE  C31419525   5.787   2.202   8.591 -0.7401  0.6276  0.4841
  172SOPE  H14X19526   5.721   2.113   8.598 -2.0751  1.4079 -1.3296
  172SOPE  H14Y19527   5.722   2.291   8.577  0.0285  1.1283  0.0179
  172SOPE  C31519528   5.851   2.230   8.725  0.5870 -0.1377 -0.1583
  172SOPE  H15X19529   5.777   2.244   8.807 -1.5491 -1.2717 -1.7758
  172SOPE  H15Y19530   5.910   2.324   8.728  1.5246 -0.7262  0.2482
  172SOPE  C31619531   5.939   2.109   8.777 -0.0628 -0.5770 -0.1526
  172SOPE  H16X19532   6.027   2.112   8.709 -1.9929  1.6140 -2.7492
  172SOPE  H16Y19533   5.884   2.016   8.751  0.8012 -0.8291 -1.1181
  172SOPE  C31719534   5.977   2.091   8.929 -0.7518 -0.2599  0.5074
  172SOPE  H17X19535   5.878   2.086   8.978 -0.5979 -0.0711  0.8376
  172SOPE  H17Y19536   6.034   2.184   8.950 -0.3811 -0.7002  1.4947
  172SOPE  C31819537   6.055   1.965   8.955  0.6842 -0.0427 -0.0796
  172SOPE  H18X19538   6.088   1.965   9.062  1.3714 -0.5711 -0.2843
  172SOPE  H18Y19539   6.144   1.963   8.889  0.7672 -1.4133  0.0407
  172SOPE  H18Z19540   6.000   1.869   8.946  1.4273 -0.4198 -0.7218
  173SAPI   C1219541   0.382   6.293  10.563  0.5324  0.2408 -0.2106
  173SAPI    H219542   0.480   6.313  10.611  0.9529  1.4128 -1.4910
  173SAPI    O219543   0.330   6.178  10.636 -0.0310  0.5668 -0.0859
  173SAPI   HO219544   0.381   6.101  10.609  0.0103  0.5777 -0.0390
  173SAPI   C1319545   0.293   6.415  10.575 -0.3439 -0.2719 -0.2436
  173SAPI    H319546   0.344   6.493  10.515 -0.6234 -0.9229 -1.3511
  173SAPI    O319547   0.288   6.454  10.712 -0.7491 -0.0997  0.1174
  173SAPI   HO319548   0.223   6.398  10.755  0.3721 -1.7935 -0.3171
  173SAPI   C1419549   0.153   6.390  10.512  0.3087 -0.5299  0.1565
  173SAPI    H419550   0.098   6.316  10.573  0.6976 -1.0728 -0.1423
  173SAPI    O419551   0.076   6.512  10.512  0.6282 -0.1016 -0.1621
  173SAPI   HO419552   0.134   6.587  10.505 -0.8416  1.1962  0.7880
  173SAPI   C1519553   0.160   6.327  10.368  0.2896  0.4941 -0.4000
  173SAPI    H519554   0.196   6.406  10.300  0.6060  0.5800 -0.1344
  173SAPI    O519555   0.025   6.300  10.323 -0.6819 -0.2676 -0.0835
  173SAPI   HO519556  -0.015   6.228  10.371  0.3686  1.6369  4.0756
  173SAPI   C1619557   0.261   6.213  10.357 -0.6449  0.3367 -0.0073
  173SAPI    H619558   0.216   6.130  10.415 -2.4467  1.8372  0.8529
  173SAPI    O619559   0.272   6.172  10.223  0.0686  0.0632  0.0099
  173SAPI   HO619560   0.226   6.087  10.222 -0.9294  0.5849  0.0102
  173SAPI   C1119561   0.400   6.253  10.419  0.4091  0.2019  0.5662
  173SAPI    H119562   0.435   6.345  10.367 -0.7817  0.5846  0.4110
  173SAPI     P19563   0.653   6.175  10.436 -0.1123  0.1138 -0.0594
  173SAPI   O1319564   0.696   6.070  10.530  0.0088 -0.2632 -0.0825
  173SAPI   O1419565   0.664   6.317  10.474 -0.0237  0.3867  0.2472
  173SAPI   O1219566   0.490   6.139  10.408  0.3131  0.2824  0.3314
  173SAPI   O1119567   0.727   6.142  10.298  0.0673  0.3782 -0.4018
  173SAPI    C119568   0.667   6.069  10.197 -0.0066  0.0794  0.4847
  173SAPI    HA19569   0.727   5.982  10.164  0.1132  0.9946 -1.8378
  173SAPI    HB19570   0.561   6.038  10.211 -0.6804  0.1245 -3.4752
  173SAPI    C219571   0.655   6.158  10.070 -0.2379 -0.3167  0.0941
  173SAPI    HS19572   0.582   6.116   9.998  0.0967 -0.7247 -0.0086
  173SAPI   O2119573   0.789   6.173  10.017 -0.0959  0.5248 -0.1814
  173SAPI   C2119574   0.821   6.069   9.935 -0.2999 -0.0108 -0.2015
  173SAPI   O2219575   0.754   5.969   9.920  0.4062 -0.2545 -0.2022
  173SAPI   C2219576   0.962   6.087   9.879 -0.1690 -0.1969 -0.1630
  173SAPI   H2R19577   0.975   6.194   9.850 -0.3148 -0.0282  0.3743
  173SAPI   H2S19578   1.038   6.075   9.959 -0.8940 -0.2326  0.5349
  173SAPI    C319579   0.598   6.301  10.108 -0.1741  0.0149 -0.1537
  173SAPI    HX19580   0.661   6.356  10.181 -0.1629 -1.3629  0.9022
  173SAPI    HY19581   0.501   6.276  10.156  0.2225  0.6180  1.0030
  173SAPI   O3119582   0.553   6.387   9.999  0.8321 -0.6255  0.1955
  173SAPI   C3119583   0.533   6.516  10.031  1.1559  0.1106  0.0865
  173SAPI   O3219584   0.528   6.561  10.144 -0.3664 -0.6880  0.1582
  173SAPI   C3219585   0.520   6.604   9.904 -0.0623 -0.5593 -0.1866
  173SAPI   H2X19586   0.596   6.555   9.838  2.1131  1.7432  0.4546
  173SAPI   H2Y19587   0.560   6.705   9.924  0.8012 -0.9191 -0.0463
  173SAPI   C2319588   0.988   6.007   9.752  0.1483  0.3754 -0.6563
  173SAPI   H3R19589   0.971   6.078   9.668  0.1844  3.0548  1.4804
  173SAPI   H3S19590   0.918   5.920   9.743  0.6375  0.1184 -2.4369
  173SAPI   C2419591   1.130   5.950   9.742  0.4086  0.1801 -0.8447
  173SAPI   H4R19592   1.137   5.888   9.650  0.7993  2.3119 -2.3279
  173SAPI   H4S19593   1.151   5.889   9.833 -0.5983  1.6491  0.4359
  173SAPI   C2519594   1.222   6.065   9.733 -0.7678 -0.7906  0.1338
  173SAPI   H5R19595   1.236   6.115   9.830  0.5438  0.8936 -0.8667
  173SAPI   C2619596   1.288   6.117   9.627 -0.3760 -0.8989  0.9583
  173SAPI   H6R19597   1.343   6.209   9.647 -1.1080 -0.1046 -0.4710
  173SAPI   C2719598   1.288   6.077   9.481  0.2245 -0.1041 -0.4672
  173SAPI   H7R19599   1.192   6.111   9.437  0.6197  0.5522 -0.8339
  173SAPI   H7S19600   1.292   5.967   9.468  0.4959  0.0049 -1.3325
  173SAPI   C2819601   1.409   6.134   9.406 -0.0502  0.0872 -0.0037
  173SAPI   H8R19602   1.489   6.179   9.467 -0.8374  1.5250  0.0178
  173SAPI   C2919603   1.422   6.142   9.274  0.0350  0.3591  0.4265
  173SAPI   H9R19604   1.521   6.178   9.242 -0.3703  0.9874 -0.1478
  173SAPI  C21019605   1.323   6.102   9.167  0.2117 -0.5785 -0.0831
  173SAPI  H10R19606   1.313   6.183   9.092  0.5254 -2.0857 -1.8346
  173SAPI  H10S19607   1.223   6.091   9.214  0.4377 -1.4285  0.2339
  173SAPI  C21119608   1.356   5.974   9.090 -0.6910 -0.4194  0.4840
  173SAPI  H11R19609   1.411   5.898   9.147 -0.1202  0.1302  0.6796
  173SAPI  C21219610   1.322   5.945   8.964 -0.0825  0.2297  0.2913
  173SAPI  H12R19611   1.353   5.850   8.918 -1.4045 -0.9408  1.7229
  173SAPI  C21319612   1.233   6.043   8.885 -0.0491 -0.2619  0.3977
  173SAPI  H13R19613   1.296   6.134   8.884  3.8239 -2.7145  0.4717
  173SAPI  H13S19614   1.142   6.069   8.943  0.6577  0.6884  1.1007
  173SAPI  C21419615   1.201   5.994   8.746 -0.1701 -0.3555 -0.0804
  173SAPI  H14R19616   1.233   5.891   8.730 -1.1954 -1.0579  2.0013
  173SAPI  C21519617   1.146   6.068   8.648 -0.0690 -0.2013  0.1157
  173SAPI  H15R19618   1.130   6.020   8.551  0.8585  0.1116 -0.1951
  173SAPI  C21619619   1.106   6.215   8.657  0.3664  0.1750  0.2536
  173SAPI  H16R19620   1.183   6.276   8.605 -0.2333  0.6274 -0.1145
  173SAPI  H16S19621   1.102   6.245   8.764  1.9445  1.9912 -0.1301
  173SAPI  C21719622   0.977   6.255   8.588  0.1241  0.2038  0.0915
  173SAPI  H17R19623   0.957   6.364   8.584 -0.9752 -0.0039 -0.9638
  173SAPI  H17S19624   0.896   6.197   8.638 -0.8941 -0.8551 -2.5645
  173SAPI  C21819625   0.980   6.211   8.435  0.6215 -0.5808 -1.1833
  173SAPI  H18R19626   0.889   6.260   8.393  0.7980  1.6005  0.7617
  173SAPI  H18S19627   0.972   6.101   8.426 -1.0763 -0.6214  0.3278
  173SAPI  C21919628   1.103   6.263   8.358 -0.9494 -0.1313  0.2415
  173SAPI  H19R19629   1.197   6.205   8.374 -0.6934  0.3028  0.3122
  173SAPI  H19S19630   1.124   6.369   8.382  3.2501 -0.3953 -1.4442
  173SAPI  C22019631   1.088   6.266   8.201  0.8840 -0.3901  0.5784
  173SAPI  H20R19632   1.092   6.165   8.155 -3.9042 -0.8133  0.5573
  173SAPI  H20S19633   1.176   6.322   8.165  0.2455  0.2980  0.0592
  173SAPI  H20T19634   0.995   6.320   8.173  0.8703 -1.1725 -0.9538
  173SAPI   C3319635   0.383   6.613   9.834  0.0211  0.4298 -0.3904
  173SAPI   H3X19636   0.389   6.685   9.750 -3.7872 -0.8701 -1.9573
  173SAPI   H3Y19637   0.310   6.648   9.910  2.0046  0.0940  1.8140
  173SAPI   C3419638   0.341   6.483   9.761 -0.3097  0.5912 -0.3074
  173SAPI   H4X19639   0.233   6.468   9.781  0.0986 -0.5369  1.2206
  173SAPI   H4Y19640   0.380   6.392   9.810  2.2290  0.0793 -3.0250
  173SAPI   C3519641   0.395   6.473   9.615 -0.1888  0.4852 -0.1871
  173SAPI   H5X19642   0.382   6.367   9.584  3.7727 -0.4521  0.7995
  173SAPI   H5Y19643   0.505   6.482   9.611 -0.0209 -1.2591 -3.6613
  173SAPI   C3619644   0.316   6.559   9.520 -0.4508 -0.0770  0.6904
  173SAPI   H6X19645   0.298   6.663   9.554 -3.1329 -0.7843  1.6413
  173SAPI   H6Y19646   0.211   6.524   9.521 -0.0222 -1.5147 -0.4347
  173SAPI   C3719647   0.368   6.542   9.377 -0.1845 -0.3523 -0.1012
  173SAPI   H7X19648   0.288   6.584   9.312 -1.2991 -1.2278  0.6471
  173SAPI   H7Y19649   0.388   6.437   9.349 -1.2440 -1.0596  1.5976
  173SAPI   C3819650   0.498   6.621   9.343  0.2511 -0.5539  0.0595
  173SAPI   H8X19651   0.567   6.587   9.422  1.8120 -0.3442 -1.1577
  173SAPI   H8Y19652   0.480   6.731   9.344 -0.5461 -0.6837  0.3958
  173SAPI   C3919653   0.535   6.578   9.200 -0.0049 -0.0825 -0.8860
  173SAPI   H9X19654   0.543   6.468   9.189 -2.2031 -0.1418 -2.6470
  173SAPI   H9Y19655   0.626   6.631   9.164  1.1597  0.0522  2.0020
  173SAPI  C31019656   0.428   6.606   9.093  0.4222 -0.1233  0.1080
  173SAPI  H10X19657   0.340   6.540   9.111  0.3878 -0.1202 -0.0421
  173SAPI  H10Y19658   0.478   6.575   8.998  0.4735  0.9557 -0.2286
  173SAPI  C31119659   0.371   6.746   9.070  0.5549 -0.5711 -0.0336
  173SAPI  H11X19660   0.451   6.823   9.061 -0.4126  0.3369 -1.2904
  173SAPI  H11Y19661   0.302   6.775   9.153 -0.7149  1.0725 -1.5788
  173SAPI  C31219662   0.276   6.752   8.946 -0.3816 -0.6660 -0.0406
  173SAPI  H12X19663   0.208   6.839   8.958  1.3888  1.0699 -1.8619
  173SAPI  H12Y19664   0.220   6.657   8.935  1.7376 -1.8696 -0.8704
  173SAPI  C31319665   0.344   6.784   8.814 -1.1407 -0.6815 -0.9177
  173SAPI  H13X19666   0.384   6.686   8.779  0.1159 -0.5471  0.0761
  173SAPI  H13Y19667   0.442   6.835   8.830 -0.4002 -1.6377 -2.1130
  173SAPI  C31419668   0.254   6.847   8.712  0.9518 -0.0200  0.3599
  173SAPI  H14X19669   0.222   6.949   8.743  0.3770  0.0293 -0.3568
  173SAPI  H14Y19670   0.166   6.779   8.704 -0.1076  1.1229  1.8242
  173SAPI  C31519671   0.331   6.866   8.579 -0.7055  0.6930 -0.3188
  173SAPI  H15X19672   0.372   6.767   8.551  1.0420  0.7924  1.5671
  173SAPI  H15Y19673   0.419   6.930   8.603  1.8613 -2.0422 -1.7935
  173SAPI  C31619674   0.254   6.926   8.464 -0.0661 -0.2259  0.0788
  173SAPI  H16X19675   0.169   6.855   8.451  0.5234 -0.9134 -0.1410
  173SAPI  H16Y19676   0.315   6.919   8.371 -0.8394 -3.4580 -0.3022
  173SAPI  C31719677   0.211   7.072   8.477 -0.2341  0.5922 -0.5204
  173SAPI  H17X19678   0.307   7.118   8.508 -0.3291  0.7207 -0.4157
  173SAPI  H17Y19679   0.130   7.081   8.552  0.2205  0.1081  0.0316
  173SAPI  C31819680   0.159   7.131   8.342  0.0283  0.3236  1.0660
  173SAPI  H18X19681   0.081   7.066   8.298  0.5212 -0.4320  1.2972
  173SAPI  H18Y19682   0.244   7.131   8.271 -0.4233 -0.0682  0.5136
  173SAPI  H18Z19683   0.122   7.236   8.353 -1.4605 -0.2765  2.1711
  174SAPI   C1219684   4.388   6.758  11.219 -0.7477 -0.0504  0.1772
  174SAPI    H219685   4.491   6.742  11.259  0.3939  0.9412 -2.1915
  174SAPI    O219686   4.321   6.641  11.243 -0.3004 -0.0568 -0.1700
  174SAPI   HO219687   4.361   6.569  11.193  0.9800 -0.9079  1.9338
  174SAPI   C1319688   4.324   6.870  11.302 -0.7104 -0.1245  0.3468
  174SAPI    H319689   4.385   6.960  11.280 -2.2726  0.8280 -0.2194
  174SAPI    O319690   4.333   6.837  11.443 -0.4880  0.2051  0.1009
  174SAPI   HO319691   4.281   6.757  11.451 -0.5368  0.3328  1.1948
  174SAPI   C1419692   4.180   6.886  11.249  0.0797 -0.2131  0.5105
  174SAPI    H419693   4.111   6.802  11.273 -1.0812  0.8293  0.9412
  174SAPI    O419694   4.112   6.994  11.319 -0.0543  0.4122 -0.1881
  174SAPI   HO419695   4.044   6.954  11.374  0.9715 -1.1034  0.0430
  174SAPI   C1519696   4.189   6.915  11.103  0.6229 -0.3990 -0.2833
  174SAPI    H519697   4.260   7.000  11.090  0.0314 -0.0500 -1.4819
  174SAPI    O519698   4.068   6.956  11.049  0.4051  0.4805  0.2562
  174SAPI   HO519699   4.084   6.996  10.963 -0.0875  0.2822  0.0683
  174SAPI   C1619700   4.252   6.803  11.018 -0.5381 -0.0459  0.0035
  174SAPI    H619701   4.199   6.708  11.039  1.5150 -1.0488  0.9942
  174SAPI    O619702   4.250   6.825  10.876 -0.3099  0.6520 -0.4839
  174SAPI   HO619703   4.270   6.739  10.839  2.5588  1.1061 -0.1671
  174SAPI   C1119704   4.401   6.775  11.068  0.7759 -0.4161  0.6503
  174SAPI    H119705   4.454   6.872  11.058 -0.1532  0.1772  1.3386
  174SAPI     P19706   4.615   6.672  10.957 -0.2789 -0.2438 -0.5315
  174SAPI   O1319707   4.650   6.540  10.905  0.4628 -0.0496 -0.2669
  174SAPI   O1419708   4.703   6.728  11.069 -0.0795  0.6098 -0.1020
  174SAPI   O1219709   4.462   6.666  11.007 -0.5461 -0.0209  0.2669
  174SAPI   O1119710   4.601   6.774  10.846 -0.6524  0.4075 -0.4977
  174SAPI    C119711   4.572   6.746  10.710  0.3115  0.4017  0.2353
  174SAPI    HA19712   4.540   6.640  10.704 -0.6218  0.4979  2.4790
  174SAPI    HB19713   4.491   6.818  10.683 -0.1866 -0.4590 -0.6099
  174SAPI    C219714   4.697   6.774  10.621  0.0265 -0.7672 -0.0313
  174SAPI    HS19715   4.777   6.700  10.647 -0.6343 -1.3814  0.2807
  174SAPI   O2119716   4.730   6.911  10.641 -0.0287 -0.2928 -0.4628
  174SAPI   C2119717   4.856   6.933  10.636  0.7853 -0.8507 -0.4544
  174SAPI   O2219718   4.942   6.855  10.660 -0.7377 -0.0565 -0.4917
  174SAPI   C2219719   4.874   7.088  10.619 -0.3409 -0.6683 -0.5684
  174SAPI   H2R19720   4.798   7.133  10.552  2.0032  3.2829 -0.8982
  174SAPI   H2S19721   4.863   7.129  10.722 -0.6953 -2.2061  0.0314
  174SAPI    C319722   4.661   6.765  10.472  0.5266 -0.4749 -0.1035
  174SAPI    HX19723   4.567   6.822  10.456 -0.8683 -2.4444  0.6853
  174SAPI    HY19724   4.627   6.661  10.451  0.1114 -0.4770  0.5470
  174SAPI   O3119725   4.771   6.810  10.388 -0.1145 -0.6876 -0.0504
  174SAPI   C3119726   4.872   6.728  10.362  0.4721  0.5020 -0.3475
  174SAPI   O3219727   4.870   6.611  10.391 -0.7365  0.5954  0.1577
  174SAPI   C3219728   4.990   6.801  10.298  0.8619 -0.0057 -0.3375
  174SAPI   H2X19729   5.072   6.791  10.372  0.1921 -0.3682  0.3778
  174SAPI   H2Y19730   4.965   6.909  10.288  2.0446  0.4941  1.5326
  174SAPI   C2319731   5.021   7.152  10.599  0.5360  0.7373  0.3122
  174SAPI   H3R19732   5.079   7.103  10.680 -0.4970 -0.7988  0.1606
  174SAPI   H3S19733   5.020   7.263  10.606  2.2934  0.7139  1.3011
  174SAPI   C2419734   5.100   7.114  10.466 -0.2816 -0.3034 -0.5827
  174SAPI   H4R19735   5.033   7.133  10.380 -0.3745 -0.0737 -0.4588
  174SAPI   H4S19736   5.139   7.010  10.456  1.0234 -0.0120  1.0135
  174SAPI   C2519737   5.228   7.191  10.458 -0.2181 -0.1852  0.0108
  174SAPI   H5R19738   5.301   7.145  10.527 -2.4071 -0.2316  2.4693
  174SAPI   C2619739   5.267   7.277  10.362 -0.0284 -0.0390  0.5607
  174SAPI   H6R19740   5.364   7.325  10.383  0.6395 -1.3391  0.5772
  174SAPI   C2719741   5.183   7.328  10.247  0.3472 -0.0794 -0.4993
  174SAPI   H7R19742   5.222   7.430  10.224  1.6830 -0.1698  1.1202
  174SAPI   H7S19743   5.078   7.344  10.278  0.3787 -1.0811  0.1632
  174SAPI   C2819744   5.194   7.226  10.134 -0.0958  0.3319 -0.2193
  174SAPI   H8R19745   5.193   7.121  10.165 -0.6423  0.5088  0.3770
  174SAPI   C2919746   5.186   7.255  10.004 -0.8139  0.1332  0.0751
  174SAPI   H9R19747   5.183   7.173   9.931 -1.4992  1.1956 -1.1540
  174SAPI  C21019748   5.164   7.388   9.941  0.0965  0.3875  0.2163
  174SAPI  H10R19749   5.256   7.419   9.888  0.7658  3.0199  2.6692
  174SAPI  H10S19750   5.153   7.466  10.020  0.1560 -0.3036  0.9102
  174SAPI  C21119751   5.033   7.393   9.859  0.4267  0.0319  0.0614
  174SAPI  H11R19752   4.944   7.406   9.923  2.2351  0.7629  2.6290
  174SAPI  C21219753   5.027   7.397   9.725  0.7391  0.1698 -0.5681
  174SAPI  H12R19754   4.932   7.397   9.669  0.3510  0.4057  0.0749
  174SAPI  C21319755   5.137   7.398   9.625  0.4415 -0.0959 -0.3109
  174SAPI  H13R19756   5.234   7.389   9.680 -0.3551  2.1848  1.6545
  174SAPI  H13S19757   5.140   7.498   9.579 -1.8227 -0.1813 -0.7391
  174SAPI  C21419758   5.129   7.277   9.529 -0.0572 -0.6942  0.5183
  174SAPI  H14R19759   5.128   7.179   9.578 -0.8504 -0.4531  1.0027
  174SAPI  C21519760   5.113   7.274   9.402  0.0484 -1.2443 -0.2743
  174SAPI  H15R19761   5.108   7.174   9.357 -2.6490 -0.9961 -0.6961
  174SAPI  C21619762   5.094   7.399   9.312 -0.0020  0.1956 -0.0778
  174SAPI  H16R19763   5.179   7.425   9.245 -0.1187  0.1968 -0.2267
  174SAPI  H16S19764   5.082   7.486   9.380  0.4012 -0.5801  1.0096
  174SAPI  C21719765   4.976   7.390   9.206 -0.1853  0.2651 -0.2995
  174SAPI  H17R19766   4.941   7.487   9.164  0.8142  0.6586 -0.2614
  174SAPI  H17S19767   4.882   7.339   9.238  0.4724 -0.4055  0.6149
  174SAPI  C21819768   5.029   7.302   9.092  0.7899  0.0087 -0.1833
  174SAPI  H18R19769   5.075   7.208   9.129  0.2490 -1.4463 -2.9555
  174SAPI  H18S19770   5.114   7.363   9.056  4.0847 -2.1287  3.1733
  174SAPI  C21919771   4.918   7.272   8.989 -0.5171 -0.6088 -0.5365
  174SAPI  H19R19772   4.845   7.212   9.049 -0.8855  1.5400  1.2898
  174SAPI  H19S19773   4.965   7.202   8.917 -0.9167 -0.2073 -1.1997
  174SAPI  C22019774   4.871   7.398   8.912  0.3988 -0.5846 -0.4067
  174SAPI  H20R19775   4.963   7.438   8.863  1.1952 -2.4773 -0.5193
  174SAPI  H20S19776   4.818   7.478   8.968  2.6290  1.7213 -1.3625
  174SAPI  H20T19777   4.805   7.367   8.828 -0.1851 -0.6459  0.0691
  174SAPI   C3319778   5.026   6.745  10.163  0.5556  0.3684  0.4511
  174SAPI   H3X19779   4.947   6.778  10.092  0.3723 -0.4658  0.2566
  174SAPI   H3Y19780   5.025   6.634  10.160 -2.7366  0.3329 -1.1517
  174SAPI   C3419781   5.164   6.798  10.113 -0.5928 -0.6194 -0.1549
  174SAPI   H4X19782   5.240   6.761  10.185  0.6466  0.1771 -0.9995
  174SAPI   H4Y19783   5.163   6.909  10.116 -0.8797 -0.6358  0.4660
  174SAPI   C3519784   5.191   6.740   9.972 -0.2730  0.1924 -0.4193
  174SAPI   H5X19785   5.183   6.630   9.984 -1.3450  0.0987 -1.7110
  174SAPI   H5Y19786   5.295   6.774   9.958 -0.1878 -0.4395 -1.3783
  174SAPI   C3619787   5.107   6.797   9.863 -0.1810  0.4910 -0.4624
  174SAPI   H6X19788   5.113   6.907   9.854  2.6255  0.3839 -0.6874
  174SAPI   H6Y19789   4.998   6.776   9.873  0.0736 -0.1410  1.5445
  174SAPI   C3719790   5.158   6.758   9.723 -0.0093  1.1205  0.0518
  174SAPI   H7X19791   5.159   6.647   9.720  0.7851  1.1266 -0.0232
  174SAPI   H7Y19792   5.262   6.793   9.705  0.5626  0.1201  1.2326
  174SAPI   C3819793   5.062   6.810   9.617 -0.7462  0.3245  0.5484
  174SAPI   H8X19794   5.063   6.921   9.622 -2.9885  0.3513  1.7043
  174SAPI   H8Y19795   4.956   6.788   9.640 -0.8261  0.2241  0.0902
  174SAPI   C3919796   5.091   6.751   9.474  0.1045  0.4923  1.0355
  174SAPI   H9X19797   5.058   6.645   9.470 -0.8177  0.8267 -0.7995
  174SAPI   H9Y19798   5.200   6.763   9.458  0.4011  1.0799  3.1185
  174SAPI  C31019799   5.020   6.835   9.364  0.4236 -0.2986 -0.2064
  174SAPI  H10X19800   5.074   6.932   9.363  2.8939 -1.5834 -1.7310
  174SAPI  H10Y19801   4.910   6.848   9.375  0.4504 -1.4040  1.9822
  174SAPI  C31119802   5.043   6.774   9.224 -0.1261 -0.1623 -0.2434
  174SAPI  H11X19803   5.013   6.667   9.215 -0.2601 -0.0549 -1.1764
  174SAPI  H11Y19804   5.151   6.757   9.207 -0.4209  0.2172 -2.9409
  174SAPI  C31219805   4.972   6.852   9.115 -0.2444 -0.1339  1.0064
  174SAPI  H12X19806   5.003   6.959   9.124 -0.7681  0.2570 -1.2254
  174SAPI  H12Y19807   4.863   6.851   9.136 -0.7311  3.6397 -0.4282
  174SAPI  C31319808   5.005   6.809   8.974 -0.4985 -0.4146  0.2457
  174SAPI  H13X19809   5.015   6.699   8.964  0.4638 -0.3253  0.1507
  174SAPI  H13Y19810   5.109   6.841   8.952 -0.6690  0.6812  0.9546
  174SAPI  C31419811   4.923   6.876   8.860  0.0148 -0.5767 -0.2724
  174SAPI  H14X19812   4.961   6.876   8.756  0.0849 -0.3275 -0.2476
  174SAPI  H14Y19813   4.925   6.982   8.893  2.3806 -1.0628  1.4830
  174SAPI  C31519814   4.776   6.834   8.858  0.5756 -0.0824 -0.3415
  174SAPI  H15X19815   4.738   6.839   8.962  0.2327  1.0951 -0.5129
  174SAPI  H15Y19816   4.760   6.730   8.822 -0.2729  0.0209 -0.2762
  174SAPI  C31619817   4.681   6.916   8.770 -0.4889 -0.7950  0.1698
  174SAPI  H16X19818   4.686   7.018   8.813 -2.1047 -1.0139  0.9674
  174SAPI  H16Y19819   4.579   6.871   8.773 -1.2436  0.9150  2.1663
  174SAPI  C31719820   4.728   6.930   8.623 -0.1544  0.1281  0.0008
  174SAPI  H17X19821   4.763   6.828   8.596 -1.1360 -0.1243 -0.3430
  174SAPI  H17Y19822   4.813   7.002   8.627 -0.0146 -0.0768  0.8429
  174SAPI  C31819823   4.618   6.994   8.538 -0.9828 -0.4227 -0.1854
  174SAPI  H18X19824   4.662   7.055   8.457 -1.0805  0.3966  0.3729
  174SAPI  H18Y19825   4.570   7.067   8.606 -0.8431 -0.2934 -0.2266
  174SAPI  H18Z19826   4.535   6.924   8.514 -1.6445  0.6641 -1.1945
  175SAPI   C1219827   6.617   4.930   6.164 -0.2629 -0.1024 -0.0348
  175SAPI    H219828   6.663   4.859   6.237 -0.5165  2.1413  2.4458
  175SAPI    O219829   6.674   4.917   6.032 -0.0187  0.1955  0.7437
  175SAPI   HO219830   6.768   4.925   6.047  0.4823 -0.1672 -1.7764
  175SAPI   C1319831   6.466   4.893   6.164  0.1644 -0.4140 -0.1386
  175SAPI    H319832   6.428   4.901   6.268  2.9442  0.8440  0.8758
  175SAPI    O319833   6.458   4.758   6.124 -0.0712  0.6291 -0.0763
  175SAPI   HO319834   6.480   4.759   6.031  1.2184 -0.8697  0.1865
  175SAPI   C1419835   6.393   4.990   6.073 -0.1865 -0.0837 -0.0912
  175SAPI    H419836   6.444   4.983   5.975 -2.1191 -0.8221 -1.1121
  175SAPI    O419837   6.257   4.952   6.059  0.2714 -0.0621  0.2369
  175SAPI   HO419838   6.244   4.909   5.974 -0.0267  2.3476 -1.0038
  175SAPI   C1519839   6.407   5.135   6.120 -0.2670  0.0824  0.2789
  175SAPI    H519840   6.353   5.141   6.217 -2.2518  0.8835 -0.8360
  175SAPI    O519841   6.342   5.230   6.027  0.2750  0.1562 -0.1629
  175SAPI   HO519842   6.334   5.309   6.080  2.3705  0.4154 -0.1471
  175SAPI   C1619843   6.560   5.169   6.129  0.7629  0.3326 -0.5559
  175SAPI    H619844   6.601   5.176   6.026  1.5738  1.1954 -0.1796
  175SAPI    O619845   6.571   5.303   6.182  0.1017 -0.2819 -0.4861
  175SAPI   HO619846   6.532   5.307   6.269  0.1755  0.9515 -0.5022
  175SAPI   C1119847   6.635   5.075   6.210  0.1243  0.6233  0.1103
  175SAPI    H119848   6.600   5.084   6.316  1.8296  0.6410  0.7027
  175SAPI     P19849   6.900   5.045   6.297 -0.0121 -0.5649 -0.0133
  175SAPI   O1319850   7.027   5.042   6.225  0.0222  0.2886 -0.0063
  175SAPI   O1419851   6.851   4.921   6.358  0.2459 -0.2256 -0.4462
  175SAPI   O1219852   6.778   5.106   6.202 -0.2322  0.0724  0.3198
  175SAPI   O1119853   6.913   5.162   6.404 -0.0962 -0.0839  0.6141
  175SAPI    C119854   6.828   5.272   6.436 -0.7091  0.2790  0.0338
  175SAPI    HA19855   6.829   5.348   6.355 -2.6973 -0.4941 -0.7845
  175SAPI    HB19856   6.725   5.233   6.449 -0.2423 -1.3710 -0.9258
  175SAPI    C219857   6.868   5.345   6.567  0.2350 -0.1927 -0.0653
  175SAPI    HS19858   6.801   5.433   6.574  1.0277  0.3313  1.5773
  175SAPI   O2119859   7.009   5.370   6.576  0.3972 -0.4885 -0.4004
  175SAPI   C2119860   7.049   5.494   6.612  0.0567  0.3305  0.1026
  175SAPI   O2219861   6.971   5.586   6.614  0.4385  0.8886 -0.2589
  175SAPI   C2219862   7.194   5.504   6.638  0.1565  0.6572  0.0211
  175SAPI   H2R19863   7.229   5.399   6.649 -1.0962  0.3682  1.6702
  175SAPI   H2S19864   7.246   5.533   6.544 -2.0240  1.5532 -0.9819
  175SAPI    C319865   6.830   5.264   6.691 -0.6031  0.1392  0.2200
  175SAPI    HX19866   6.901   5.179   6.699  0.0905  0.8458  2.2353
  175SAPI    HY19867   6.731   5.220   6.668 -0.0075 -0.0999 -2.1647
  175SAPI   O3119868   6.812   5.340   6.812  0.1696 -0.7650 -0.0339
  175SAPI   C3119869   6.893   5.328   6.914  0.1984 -0.5480  0.8428
  175SAPI   O3219870   6.978   5.246   6.930 -0.3982 -0.0182 -0.9312
  175SAPI   C3219871   6.864   5.443   7.019  0.3794  0.5166 -0.5977
  175SAPI   H2X19872   6.769   5.492   6.989 -1.4867 -1.1935  2.0960
  175SAPI   H2Y19873   6.942   5.521   7.028 -0.9642  1.7519  0.9643
  175SAPI   C2319874   7.235   5.597   6.755  0.1083  0.4761 -0.6098
  175SAPI   H3R19875   7.143   5.603   6.817  0.7058  1.0189  0.2563
  175SAPI   H3S19876   7.260   5.702   6.729  1.3821  0.6982  1.2499
  175SAPI   C2419877   7.337   5.547   6.857 -0.0851  0.4546  0.0021
  175SAPI   H4R19878   7.363   5.633   6.923 -2.6651 -0.3680  2.2890
  175SAPI   H4S19879   7.423   5.525   6.791 -0.0836 -2.3958  0.8514
  175SAPI   C2519880   7.309   5.418   6.929  0.2573 -0.6198 -0.7377
  175SAPI   H5R19881   7.324   5.324   6.874  1.6012 -0.2221 -1.0906
  175SAPI   C2619882   7.279   5.410   7.060  0.9335 -0.3428  0.1592
  175SAPI   H6R19883   7.281   5.312   7.111  0.7895 -0.1968  0.4520
  175SAPI   C2719884   7.252   5.534   7.143 -0.3712 -0.0234 -0.3662
  175SAPI   H7R19885   7.164   5.531   7.210  2.3619 -1.9765  3.5388
  175SAPI   H7S19886   7.244   5.625   7.081 -0.0475 -0.2645 -0.7635
  175SAPI   C2819887   7.379   5.557   7.231  0.0712  0.7539  0.1621
  175SAPI   H8R19888   7.476   5.560   7.179 -0.6002 -1.5087 -1.3896
  175SAPI   C2919889   7.389   5.579   7.364 -0.5223  0.0876 -0.3825
  175SAPI   H9R19890   7.488   5.589   7.410 -1.5775  2.1657  1.6074
  175SAPI  C21019891   7.279   5.595   7.465  0.5913  0.5637 -0.4526
  175SAPI  H10R19892   7.227   5.497   7.464  1.1134  0.2514  0.7912
  175SAPI  H10S19893   7.207   5.675   7.434  1.7267  1.6109 -0.4571
  175SAPI  C21119894   7.309   5.630   7.611 -0.9821  0.1735 -0.1224
  175SAPI  H11R19895   7.244   5.709   7.651  0.4726  0.5248  1.7011
  175SAPI  C21219896   7.408   5.597   7.700  0.4832  0.3918 -0.3585
  175SAPI  H12R19897   7.404   5.638   7.802  2.0878  0.5831 -0.3497
  175SAPI  C21319898   7.526   5.504   7.679  0.5274  0.1700 -0.6260
  175SAPI  H13R19899   7.623   5.553   7.656  1.0966  0.3161  1.8672
  175SAPI  H13S19900   7.506   5.437   7.593 -1.3717 -0.8339  0.5222
  175SAPI  C21419901   7.542   5.423   7.799  1.0314 -0.3679  0.5304
  175SAPI  H14R19902   7.483   5.331   7.814  1.1105 -0.0748  3.1186
  175SAPI  C21519903   7.635   5.449   7.898  0.1716  0.6273  0.0405
  175SAPI  H15R19904   7.644   5.381   7.984  0.2054  1.1869  0.4873
  175SAPI  C21619905   7.733   5.562   7.905  0.2672 -0.4121  0.4172
  175SAPI  H16R19906   7.707   5.622   7.994 -1.7867  1.3723 -1.2799
  175SAPI  H16S19907   7.704   5.632   7.824 -0.8146 -1.0159  0.2557
  175SAPI  C21719908   7.875   5.518   7.916  0.5387  0.5486  0.4285
  175SAPI  H17R19909   7.888   5.454   8.005 -0.4127  1.3863  1.1885
  175SAPI  H17S19910   7.937   5.610   7.925 -1.2336  1.9067 -0.4351
  175SAPI  C21819911   7.922   5.429   7.799 -0.2349  0.4501 -0.0945
  175SAPI  H18R19912   7.842   5.354   7.779 -0.4629  1.2383 -2.4805
  175SAPI  H18S19913   8.020   5.379   7.813 -0.4205  0.4440  1.3901
  175SAPI  C21919914   7.921   5.515   7.670  0.6089 -0.2627 -0.4927
  175SAPI  H19R19915   7.961   5.614   7.700 -1.4981  0.1939  1.0087
  175SAPI  H19S19916   7.817   5.529   7.633 -0.1198 -2.8140  0.3964
  175SAPI  C22019917   8.008   5.471   7.556 -0.5180  0.0714  0.0401
  175SAPI  H20R19918   8.109   5.440   7.590 -0.5384 -0.9702 -0.8115
  175SAPI  H20S19919   8.012   5.546   7.474  0.8149 -1.0891 -0.9907
  175SAPI  H20T19920   7.967   5.382   7.505 -0.8036  0.9811 -1.3704
  175SAPI   C3319921   6.854   5.382   7.162  0.0357  0.0601  0.3053
  175SAPI   H3X19922   6.935   5.313   7.197  0.3476  0.7770  1.0375
  175SAPI   H3Y19923   6.762   5.320   7.169 -0.0955  0.3634  1.7085
  175SAPI   C3419924   6.847   5.484   7.274 -0.1218  0.1631 -0.0876
  175SAPI   H4X19925   6.768   5.560   7.252 -0.2421 -0.2231 -1.0270
  175SAPI   H4Y19926   6.946   5.532   7.288 -1.4956  3.0117  0.5610
  175SAPI   C3519927   6.797   5.431   7.411  1.4345  0.0378 -0.5353
  175SAPI   H5X19928   6.842   5.330   7.423  1.7684  0.2411 -0.0160
  175SAPI   H5Y19929   6.688   5.414   7.407  1.1064  1.3034  1.3969
  175SAPI   C3619930   6.832   5.529   7.523 -0.5652 -0.1824 -1.2406
  175SAPI   H6X19931   6.767   5.619   7.526  0.7386  0.7927 -0.0296
  175SAPI   H6Y19932   6.939   5.560   7.520 -0.1768 -1.1064  0.8658
  175SAPI   C3719933   6.818   5.467   7.662 -0.4640 -0.5905 -0.5238
  175SAPI   H7X19934   6.868   5.522   7.744  1.0853 -3.0683  0.2968
  175SAPI   H7Y19935   6.876   5.373   7.647  1.6652  0.7741 -1.3597
  175SAPI   C3819936   6.669   5.451   7.712 -0.5257 -0.7048 -0.8243
  175SAPI   H8X19937   6.616   5.367   7.661 -0.6389 -2.9287  2.6190
  175SAPI   H8Y19938   6.609   5.541   7.688 -1.1970 -0.6270  0.9476
  175SAPI   C3919939   6.661   5.405   7.865 -0.1243 -0.9059  0.3398
  175SAPI   H9X19940   6.691   5.485   7.936  0.9156 -0.8774 -0.1099
  175SAPI   H9Y19941   6.730   5.318   7.872  2.1835  0.8354  0.2465
  175SAPI  C31019942   6.517   5.373   7.896  0.1008 -0.6668  0.3820
  175SAPI  H10X19943   6.486   5.303   7.815 -0.8242  1.6455 -1.3645
  175SAPI  H10Y19944   6.464   5.470   7.901  2.4936  0.8882 -1.7844
  175SAPI  C31119945   6.484   5.294   8.030  0.5547  0.2616  0.1424
  175SAPI  H11X19946   6.528   5.346   8.118 -2.4112  0.3627  1.6929
  175SAPI  H11Y19947   6.512   5.188   8.014 -1.7500 -0.3149 -0.5079
  175SAPI  C31219948   6.334   5.285   8.054 -0.3276  0.1441  0.5113
  175SAPI  H12X19949   6.311   5.204   8.126 -0.3536  0.2684  0.6421
  175SAPI  H12Y19950   6.281   5.249   7.963  0.2110 -3.1150  1.3536
  175SAPI  C31319951   6.286   5.426   8.114  0.1174  0.7744 -0.3822
  175SAPI  H13X19952   6.295   5.507   8.038  0.5375  0.8612 -0.2411
  175SAPI  H13Y19953   6.360   5.444   8.194  1.0686 -0.7194 -0.9001
  175SAPI  C31419954   6.143   5.418   8.163  0.2035  0.9227 -0.4575
  175SAPI  H14X19955   6.129   5.329   8.228 -1.5511  1.7526  0.3702
  175SAPI  H14Y19956   6.072   5.400   8.079 -1.4398  0.4704  0.9708
  175SAPI  C31519957   6.090   5.545   8.231  0.2555 -0.0487  0.0886
  175SAPI  H15X19958   6.099   5.623   8.153  1.7066  0.3067  0.5646
  175SAPI  H15Y19959   6.149   5.584   8.317  1.0908 -0.4258 -0.2987
  175SAPI  C31619960   5.947   5.538   8.278  0.1124 -0.0325  0.1418
  175SAPI  H16X19961   5.921   5.595   8.370 -0.0380  1.2657 -0.6765
  175SAPI  H16Y19962   5.923   5.438   8.320  0.7624 -0.3980 -0.3428
  175SAPI  C31719963   5.846   5.557   8.164 -0.3184 -0.2111  0.6177
  175SAPI  H17X19964   5.758   5.520   8.219 -1.6238 -1.5841 -2.2066
  175SAPI  H17Y19965   5.871   5.491   8.078 -0.7821  1.2078 -0.6646
  175SAPI  C31819966   5.840   5.705   8.111  0.6134  0.0747 -0.0990
  175SAPI  H18X19967   5.815   5.772   8.195 -2.6743  0.6127 -1.3640
  175SAPI  H18Y19968   5.766   5.715   8.029  0.4772 -1.9512 -0.2773
  175SAPI  H18Z19969   5.933   5.729   8.054 -0.4667 -0.1245 -2.0357
  176SAPI   C1219970   4.738   4.218   6.374  0.1980 -0.2720 -0.0844
  176SAPI    H219971   4.671   4.247   6.290 -0.4714 -1.6170 -0.0432
  176SAPI    O219972   4.655   4.195   6.487  0.0050  0.2623  0.5833
  176SAPI   HO219973   4.582   4.140   6.457  0.0298  0.3844  0.3013
  176SAPI   C1319974   4.812   4.098   6.338  0.0664  0.1006  0.2490
  176SAPI    H319975   4.871   4.128   6.249 -1.1227  1.1629 -0.2119
  176SAPI    O319976   4.726   3.993   6.288  0.1351  0.4649  0.1402
  176SAPI   HO319977   4.681   3.957   6.365 -1.2361  1.2326 -0.2543
  176SAPI   C1419978   4.908   4.046   6.440  0.0264 -0.2745  0.8631
  176SAPI    H419979   4.838   4.013   6.519 -0.9960 -1.7047 -0.5655
  176SAPI    O419980   4.964   3.920   6.397 -0.3614  0.0915 -0.1225
  176SAPI   HO419981   4.901   3.850   6.414  2.3621 -3.0439 -1.7067
  176SAPI   C1519982   5.002   4.150   6.496 -0.3398 -0.1248 -0.0383
  176SAPI    H519983   5.078   4.177   6.419 -2.2060  2.0314 -1.2286
  176SAPI    O519984   5.072   4.100   6.610 -0.3183 -0.3811 -0.4561
  176SAPI   HO519985   5.128   4.168   6.648  3.0271 -1.6975 -2.4849
  176SAPI   C1619986   4.925   4.280   6.531 -0.1046 -0.2875  0.0352
  176SAPI    H619987   4.860   4.257   6.618 -0.8582 -1.0858 -0.7133
  176SAPI    O619988   5.006   4.388   6.574 -0.0455 -0.1037  0.3249
  176SAPI   HO619989   5.041   4.413   6.488  1.3669 -0.2272  0.8368
  176SAPI   C1119990   4.837   4.326   6.410  0.1120 -0.0418  0.0106
  176SAPI    H119991   4.896   4.340   6.317 -2.6138 -0.9206 -2.0042
  176SAPI     P19992   4.708   4.551   6.320 -0.2316 -0.3676  0.5193
  176SAPI   O1319993   4.561   4.558   6.331  0.4358 -0.5761 -0.0137
  176SAPI   O1419994   4.762   4.520   6.183  0.0658  0.4977 -0.0766
  176SAPI   O1219995   4.756   4.438   6.436 -0.2527 -0.8571 -0.0890
  176SAPI   O1119996   4.767   4.692   6.368 -0.1861  0.1930  0.1734
  176SAPI    C119997   4.822   4.722   6.498  0.1951  0.1649 -0.6184
  176SAPI    HA19998   4.901   4.648   6.525  0.2444  0.1355 -0.8436
  176SAPI    HB19999   4.853   4.828   6.512  2.4798 -0.7113  2.1279
  176SAPI    C220000   4.715   4.706   6.604 -0.2819  0.3480  0.1640
  176SAPI    HS20001   4.677   4.602   6.598  1.9067 -0.4194 -1.8774
  176SAPI   O2120002   4.608   4.801   6.573 -0.3463  0.2160 -0.7215
  176SAPI   C2120003   4.490   4.780   6.630  0.5530 -0.1169 -0.3736
  176SAPI   O2220004   4.457   4.677   6.692  0.5676  0.0052 -1.0555
  176SAPI   C2220005   4.399   4.896   6.622 -0.1398 -0.8086  0.8887
  176SAPI   H2R20006   4.458   4.989   6.638 -0.9449 -0.0736 -0.2481
  176SAPI   H2S20007   4.360   4.902   6.518  2.0620  0.2210  0.0543
  176SAPI    C320008   4.769   4.737   6.743 -0.4166  0.3566  0.0862
  176SAPI    HX20009   4.803   4.841   6.763  1.9164 -0.5888  1.4820
  176SAPI    HY20010   4.859   4.673   6.748 -0.6439  0.0077 -0.2259
  176SAPI   O3120011   4.674   4.716   6.850  0.2441  0.6767 -0.6294
  176SAPI   C3120012   4.655   4.587   6.892 -0.0184  1.1180  0.1329
  176SAPI   O3220013   4.698   4.492   6.834 -0.2254  0.3160  0.4466
  176SAPI   C3220014   4.554   4.581   7.008 -0.1900 -0.6184 -0.1025
  176SAPI   H2X20015   4.465   4.529   6.965  1.2211 -1.3327 -2.3294
  176SAPI   H2Y20016   4.526   4.685   7.034 -1.8780 -0.5030 -2.0921
  176SAPI   C2320017   4.292   4.902   6.734  0.3270  0.0315 -0.2218
  176SAPI   H3R20018   4.333   4.860   6.828  0.0096  0.8010  0.2624
  176SAPI   H3S20019   4.212   4.838   6.691 -2.5048  3.0921  0.1232
  176SAPI   C2420020   4.234   5.036   6.759 -0.2518  0.1166  0.5408
  176SAPI   H4R20021   4.193   5.079   6.665  0.1761 -1.6120 -0.4903
  176SAPI   H4S20022   4.310   5.113   6.783 -0.0664 -0.0443  0.4752
  176SAPI   C2520023   4.128   5.046   6.868  0.1002 -0.5283  0.4862
  176SAPI   H5R20024   4.035   4.989   6.851 -0.0252 -0.4482  0.8900
  176SAPI   C2620025   4.147   5.087   6.994 -0.2210 -0.0937  0.5872
  176SAPI   H6R20026   4.059   5.074   7.059 -0.1242 -1.3392  0.4888
  176SAPI   C2720027   4.282   5.126   7.053  0.4067  0.4262  0.9787
  176SAPI   H7R20028   4.357   5.149   6.974 -0.0589 -0.5496  0.2351
  176SAPI   H7S20029   4.335   5.037   7.091 -0.0233  0.2780  1.2370
  176SAPI   C2820030   4.275   5.234   7.151  0.6482  0.0607 -0.2506
  176SAPI   H8R20031   4.320   5.326   7.111  2.0878 -0.1039  0.9248
  176SAPI   C2920032   4.228   5.230   7.281  0.2319 -0.9799 -0.5290
  176SAPI   H9R20033   4.221   5.324   7.338  0.3287  0.0044 -2.0762
  176SAPI  C21020034   4.177   5.111   7.354 -0.1859  0.2202 -0.0067
  176SAPI  H10R20035   4.187   5.027   7.281  2.1391 -0.9607  1.5629
  176SAPI  H10S20036   4.071   5.139   7.372  0.4580  1.9541  1.3571
  176SAPI  C21120037   4.246   5.075   7.488  0.3807  0.2120  0.0187
  176SAPI  H11R20038   4.310   4.985   7.498  1.9029  1.5214  4.4020
  176SAPI  C21220039   4.236   5.145   7.599 -0.0368  0.5892 -0.9477
  176SAPI  H12R20040   4.299   5.112   7.684 -1.3782  2.0550  0.6895
  176SAPI  C21320041   4.161   5.275   7.621 -0.0888 -0.1181  0.1907
  176SAPI  H13R20042   4.089   5.253   7.703  0.7631 -0.3208  0.8968
  176SAPI  H13S20043   4.099   5.297   7.531  0.4652  2.7169  0.4023
  176SAPI  C21420044   4.245   5.402   7.650 -0.3265  0.3655  0.4157
  176SAPI  H14R20045   4.304   5.446   7.568 -2.6882  1.3580 -0.8622
  176SAPI  C21520046   4.256   5.462   7.770 -0.3028  0.2358 -0.8089
  176SAPI  H15R20047   4.325   5.548   7.767  0.5810 -0.4394 -0.4653
  176SAPI  C21620048   4.172   5.443   7.895 -0.2221 -0.2366 -0.0671
  176SAPI  H16R20049   4.066   5.418   7.873 -0.4273  0.4519  0.1153
  176SAPI  H16S20050   4.147   5.538   7.946 -5.1283 -0.7939 -0.9645
  176SAPI  C21720051   4.238   5.333   7.975  0.1932 -0.6683  0.1313
  176SAPI  H17R20052   4.342   5.361   8.005 -0.7397  1.3848  1.6942
  176SAPI  H17S20053   4.252   5.245   7.909 -0.0139 -0.8798  0.3731
  176SAPI  C21820054   4.156   5.285   8.102  0.6118 -0.3395 -0.3968
  176SAPI  H18R20055   4.218   5.217   8.165 -0.8369  0.0230  1.5275
  176SAPI  H18S20056   4.059   5.239   8.078 -0.2794  0.4193  1.4935
  176SAPI  C21920057   4.128   5.399   8.192  0.8410 -0.7708 -0.2567
  176SAPI  H19R20058   4.041   5.451   8.145  1.1165 -0.8793 -0.8933
  176SAPI  H19S20059   4.206   5.477   8.199 -0.1363  0.3258 -1.1316
  176SAPI  C22020060   4.104   5.365   8.345 -0.3513 -0.2356 -0.5593
  176SAPI  H20R20061   4.024   5.289   8.358 -1.4700  0.7788 -1.2271
  176SAPI  H20S20062   4.079   5.457   8.402  1.9677 -1.5261  2.8417
  176SAPI  H20T20063   4.199   5.323   8.384 -0.6318 -0.4928 -0.1515
  176SAPI   C3320064   4.603   4.504   7.127  0.1584 -0.0553 -0.2966
  176SAPI   H3X20065   4.688   4.439   7.097 -0.0185 -0.5642  0.3067
  176SAPI   H3Y20066   4.524   4.437   7.167  1.5086 -0.8476  1.1540
  176SAPI   C3420067   4.649   4.616   7.228 -0.5754  0.2824  0.3713
  176SAPI   H4X20068   4.690   4.703   7.173 -0.7648  1.0362  1.3861
  176SAPI   H4Y20069   4.734   4.565   7.278 -1.5334  2.2213  4.4580
  176SAPI   C3520070   4.534   4.647   7.329  0.4096 -0.4271 -0.0080
  176SAPI   H5X20071   4.485   4.553   7.362  0.7588 -0.8173 -0.5955
  176SAPI   H5Y20072   4.450   4.693   7.272  0.0167 -1.4335 -0.2550
  176SAPI   C3620073   4.585   4.722   7.455 -0.0367 -0.2579  0.7312
  176SAPI   H6X20074   4.648   4.813   7.441 -1.6698  1.0179  1.4223
  176SAPI   H6Y20075   4.666   4.664   7.504  1.2570 -0.0956 -1.0987
  176SAPI   C3720076   4.472   4.743   7.558 -0.6351  0.5651  0.0623
  176SAPI   H7X20077   4.432   4.640   7.576 -0.6514  0.8058  1.5538
  176SAPI   H7Y20078   4.393   4.809   7.518 -2.0297 -1.1732 -0.2118
  176SAPI   C3820079   4.534   4.798   7.692 -0.1094  0.2970  0.4943
  176SAPI   H8X20080   4.447   4.805   7.760 -0.5748 -2.9814  0.4170
  176SAPI   H8Y20081   4.577   4.899   7.680  1.6223 -0.3729  0.7122
  176SAPI   C3920082   4.643   4.716   7.770 -0.0868  0.5916  0.3993
  176SAPI   H9X20083   4.677   4.785   7.851  0.0594 -0.1640  0.9890
  176SAPI   H9Y20084   4.726   4.708   7.697 -1.3993 -2.5157 -0.9079
  176SAPI  C31020085   4.604   4.569   7.803 -0.1018 -0.1167  0.8837
  176SAPI  H10X20086   4.601   4.504   7.713  1.6834  2.3053 -1.0418
  176SAPI  H10Y20087   4.500   4.575   7.843 -1.4518  1.0796 -2.4741
  176SAPI  C31120088   4.697   4.522   7.908  0.1698  0.5507 -0.4647
  176SAPI  H11X20089   4.702   4.596   7.991 -1.2915  0.0145  0.1316
  176SAPI  H11Y20090   4.792   4.517   7.851  0.7875 -1.6795  0.6555
  176SAPI  C31220091   4.669   4.382   7.957 -0.2931  0.6113 -0.7014
  176SAPI  H12X20092   4.713   4.305   7.891 -1.4186 -1.9327  1.3063
  176SAPI  H12Y20093   4.562   4.367   7.984  0.3207 -0.4887  1.2942
  176SAPI  C31320094   4.757   4.373   8.083 -0.0961  0.0614 -0.3624
  176SAPI  H13X20095   4.741   4.443   8.168 -0.1055 -0.3572 -0.0146
  176SAPI  H13Y20096   4.864   4.387   8.055  0.1007 -0.6514  0.0021
  176SAPI  C31420097   4.750   4.232   8.135 -0.5297  0.0400 -0.7974
  176SAPI  H14X20098   4.768   4.153   8.060  0.6947  0.5368 -1.0609
  176SAPI  H14Y20099   4.644   4.226   8.166 -0.2654  1.2277  0.4509
  176SAPI  C31520100   4.841   4.214   8.261 -0.0360 -0.4316 -0.3966
  176SAPI  H15X20101   4.802   4.269   8.349 -1.3712  0.6511 -1.6138
  176SAPI  H15Y20102   4.938   4.258   8.230  0.0185  0.5362  1.0759
  176SAPI  C31620103   4.866   4.069   8.304 -0.0694  0.0184  0.3151
  176SAPI  H16X20104   4.921   4.080   8.401  0.2883  0.0971  0.1066
  176SAPI  H16Y20105   4.939   4.028   8.232 -0.3873 -1.6819  0.9123
  176SAPI  C31720106   4.738   3.990   8.333  0.0083 -0.8872 -0.2487
  176SAPI  H17X20107   4.668   3.990   8.247 -3.9028 -0.6925  2.6930
  176SAPI  H17Y20108   4.691   4.058   8.407  1.1975  1.0409 -1.1585
  176SAPI  C31820109   4.745   3.845   8.384  0.1557 -0.6820  1.0783
  176SAPI  H18X20110   4.639   3.816   8.403 -0.4571  0.6685 -0.0602
  176SAPI  H18Y20111   4.819   3.838   8.466  3.6918  1.3843 -1.6205
  176SAPI  H18Z20112   4.794   3.790   8.301  1.3436 -2.0672  2.6552
  177SLPC     N20113   5.219   2.000  10.981 -0.1075  0.1202 -0.3062
  177SLPC   C1320114   5.151   1.997  10.846  0.2610 -0.5331  0.0027
  177SLPC  H13A20115   5.219   1.977  10.764 -0.8859  3.7996 -2.2985
  177SLPC  H13B20116   5.069   1.927  10.852  0.1498 -0.3961  0.0658
  177SLPC  H13C20117   5.118   2.098  10.826  1.9323  0.0527  0.0141
  177SLPC   C1420118   5.124   2.064  11.074 -0.3630  0.0491  0.6934
  177SLPC  H14A20119   5.161   2.068  11.176 -1.7812 -0.0997  1.2497
  177SLPC  H14B20120   5.108   2.167  11.046 -2.2335 -0.1560  0.8355
  177SLPC  H14C20121   5.027   2.016  11.075 -0.5991  0.2721 -2.7164
  177SLPC   C1520122   5.341   2.088  10.960 -0.6998  0.4747 -0.3968
  177SLPC  H15A20123   5.418   2.042  10.899  0.7169  2.3755 -0.1539
  177SLPC  H15B20124   5.319   2.182  10.912  0.0481  0.5833 -0.5481
  177SLPC  H15C20125   5.383   2.100  11.059  0.2235  0.2074 -0.7450
  177SLPC   C1220126   5.248   1.864  11.035  0.4416  0.4551 -0.3852
  177SLPC  H12A20127   5.285   1.879  11.135 -0.9510  0.9584  0.0813
  177SLPC  H12B20128   5.324   1.836  10.964 -0.3657  3.9769 -2.9164
  177SLPC   C1120129   5.147   1.743  11.032 -0.2304 -0.1849  0.3226
  177SLPC  H11A20130   5.044   1.781  11.054 -0.4106 -0.6669  0.3347
  177SLPC  H11B20131   5.160   1.664  11.110  0.9759 -0.8771 -0.5449
  177SLPC     P20132   5.228   1.566  10.860 -0.3710 -0.0777  0.1259
  177SLPC   O1320133   5.363   1.603  10.899  0.0090 -0.3731  1.0025
  177SLPC   O1420134   5.183   1.435  10.913 -0.0825 -0.0148 -0.6730
  177SLPC   O1220135   5.129   1.687  10.904 -0.1429  0.8391  0.0907
  177SLPC   O1120136   5.211   1.564  10.704 -0.4541  0.7326  0.5631
  177SLPC    C120137   5.082   1.531  10.657 -0.6399  0.3383  0.7015
  177SLPC    HA20138   5.040   1.447  10.717  0.3129 -0.2920  0.5131
  177SLPC    HB20139   5.029   1.628  10.652  1.9265  1.8019 -0.0783
  177SLPC    C220140   5.104   1.464  10.517  0.0097  0.5283 -0.1644
  177SLPC    HS20141   5.171   1.378  10.539 -1.1931 -0.3015  0.3467
  177SLPC   O2120142   5.162   1.558  10.427 -0.0913 -0.2214  0.6546
  177SLPC   C2120143   5.286   1.532  10.397 -0.2901 -0.1054  0.3014
  177SLPC   O2220144   5.371   1.468  10.454  0.1178 -0.2484  0.5260
  177SLPC   C2220145   5.309   1.601  10.263 -0.4112 -0.0858 -0.4780
  177SLPC   H2R20146   5.229   1.568  10.193 -1.3551  0.7269  0.2012
  177SLPC   H2S20147   5.292   1.709  10.284  0.9175 -0.0957  0.8347
  177SLPC    C320148   4.968   1.411  10.463 -0.3708  0.3157 -0.8705
  177SLPC    HX20149   4.907   1.503  10.476  0.8622  1.7026 -3.8507
  177SLPC    HY20150   4.936   1.331  10.533  1.0970 -0.3153 -0.8958
  177SLPC   O3120151   4.987   1.360  10.329  0.0755 -0.3362  0.0092
  177SLPC   C3120152   4.929   1.425  10.234  0.0909 -0.4431 -0.2834
  177SLPC   O3220153   4.852   1.521  10.250 -0.2324  0.3024  0.2854
  177SLPC   C3220154   4.957   1.347  10.109  0.0742  0.4127  0.4643
  177SLPC   H2X20155   4.880   1.268  10.122 -2.1983  2.5763  1.1996
  177SLPC   H2Y20156   5.058   1.303  10.108 -0.4469 -0.8326 -1.1316
  177SLPC   C2320157   5.447   1.582  10.199 -0.7618 -0.1610  0.4289
  177SLPC   H3R20158   5.475   1.474  10.194  0.3086 -0.0437  2.5074
  177SLPC   H3S20159   5.520   1.631  10.268  0.4983 -1.9728  0.4591
  177SLPC   C2420160   5.464   1.639  10.063  0.1241  0.1377 -0.2768
  177SLPC   H4R20161   5.536   1.724  10.058  0.7381 -0.4464 -2.3173
  177SLPC   H4S20162   5.366   1.688  10.051  0.6236  1.8249  1.7981
  177SLPC   C2520163   5.490   1.547   9.947 -0.4595  0.0272  0.0720
  177SLPC   H5R20164   5.559   1.467   9.983 -1.5230  0.1525  2.5777
  177SLPC   H5S20165   5.534   1.605   9.864 -0.0706  0.1655  0.3672
  177SLPC   C2620166   5.357   1.481   9.905  0.2557  0.0999  0.6435
  177SLPC   H6R20167   5.287   1.566   9.896  0.1691  0.0485  0.8279
  177SLPC   H6S20168   5.321   1.423   9.993 -0.4369  2.8319  2.2778
  177SLPC   C2720169   5.366   1.420   9.763  0.2340 -0.4747  0.1362
  177SLPC   H7R20170   5.366   1.498   9.685  1.7041  2.1147  2.5636
  177SLPC   H7S20171   5.276   1.353   9.766 -0.6544  0.7378  1.8696
  177SLPC   C2820172   5.493   1.336   9.732  0.1248  0.4699  0.1934
  177SLPC   H8R20173   5.513   1.287   9.829 -0.5932 -1.3267 -0.5165
  177SLPC   H8S20174   5.575   1.405   9.703  0.0650  0.1793 -0.7089
  177SLPC   C2920175   5.455   1.234   9.628 -0.7689  0.0062  0.2251
  177SLPC   H9R20176   5.379   1.160   9.656  0.1610 -1.8346 -1.7797
  177SLPC  C21020177   5.495   1.219   9.495 -0.1359 -0.0111 -0.8864
  177SLPC  H10R20178   5.443   1.141   9.437 -2.1998 -0.7820  1.7503
  177SLPC  C21120179   5.586   1.321   9.424 -0.2091  0.2595 -0.7591
  177SLPC  H11R20180   5.528   1.348   9.333 -1.2525  1.9641  0.3482
  177SLPC  H11S20181   5.604   1.413   9.484  0.3281 -0.2880 -0.0721
  177SLPC  C21220182   5.719   1.261   9.397  0.5357 -0.1006 -0.3243
  177SLPC  H12R20183   5.803   1.251   9.467  2.2284  2.4323 -1.8240
  177SLPC  C21320184   5.752   1.201   9.275  0.4332  0.1881  0.1837
  177SLPC  H13R20185   5.843   1.141   9.267 -0.2738 -0.8999  0.0659
  177SLPC  C21420186   5.670   1.178   9.150  0.9173 -0.4884 -0.5458
  177SLPC  H14R20187   5.564   1.209   9.159  0.2890 -2.4338 -0.8043
  177SLPC  H14S20188   5.668   1.071   9.122 -1.1791 -1.0235  1.3578
  177SLPC  C21520189   5.736   1.254   9.029  0.0001 -0.0701 -0.1030
  177SLPC  H15R20190   5.844   1.227   9.029 -0.3063 -1.5645  1.9216
  177SLPC  H15S20191   5.730   1.362   9.054  0.6024  0.5240 -2.3545
  177SLPC  C21620192   5.675   1.228   8.891  0.2652 -0.0043  0.1452
  177SLPC  H16R20193   5.735   1.298   8.829  0.9635  0.0808  0.9051
  177SLPC  H16S20194   5.569   1.260   8.890  0.0500 -0.6416  1.1784
  177SLPC  C21720195   5.695   1.093   8.832  0.6941  0.7393  0.2858
  177SLPC  H17R20196   5.643   1.015   8.893 -1.1564  0.2534 -1.7577
  177SLPC  H17S20197   5.801   1.068   8.810  0.2553  0.3320 -1.6182
  177SLPC  C21820198   5.624   1.097   8.692  0.2067  0.2790 -0.6514
  177SLPC  H18R20199   5.690   1.171   8.642 -0.3336  1.0866 -0.1994
  177SLPC  H18S20200   5.522   1.140   8.687 -0.0882 -0.3115  0.1661
  177SLPC  H18T20201   5.635   0.996   8.647 -0.6429  1.2032 -3.0863
  177SLPC   C3320202   4.940   1.425   9.973  0.3236  0.1155  0.2813
  177SLPC   H3X20203   5.016   1.506   9.972 -0.6449  1.0502  0.3643
  177SLPC   H3Y20204   4.834   1.458   9.979 -0.2805 -1.2131 -1.7958
  177SLPC   C3420205   4.971   1.353   9.840  0.0576  0.1514  0.2744
  177SLPC   H4X20206   4.909   1.262   9.820 -1.7670  1.4964 -0.4843
  177SLPC   H4Y20207   5.074   1.311   9.837 -0.8812 -2.3107 -1.0029
  177SLPC   C3520208   4.937   1.441   9.725 -0.2661 -0.1777  0.0390
  177SLPC   H5X20209   4.982   1.541   9.745 -1.8263  0.5600  0.0066
  177SLPC   H5Y20210   4.828   1.462   9.719 -0.1747  0.1899 -0.3746
  177SLPC   C3620211   4.973   1.380   9.590 -0.8165 -0.8467 -0.6830
  177SLPC   H6X20212   4.916   1.286   9.572 -0.7009 -0.7585 -1.5613
  177SLPC   H6Y20213   5.083   1.366   9.580 -0.5169  0.8302 -0.0129
  177SLPC   C3720214   4.920   1.462   9.472  0.1977 -0.2440 -0.0238
  177SLPC   H7X20215   4.966   1.562   9.493 -1.8537  0.6221  0.6288
  177SLPC   H7Y20216   4.810   1.475   9.481 -0.2224 -3.2053  0.0389
  177SLPC   C3820217   4.959   1.397   9.339 -0.2698 -0.4845  0.9023
  177SLPC   H8X20218   4.907   1.299   9.338 -0.1392 -0.5649  1.5310
  177SLPC   H8Y20219   5.067   1.374   9.330  0.1013  1.1054  0.9177
  177SLPC   C3920220   4.919   1.481   9.217  0.4122  0.6823  0.8648
  177SLPC   H9X20221   4.984   1.570   9.201 -0.0400  1.0629  1.1137
  177SLPC   H9Y20222   4.810   1.506   9.219  0.3932  0.6148  0.6795
  177SLPC  C31020223   4.930   1.388   9.089 -0.5572 -0.5364  0.0364
  177SLPC  H10X20224   4.888   1.431   8.996  3.5852 -0.6024 -2.0766
  177SLPC  H10Y20225   4.874   1.297   9.120 -1.1783 -0.1440  0.0853
  177SLPC  C31120226   5.077   1.345   9.059  0.0862 -0.1528  0.7528
  177SLPC  H11X20227   5.124   1.285   9.140 -0.5758  0.2735  1.4781
  177SLPC  H11Y20228   5.142   1.434   9.046 -1.2922  0.8995  0.8527
  177SLPC  C31220229   5.093   1.261   8.929 -0.3099  0.0624  0.2845
  177SLPC  H12X20230   5.006   1.192   8.920  2.4350 -3.9169  1.3822
  177SLPC  H12Y20231   5.187   1.202   8.935 -1.5723 -2.1459 -0.5372
  177SLPC  C31320232   5.104   1.340   8.804  0.0306  0.5553  0.0481
  177SLPC  H13X20233   5.178   1.422   8.815 -0.2853  0.7208  1.1108
  177SLPC  H13Y20234   5.006   1.382   8.773 -1.4918 -0.9903  2.4163
  177SLPC  C31420235   5.159   1.252   8.686  0.2204 -0.2043  0.1456
  177SLPC  H14X20236   5.086   1.168   8.676  1.2477 -1.3560  1.7376
  177SLPC  H14Y20237   5.256   1.218   8.728  0.1076 -0.7673 -0.0417
  177SLPC  C31520238   5.180   1.337   8.561 -0.8603 -0.3505 -0.7322
  177SLPC  H15X20239   5.089   1.393   8.531 -0.3962  1.2556  0.7485
  177SLPC  H15Y20240   5.214   1.269   8.480 -0.1854 -1.0585  0.1215
  177SLPC  C31620241   5.282   1.444   8.580 -0.4302  0.0565  0.3146
  177SLPC  H16X20242   5.247   1.521   8.653 -3.8534  0.6153 -1.7077
  177SLPC  H16Y20243   5.296   1.513   8.494  3.3567  0.5981  1.2002
  177SLPC  C31720244   5.418   1.395   8.625  0.1417  0.0393 -0.7162
  177SLPC  H17X20245   5.463   1.332   8.546 -0.5365 -1.1748 -0.1632
  177SLPC  H17Y20246   5.415   1.340   8.722 -0.5318  0.6936 -0.3491
  177SLPC  C31820247   5.514   1.507   8.652  0.0093 -0.2049  0.6951
  177SLPC  H18X20248   5.459   1.556   8.735 -1.5312 -0.3287 -0.2270
  177SLPC  H18Y20249   5.531   1.583   8.573 -1.0982 -0.9878 -0.3201
  177SLPC  H18Z20250   5.608   1.464   8.693  0.5683  0.0217 -0.3106
  178SLPC     N20251   1.357   0.593  11.202  0.2082  0.7328  0.2704
  178SLPC   C1320252   1.461   0.619  11.099 -0.4191 -0.1734 -0.2912
  178SLPC  H13A20253   1.483   0.530  11.043  1.1236 -0.8479  1.2874
  178SLPC  H13B20254   1.437   0.701  11.032  1.0680 -0.5370 -1.3295
  178SLPC  H13C20255   1.555   0.632  11.150 -0.9729 -0.2672  0.7732
  178SLPC   C1420256   1.234   0.566  11.124  0.4728  0.0829 -0.7531
  178SLPC  H14A20257   1.199   0.662  11.087 -0.4832  0.2816  0.5920
  178SLPC  H14B20258   1.261   0.497  11.046  1.8772 -0.8283  0.4901
  178SLPC  H14C20259   1.154   0.522  11.181  0.7064  3.1239  2.2437
  178SLPC   C1520260   1.340   0.713  11.283 -0.2246 -0.7200  0.7384
  178SLPC  H15A20261   1.431   0.753  11.325  1.0862 -3.1858  0.4323
  178SLPC  H15B20262   1.288   0.796  11.237  0.8909 -0.5080 -0.2029
  178SLPC  H15C20263   1.269   0.690  11.360 -1.7434 -2.7251 -1.1496
  178SLPC   C1220264   1.391   0.474  11.288  0.0487 -0.2734 -0.4017
  178SLPC  H12A20265   1.317   0.458  11.365 -1.9120 -0.6787 -2.2510
  178SLPC  H12B20266   1.485   0.504  11.331  0.1654  1.1767 -1.5839
  178SLPC   C1120267   1.402   0.332  11.222  0.3750  0.0207  0.3176
  178SLPC  H11A20268   1.301   0.315  11.179  1.5422 -2.8103 -1.6028
  178SLPC  H11B20269   1.410   0.257  11.303  0.9671 -1.6375 -1.1989
  178SLPC     P20270   1.541   0.178  11.061 -0.2340 -0.0946  0.0055
  178SLPC   O1320271   1.641   0.208  10.953 -0.5773 -0.0392 -0.2330
  178SLPC   O1420272   1.585   0.082  11.168 -0.7428  0.0160 -0.2803
  178SLPC   O1220273   1.505   0.317  11.129  0.1095  0.3438 -0.4427
  178SLPC   O1120274   1.402   0.136  10.993 -0.6217 -0.5307  0.3860
  178SLPC    C120275   1.336   0.213  10.894  0.9186 -0.7835 -0.0028
  178SLPC    HA20276   1.230   0.178  10.898  0.6128  0.2669  3.0260
  178SLPC    HB20277   1.330   0.320  10.921  0.9363 -1.0910  1.2528
  178SLPC    C220278   1.389   0.186  10.750 -0.0367  0.3578 -0.4747
  178SLPC    HS20279   1.495   0.220  10.747 -0.3147  1.2483 -0.4588
  178SLPC   O2120280   1.306   0.257  10.656  0.4287  0.3095 -0.4623
  178SLPC   C2120281   1.312   0.387  10.650 -0.4603  0.0095 -0.3753
  178SLPC   O2220282   1.379   0.463  10.718 -0.1126 -0.1617  0.1697
  178SLPC   C2220283   1.225   0.444  10.528  0.1454  0.0279 -0.3007
  178SLPC   H2R20284   1.153   0.366  10.494 -0.0199 -0.3871  0.9371
  178SLPC   H2S20285   1.159   0.514  10.585  0.4759 -1.4218  2.0268
  178SLPC    C320286   1.379   0.037  10.716  0.0793 -0.1690  0.1347
  178SLPC    HX20287   1.278  -0.000  10.743 -0.5149  1.2410 -0.0688
  178SLPC    HY20288   1.450  -0.021  10.779  2.3025  0.6285 -1.5134
  178SLPC   O3120289   1.406   0.012  10.577  0.3388 -0.2623 -0.3592
  178SLPC   C3120290   1.308  -0.019  10.491  0.7176 -0.1763 -0.2488
  178SLPC   O3220291   1.190  -0.028  10.517  0.3882 -0.4976 -0.0946
  178SLPC   C3220292   1.362  -0.035  10.353 -0.1432  0.4543 -0.0177
  178SLPC   H2X20293   1.398  -0.140  10.343  3.0354  1.5091 -1.0074
  178SLPC   H2Y20294   1.454   0.024  10.331 -0.9176  1.1733 -1.5180
  178SLPC   C2320295   1.298   0.511  10.416 -0.4206  0.0942  0.6293
  178SLPC   H3R20296   1.383   0.573  10.451 -1.3399  1.2279  0.9402
  178SLPC   H3S20297   1.224   0.575  10.363 -0.2824  1.5398  2.1132
  178SLPC   C2420298   1.363   0.412  10.316  0.4488 -0.2128 -0.0251
  178SLPC   H4R20299   1.297   0.324  10.301  1.0011 -0.3521 -1.9990
  178SLPC   H4S20300   1.451   0.368  10.368 -0.2946 -1.2519  0.3798
  178SLPC   C2520301   1.398   0.464  10.176  0.4397 -0.1943  0.1084
  178SLPC   H5R20302   1.442   0.565  10.186  2.3686 -0.5662 -3.1183
  178SLPC   H5S20303   1.303   0.485  10.123  0.9034  0.4298 -0.4848
  178SLPC   C2620304   1.489   0.366  10.097  0.7535 -0.0501  0.3056
  178SLPC   H6R20305   1.437   0.269  10.086  0.7467  0.0670 -0.7416
  178SLPC   H6S20306   1.579   0.332  10.154  2.2289 -0.9240 -2.3391
  178SLPC   C2720307   1.530   0.427   9.958 -0.4206  0.7876 -0.0066
  178SLPC   H7R20308   1.574   0.527   9.980  1.5847 -0.5412  2.6728
  178SLPC   H7S20309   1.443   0.445   9.891  0.8015  4.3571 -0.8789
  178SLPC   C2820310   1.643   0.346   9.889  0.8536  0.2541  0.1241
  178SLPC   H8R20311   1.615   0.238   9.892 -0.3933  0.5464 -0.4813
  178SLPC   H8S20312   1.739   0.368   9.940  0.8395  1.1413 -0.2159
  178SLPC   C2920313   1.667   0.390   9.745  1.0019  0.4212  0.2023
  178SLPC   H9R20314   1.737   0.474   9.732  1.1203  0.0251 -2.0816
  178SLPC  C21020315   1.598   0.346   9.642 -0.0787 -0.2526 -0.3465
  178SLPC  H10R20316   1.613   0.394   9.544 -0.3489  0.1540 -0.1937
  178SLPC  C21120317   1.482   0.245   9.631 -0.4315 -0.1870 -0.5020
  178SLPC  H11R20318   1.474   0.197   9.731  0.2997  2.7424  1.0844
  178SLPC  H11S20319   1.502   0.162   9.560 -3.5674 -2.2390  0.8247
  178SLPC  C21220320   1.352   0.307   9.581 -0.4567  0.6701  0.4291
  178SLPC  H12R20321   1.288   0.340   9.664  0.2608 -2.5331  2.4452
  178SLPC  C21320322   1.313   0.326   9.453 -0.2114  0.5010 -0.4391
  178SLPC  H13R20323   1.208   0.355   9.440 -0.4979 -0.8784 -1.3824
  178SLPC  C21420324   1.401   0.289   9.333 -0.7014 -0.1732  0.1269
  178SLPC  H14R20325   1.474   0.210   9.361  0.2217 -0.0836 -1.8436
  178SLPC  H14S20326   1.465   0.379   9.314 -2.6070  0.9610 -1.2556
  178SLPC  C21520327   1.329   0.247   9.205 -0.2468 -0.0652 -0.0814
  178SLPC  H15R20328   1.247   0.320   9.189 -1.2081 -0.3034  3.1136
  178SLPC  H15S20329   1.276   0.150   9.217 -1.2773  0.4450 -0.4132
  178SLPC  C21620330   1.424   0.233   9.087  0.3126  0.5586 -0.0537
  178SLPC  H16R20331   1.495   0.159   9.129 -0.8497  0.4773  1.9229
  178SLPC  H16S20332   1.479   0.328   9.075 -2.4149  2.1193 -1.0989
  178SLPC  C21720333   1.364   0.166   8.964 -0.3701  0.0198  0.9703
  178SLPC  H17R20334   1.318   0.075   9.007  1.6351 -1.3941  0.3145
  178SLPC  H17S20335   1.443   0.134   8.891  0.0391 -1.1051  1.8801
  178SLPC  C21820336   1.264   0.264   8.902  0.6555 -0.2956  0.1569
  178SLPC  H18R20337   1.173   0.279   8.964 -0.5942  1.2126 -1.8842
  178SLPC  H18S20338   1.207   0.233   8.812 -1.9085  0.4060  1.4195
  178SLPC  H18T20339   1.321   0.357   8.881 -0.5231  0.4664  0.2511
  178SLPC   C3320340   1.266  -0.013  10.244  0.2418  0.2476 -0.4737
  178SLPC   H3X20341   1.227   0.091  10.247 -1.8667 -0.5291  0.9369
  178SLPC   H3Y20342   1.184  -0.087  10.233  1.7012 -1.5977  0.4425
  178SLPC   C3420343   1.333  -0.038  10.110  0.1993  0.4442  0.2249
  178SLPC   H4X20344   1.352  -0.147  10.106  0.4271  0.3976  2.0113
  178SLPC   H4Y20345   1.420   0.024  10.083  0.1201  0.1321 -0.8013
  178SLPC   C3520346   1.243  -0.004   9.984  0.0218  0.4196  0.3547
  178SLPC   H5X20347   1.241   0.107   9.978  2.5436  0.5958  1.2722
  178SLPC   H5Y20348   1.142  -0.045  10.004  0.2256 -0.4926 -0.3785
  178SLPC   C3620349   1.310  -0.059   9.863 -0.2501 -0.9610 -0.0673
  178SLPC   H6X20350   1.341  -0.165   9.875 -0.5422 -0.8735  1.7564
  178SLPC   H6Y20351   1.401   0.004   9.854 -0.6087 -0.1763  1.4601
  178SLPC   C3720352   1.240  -0.051   9.735  0.0325  0.6803  0.3056
  178SLPC   H7X20353   1.213   0.056   9.724 -1.1416  0.5870  1.8968
  178SLPC   H7Y20354   1.147  -0.111   9.732  0.3077  0.3020 -1.5757
  178SLPC   C3820355   1.328  -0.094   9.624  0.6177  0.4321  0.3432
  178SLPC   H8X20356   1.358  -0.197   9.652 -1.9229 -0.4511  0.1229
  178SLPC   H8Y20357   1.426  -0.043   9.613  0.9867 -0.3198  0.0990
  178SLPC   C3920358   1.252  -0.106   9.491  0.3796  0.5428 -0.5770
  178SLPC   H9X20359   1.236  -0.008   9.442  2.6226  1.1012 -0.3059
  178SLPC   H9Y20360   1.148  -0.141   9.511 -0.0591  2.6851  1.3630
  178SLPC  C31020361   1.321  -0.207   9.392  0.2993 -0.4353 -0.0589
  178SLPC  H10X20362   1.330  -0.311   9.431  2.8657 -0.4498 -0.5135
  178SLPC  H10Y20363   1.427  -0.179   9.372  0.2970 -1.9199 -2.6658
  178SLPC  C31120364   1.249  -0.216   9.263 -0.3269 -0.2075 -0.7598
  178SLPC  H11X20365   1.250  -0.118   9.211  1.7811  0.0905 -0.2397
  178SLPC  H11Y20366   1.143  -0.242   9.288  0.2681 -1.1849  0.9706
  178SLPC  C31220367   1.311  -0.331   9.165  0.7259  0.7582  0.0073
  178SLPC  H12X20368   1.337  -0.423   9.223  3.7102  0.8154 -1.0618
  178SLPC  H12Y20369   1.407  -0.294   9.123 -0.0651  1.1995 -1.4486
  178SLPC  C31320370   1.216  -0.366   9.055  0.4947  0.1696  0.7040
  178SLPC  H13X20371   1.125  -0.395   9.110  0.4142 -1.8938 -0.4171
  178SLPC  H13Y20372   1.256  -0.456   9.003  0.0339 -0.4466  1.4118
  178SLPC  C31420373   1.193  -0.265   8.955 -0.1159 -0.1987  0.4876
  178SLPC  H14X20374   1.172  -0.166   9.000  0.0189 -0.2734  0.7135
  178SLPC  H14Y20375   1.101  -0.286   8.896 -0.4422  1.0019  0.5582
  178SLPC  C31520376   1.314  -0.250   8.860 -0.5046  0.7123 -0.5367
  178SLPC  H15X20377   1.416  -0.232   8.902 -0.0432  0.7754 -1.6673
  178SLPC  H15Y20378   1.304  -0.346   8.805  1.4813 -0.1234  0.4315
  178SLPC  C31620379   1.292  -0.133   8.762 -0.6551  0.2740 -0.1712
  178SLPC  H16X20380   1.280  -0.037   8.816 -0.1659  0.6066 -0.6465
  178SLPC  H16Y20381   1.202  -0.158   8.701 -0.5818  0.6028 -0.4138
  178SLPC  C31720382   1.415  -0.122   8.667 -0.2036 -0.4574 -0.0116
  178SLPC  H17X20383   1.446  -0.220   8.626 -1.0654 -0.4947 -0.5837
  178SLPC  H17Y20384   1.506  -0.087   8.721  0.2940 -0.7290 -0.6564
  178SLPC  C31820385   1.395  -0.019   8.554  0.3073  0.8163  0.0234
  178SLPC  H18X20386   1.482  -0.008   8.486  0.3770  1.9168  0.2706
  178SLPC  H18Y20387   1.385   0.086   8.589 -2.3785  0.7582 -0.3607
  178SLPC  H18Z20388   1.300  -0.042   8.500  0.5129 -2.1784  0.7520
  179SLPC     N20389   2.954   6.662  11.042  0.0201  0.5041  0.2993
  179SLPC   C1320390   3.060   6.581  11.116  0.5923 -0.1961 -1.0767
  179SLPC  H13A20391   3.099   6.632  11.203 -0.7694  1.7297 -1.5539
  179SLPC  H13B20392   3.010   6.495  11.157  0.6275  0.4419  0.3658
  179SLPC  H13C20393   3.135   6.551  11.045  0.6881 -0.5986 -0.8124
  179SLPC   C1420394   3.033   6.780  10.982 -0.4262  0.0915 -1.0456
  179SLPC  H14A20395   3.119   6.742  10.929  0.4435  0.1360  0.2742
  179SLPC  H14B20396   2.981   6.833  10.904  0.2549 -0.0053 -1.5831
  179SLPC  H14C20397   3.073   6.849  11.055 -0.6426 -0.4956 -0.3546
  179SLPC   C1520398   2.856   6.722  11.130 -0.0491 -0.0761 -0.5842
  179SLPC  H15A20399   2.896   6.783  11.210 -0.2263 -2.0307  1.0777
  179SLPC  H15B20400   2.798   6.797  11.078 -1.8850  0.2097  1.7152
  179SLPC  H15C20401   2.785   6.650  11.168  0.2713 -1.9546 -3.3019
  179SLPC   C1220402   2.887   6.583  10.925 -0.7979 -0.5447  0.3928
  179SLPC  H12A20403   2.816   6.650  10.878  2.4859  2.2859 -1.0970
  179SLPC  H12B20404   2.828   6.507  10.972 -0.8859  0.6181  2.2288
  179SLPC   C1120405   2.983   6.533  10.811  0.3813  0.4522 -0.0265
  179SLPC  H11A20406   2.916   6.494  10.732 -0.2520 -0.1491  0.7922
  179SLPC  H11B20407   3.049   6.449  10.841  4.3756  2.9492 -1.0272
  179SLPC     P20408   3.022   6.730  10.631 -0.1357 -0.0391 -0.2344
  179SLPC   O1320409   2.893   6.782  10.674 -0.6908  0.7386  0.2342
  179SLPC   O1420410   3.127   6.829  10.604 -0.0783 -0.8023 -0.0496
  179SLPC   O1220411   3.065   6.633  10.751  0.3566  0.2796 -0.3016
  179SLPC   O1120412   2.997   6.630  10.519  0.4535 -0.0235  0.4240
  179SLPC    C120413   3.088   6.524  10.477  0.0458  0.5528  0.8116
  179SLPC    HA20414   3.144   6.475  10.560 -2.5333 -1.5338  1.4402
  179SLPC    HB20415   3.039   6.443  10.420  0.4536 -0.5037  1.9169
  179SLPC    C220416   3.191   6.589  10.374  0.3542  0.5119  0.4757
  179SLPC    HS20417   3.255   6.661  10.429 -0.3552  0.1576  1.8136
  179SLPC   O2120418   3.105   6.651  10.277 -0.2069 -0.7743  0.2572
  179SLPC   C2120419   3.157   6.752  10.205  0.4593  0.1530 -0.1658
  179SLPC   O2220420   3.254   6.816  10.243 -0.3358 -0.4497  0.6339
  179SLPC   C2220421   3.060   6.789  10.095  0.2361  0.0364  0.9971
  179SLPC   H2R20422   3.035   6.705  10.027  0.0992 -0.3123  1.4775
  179SLPC   H2S20423   2.969   6.828  10.146  1.5315  3.1872  1.1209
  179SLPC    C320424   3.287   6.478  10.316 -0.0665 -0.3689  0.7571
  179SLPC    HX20425   3.211   6.408  10.277  0.2643  0.6827 -1.9790
  179SLPC    HY20426   3.340   6.426  10.399  0.9169  0.5914  0.7557
  179SLPC   O3120427   3.365   6.508  10.197 -0.2428  0.8637  0.0113
  179SLPC   C3120428   3.487   6.547  10.234  0.5038  0.0270 -0.0468
  179SLPC   O3220429   3.520   6.590  10.342 -0.0815 -0.1356  0.4814
  179SLPC   C3220430   3.580   6.529  10.116  0.1453 -0.2194  0.0361
  179SLPC   H2X20431   3.514   6.520  10.027 -0.3423 -1.8226  0.5332
  179SLPC   H2Y20432   3.617   6.428  10.141  1.5303  0.3094  0.1731
  179SLPC   C2320433   3.131   6.900  10.002  0.4187 -0.1440  0.2839
  179SLPC   H3R20434   3.154   6.987  10.068  1.9587 -0.6873  0.5048
  179SLPC   H3S20435   3.057   6.941   9.929  0.4357  0.4071  0.5664
  179SLPC   C2420436   3.251   6.857   9.916  0.4857  0.0761  0.4915
  179SLPC   H4R20437   3.220   6.757   9.877  1.4980 -0.7309  1.7062
  179SLPC   H4S20438   3.336   6.833   9.983 -1.7952  0.1705  3.6263
  179SLPC   C2520439   3.282   6.958   9.804  0.2780 -0.2010  0.4289
  179SLPC   H5R20440   3.377   6.926   9.758 -0.7418 -2.3805 -0.2682
  179SLPC   H5S20441   3.301   7.063   9.835  0.7083 -0.5581  1.4075
  179SLPC   C2620442   3.176   6.979   9.692 -0.1397  0.1819  0.4017
  179SLPC   H6R20443   3.078   7.007   9.736 -0.4032 -1.3659  0.8888
  179SLPC   H6S20444   3.158   6.880   9.645 -1.7066 -0.3112  1.9157
  179SLPC   C2720445   3.195   7.092   9.595  0.5545  0.9248  0.0601
  179SLPC   H7R20446   3.204   7.192   9.642  2.0725  2.3840 -3.0094
  179SLPC   H7S20447   3.113   7.090   9.520 -0.2333 -0.8104  0.9105
  179SLPC   C2820448   3.323   7.069   9.504 -0.1233  0.2305 -0.0753
  179SLPC   H8R20449   3.309   6.977   9.444  2.4161  1.0451 -2.0768
  179SLPC   H8S20450   3.417   7.067   9.563 -0.0194 -0.3016 -0.2523
  179SLPC   C2920451   3.360   7.185   9.412  0.4156  0.4049 -0.0342
  179SLPC   H9R20452   3.384   7.275   9.470 -1.7019 -0.3524  2.1729
  179SLPC  C21020453   3.366   7.186   9.279  0.4090  0.5070 -0.2153
  179SLPC  H10R20454   3.403   7.280   9.234 -0.3033  0.8547 -0.0849
  179SLPC  C21120455   3.327   7.082   9.183 -0.4605  0.3555 -0.3243
  179SLPC  H11R20456   3.216   7.092   9.180 -0.3215  3.1482  0.7037
  179SLPC  H11S20457   3.352   6.987   9.234 -1.0459  0.4783  0.2183
  179SLPC  C21220458   3.390   7.106   9.048 -0.1025  0.3116 -0.2284
  179SLPC  H12R20459   3.496   7.080   9.035 -0.7592 -2.1051 -1.4170
  179SLPC  C21320460   3.319   7.162   8.954 -0.2848 -0.0862  0.5614
  179SLPC  H13R20461   3.354   7.185   8.852 -0.1786  0.9785  0.8258
  179SLPC  C21420462   3.175   7.203   8.958 -0.3957  0.0024  0.2812
  179SLPC  H14R20463   3.167   7.296   8.899  0.1507  0.4093  0.8415
  179SLPC  H14S20464   3.143   7.245   9.055 -0.2439 -1.0252  0.7930
  179SLPC  C21520465   3.085   7.088   8.912 -0.4669 -0.6188 -0.3761
  179SLPC  H15R20466   3.128   6.997   8.960  1.0964  0.8752  1.2218
  179SLPC  H15S20467   3.090   7.095   8.802 -0.0775 -0.1979 -0.3361
  179SLPC  C21620468   2.935   7.116   8.950 -0.2809 -0.3971  0.0980
  179SLPC  H16R20469   2.931   7.136   9.059 -0.7270  0.6971 -0.1076
  179SLPC  H16S20470   2.886   7.020   8.921  0.7037 -0.6515 -0.7829
  179SLPC  C21720471   2.845   7.210   8.862  0.3832  0.3564 -0.5595
  179SLPC  H17R20472   2.857   7.190   8.754 -0.3455 -0.0045 -0.5769
  179SLPC  H17S20473   2.875   7.316   8.881  0.6482  0.2064 -0.1224
  179SLPC  C21820474   2.694   7.201   8.896  1.6780  0.3447  0.2988
  179SLPC  H18R20475   2.670   7.230   9.001 -0.4830 -0.8617  0.2036
  179SLPC  H18S20476   2.650   7.099   8.890 -0.5671  1.2197  0.8775
  179SLPC  H18T20477   2.645   7.274   8.828  1.1845 -0.7935 -0.6017
  179SLPC   C3320478   3.682   6.643  10.103  0.0844  0.4687  0.3691
  179SLPC   H3X20479   3.777   6.585  10.106 -0.7910 -0.9906  1.4936
  179SLPC   H3Y20480   3.680   6.697  10.200 -2.5486  0.7391  0.2497
  179SLPC   C3420481   3.674   6.751   9.998  0.7437 -0.0373 -0.2022
  179SLPC   H4X20482   3.745   6.835  10.015  1.3039  0.1884 -3.1330
  179SLPC   H4Y20483   3.580   6.810  10.005  1.7717  1.5852  0.7803
  179SLPC   C3520484   3.696   6.695   9.862  0.3792  0.8637 -0.1815
  179SLPC   H5X20485   3.619   6.615   9.847  0.1421  0.7758  1.3536
  179SLPC   H5Y20486   3.799   6.654   9.858  0.5430  1.0900  1.3404
  179SLPC   C3620487   3.666   6.786   9.750  0.1673 -0.3508  0.3474
  179SLPC   H6X20488   3.723   6.879   9.770  0.3877 -0.0977 -1.3146
  179SLPC   H6Y20489   3.557   6.808   9.747 -0.2787 -0.9592  4.7017
  179SLPC   C3720490   3.702   6.728   9.608  0.2446 -0.3157 -0.0046
  179SLPC   H7X20491   3.669   6.623   9.600  1.5131 -0.8095  0.9551
  179SLPC   H7Y20492   3.812   6.731   9.590  0.1738 -0.8804 -0.5579
  179SLPC   C3820493   3.648   6.804   9.489 -0.0301  0.0922  0.5194
  179SLPC   H8X20494   3.669   6.912   9.503  1.5943  0.0145 -0.9779
  179SLPC   H8Y20495   3.538   6.796   9.479  0.2140 -1.5664 -1.5579
  179SLPC   C3920496   3.696   6.751   9.349  0.1346 -0.6464 -0.4864
  179SLPC   H9X20497   3.648   6.651   9.341 -1.4579  0.1604 -1.5353
  179SLPC   H9Y20498   3.807   6.748   9.341  0.0943  0.7955 -2.6510
  179SLPC  C31020499   3.645   6.837   9.238 -0.5828 -0.3844 -0.5666
  179SLPC  H10X20500   3.719   6.919   9.233  0.4839 -1.2072  0.8188
  179SLPC  H10Y20501   3.544   6.880   9.254 -0.5686  0.8143 -3.2204
  179SLPC  C31120502   3.646   6.768   9.102  0.0604  0.6997  0.7068
  179SLPC  H11X20503   3.605   6.840   9.028 -1.7248 -2.2250 -1.3554
  179SLPC  H11Y20504   3.578   6.681   9.095 -1.0725  1.6672 -0.7218
  179SLPC  C31220505   3.790   6.734   9.053  0.7677  0.1796 -0.4027
  179SLPC  H12X20506   3.833   6.654   9.117  2.0336  1.2449  0.1086
  179SLPC  H12Y20507   3.856   6.822   9.062 -2.0952  2.8855 -3.3128
  179SLPC  C31320508   3.799   6.677   8.907  0.5443 -0.2510  0.2107
  179SLPC  H13X20509   3.905   6.643   8.896  0.5306 -0.4501  0.6684
  179SLPC  H13Y20510   3.781   6.759   8.835  1.3304  0.4118  0.7568
  179SLPC  C31420511   3.710   6.548   8.892 -0.0815  0.7090  0.4633
  179SLPC  H14X20512   3.605   6.585   8.894  0.1939  1.4568  1.4273
  179SLPC  H14Y20513   3.718   6.492   8.987  0.6405  1.7558  1.0380
  179SLPC  C31520514   3.738   6.448   8.778  0.7326  0.2932 -0.9806
  179SLPC  H15X20515   3.666   6.364   8.772 -0.4902  1.2346 -0.1634
  179SLPC  H15Y20516   3.840   6.408   8.792  1.1848  0.8777 -2.4613
  179SLPC  C31620517   3.715   6.514   8.642 -0.0769 -0.6612 -0.1370
  179SLPC  H16X20518   3.795   6.585   8.611 -2.3152  0.6715 -3.5215
  179SLPC  H16Y20519   3.617   6.566   8.632  0.1982  0.1166  0.9624
  179SLPC  C31720520   3.716   6.404   8.540 -0.2820 -0.0835 -0.4176
  179SLPC  H17X20521   3.622   6.347   8.546 -0.2749  0.0062  0.5797
  179SLPC  H17Y20522   3.803   6.338   8.560  0.3617  0.4145 -1.4443
  179SLPC  C31820523   3.738   6.455   8.401 -0.3888  0.1737 -0.2707
  179SLPC  H18X20524   3.761   6.380   8.323 -1.1345 -0.2349 -0.1091
  179SLPC  H18Y20525   3.818   6.530   8.412 -0.2121 -0.1141  0.5100
  179SLPC  H18Z20526   3.649   6.515   8.373  0.0463  2.1036  2.0868
  180SLPC     N20527   1.424   4.759  10.788 -0.3789 -0.5894  0.1980
  180SLPC   C1320528   1.432   4.892  10.712  0.3849 -0.0517 -0.1490
  180SLPC  H13A20529   1.414   4.879  10.606 -1.3476 -1.2965  0.2514
  180SLPC  H13B20530   1.368   4.973  10.745  1.4018  1.3817 -1.5280
  180SLPC  H13C20531   1.532   4.932  10.709  0.2062  0.4876  0.6860
  180SLPC   C1420532   1.422   4.783  10.933  0.3132  0.1898 -0.1115
  180SLPC  H14A20533   1.347   4.858  10.956 -3.1716 -2.8793 -0.4986
  180SLPC  H14B20534   1.397   4.690  10.983  0.2837  0.1194 -0.2577
  180SLPC  H14C20535   1.515   4.815  10.977  1.0119 -0.6350 -0.9423
  180SLPC   C1520536   1.538   4.673  10.743  0.1080  0.4807 -0.9947
  180SLPC  H15A20537   1.547   4.684  10.636 -0.4037 -2.9914 -1.5099
  180SLPC  H15B20538   1.635   4.692  10.785 -0.4507 -0.6772  0.9171
  180SLPC  H15C20539   1.505   4.572  10.760 -2.5049  1.4671  0.4252
  180SLPC   C1220540   1.296   4.682  10.762  0.2561  0.3482 -0.0070
  180SLPC  H12A20541   1.210   4.730  10.806 -1.0275 -2.5637  0.8900
  180SLPC  H12B20542   1.292   4.593  10.823 -1.3137  1.5375  1.7302
  180SLPC   C1120543   1.242   4.667  10.618  0.4039  0.3843  0.0333
  180SLPC  H11A20544   1.160   4.593  10.628 -0.0902  1.2425  3.0610
  180SLPC  H11B20545   1.321   4.608  10.566  0.2890 -0.1004  0.3993
  180SLPC     P20546   1.072   4.866  10.582  0.1639  0.1921 -0.3471
  180SLPC   O1320547   0.994   4.783  10.685 -0.0745 -0.1998  0.5334
  180SLPC   O1420548   1.103   5.009  10.613  0.3374  0.0006  0.2560
  180SLPC   O1220549   1.211   4.786  10.548 -0.0466  0.1072 -0.3642
  180SLPC   O1120550   0.985   4.857  10.456 -0.0105 -0.0251 -0.1120
  180SLPC    C120551   0.987   4.753  10.368  0.4587  0.1558 -0.0012
  180SLPC    HA20552   1.090   4.716  10.348 -0.0401 -0.4415 -1.6315
  180SLPC    HB20553   0.927   4.671  10.411 -3.0483  2.7851  0.5783
  180SLPC    C220554   0.899   4.781  10.236 -0.3076 -0.4405 -0.5370
  180SLPC    HS20555   0.919   4.684  10.186  2.8799 -1.4191  2.2695
  180SLPC   O2120556   0.937   4.906  10.177  0.3319 -0.1931 -0.0962
  180SLPC   C2120557   1.037   4.904  10.103 -0.2620  0.6206  0.4349
  180SLPC   O2220558   1.086   4.802  10.058 -0.0593 -0.0972  0.3340
  180SLPC   C2220559   1.098   5.046  10.071  0.7271  0.7027 -0.5318
  180SLPC   H2R20560   1.016   5.121  10.072  1.5115  1.5821 -0.8154
  180SLPC   H2S20561   1.164   5.077  10.154 -0.2996 -1.0601  1.0191
  180SLPC    C320562   0.744   4.786  10.268 -0.3661  0.2011  0.0248
  180SLPC    HX20563   0.734   4.838  10.365 -0.8918  0.1071  0.0204
  180SLPC    HY20564   0.707   4.683  10.290  1.3947 -0.3153  0.7694
  180SLPC   O3120565   0.655   4.843  10.171 -0.3570  0.2404 -0.2034
  180SLPC   C3120566   0.604   4.960  10.204  0.2823 -0.3672 -0.0006
  180SLPC   O3220567   0.614   5.021  10.309 -0.3767 -0.4103 -0.5433
  180SLPC   C3220568   0.528   5.023  10.085  0.1501 -0.4529  0.1032
  180SLPC   H2X20569   0.445   5.070  10.142  1.6935  1.3262  1.0193
  180SLPC   H2Y20570   0.492   4.945  10.016  2.4953 -0.9005 -0.6965
  180SLPC   C2320571   1.169   5.048   9.936 -0.1609 -0.3905 -0.1534
  180SLPC   H3R20572   1.228   4.958   9.910 -2.2458 -1.4955 -1.3963
  180SLPC   H3S20573   1.240   5.133   9.945 -0.5105 -0.2262  1.2667
  180SLPC   C2420574   1.072   5.069   9.821  0.2946 -0.1857  0.2392
  180SLPC   H4R20575   1.008   5.156   9.845 -0.7655 -1.3259  1.7304
  180SLPC   H4S20576   1.009   4.977   9.814 -1.7203  1.1502  0.0111
  180SLPC   C2520577   1.131   5.083   9.683 -0.4163  0.6363  0.2103
  180SLPC   H5R20578   1.168   4.978   9.674 -1.5659  0.1975  0.3515
  180SLPC   H5S20579   1.219   5.150   9.695  0.9099 -0.9223 -0.3035
  180SLPC   C2620580   1.042   5.138   9.567  0.2394 -0.0533  0.5438
  180SLPC   H6R20581   1.102   5.146   9.474  1.2465 -0.2217  1.1663
  180SLPC   H6S20582   1.002   5.240   9.587 -0.6136  0.7365 -4.0192
  180SLPC   C2720583   0.919   5.043   9.534 -0.1381  0.5769  0.5853
  180SLPC   H7R20584   0.847   5.027   9.617 -3.3565 -1.5570 -2.3094
  180SLPC   H7S20585   0.947   4.939   9.507 -2.3688 -0.6138  2.5634
  180SLPC   C2820586   0.834   5.101   9.417 -0.6045 -0.4142  0.5751
  180SLPC   H8R20587   0.906   5.110   9.333 -0.8877 -0.9826  0.2629
  180SLPC   H8S20588   0.795   5.201   9.446 -2.3909 -1.5680  2.4070
  180SLPC   C2920589   0.722   5.025   9.365  0.3870 -0.3603  0.7363
  180SLPC   H9R20590   0.740   4.961   9.277 -1.2253 -1.5317  1.2189
  180SLPC  C21020591   0.595   5.027   9.411 -0.1459 -0.6859 -0.1525
  180SLPC  H10R20592   0.523   4.958   9.364 -0.3432 -0.3330 -0.3828
  180SLPC  C21120593   0.542   5.113   9.530  0.0265  0.0925  0.2499
  180SLPC  H11R20594   0.613   5.188   9.572 -1.5361  0.9471  1.4358
  180SLPC  H11S20595   0.522   5.039   9.611 -1.3514 -0.7357 -0.8076
  180SLPC  C21220596   0.414   5.182   9.496  0.1432 -0.3201 -0.1330
  180SLPC  H12R20597   0.321   5.143   9.538 -1.3031  0.9175 -1.9894
  180SLPC  C21320598   0.394   5.299   9.437 -0.6099  0.2685  0.1215
  180SLPC  H13R20599   0.288   5.324   9.425 -1.4715 -2.1333  1.9023
  180SLPC  C21420600   0.490   5.386   9.373 -0.0771 -0.9514  0.7866
  180SLPC  H14R20601   0.537   5.339   9.285  1.4808  1.5057  0.1935
  180SLPC  H14S20602   0.571   5.403   9.448 -0.7653 -2.5783  1.9439
  180SLPC  C21520603   0.434   5.514   9.319 -0.1030 -0.6696  0.3234
  180SLPC  H15R20604   0.519   5.576   9.284 -0.0207 -1.5231 -1.0761
  180SLPC  H15S20605   0.382   5.579   9.393 -1.0214 -0.1721 -0.7251
  180SLPC  C21620606   0.357   5.503   9.190  0.0398  0.6951 -0.3714
  180SLPC  H16R20607   0.257   5.458   9.209  1.4021 -2.6579 -0.5201
  180SLPC  H16S20608   0.407   5.437   9.116  1.0622 -2.2700  2.7007
  180SLPC  C21720609   0.333   5.643   9.126  0.0907 -0.2318  0.5826
  180SLPC  H17R20610   0.426   5.700   9.106 -1.0941  1.4996 -0.2971
  180SLPC  H17S20611   0.263   5.700   9.191 -1.7512 -1.9967  0.2600
  180SLPC  C21820612   0.263   5.627   8.991  0.3573  0.1197 -0.1177
  180SLPC  H18R20613   0.156   5.608   9.015  0.6212  1.3578  2.2894
  180SLPC  H18S20614   0.307   5.543   8.933  1.7888  1.4439 -0.9942
  180SLPC  H18T20615   0.276   5.712   8.921 -0.6118  1.1828  0.9547
  180SLPC   C3320616   0.605   5.137  10.009 -0.2310  0.2516 -0.9509
  180SLPC   H3X20617   0.707   5.095   9.990 -0.7417 -3.5424  2.9827
  180SLPC   H3Y20618   0.620   5.222  10.079  1.9625 -0.7294 -0.1252
  180SLPC   C3420619   0.528   5.187   9.886 -0.2272  0.3019 -0.0637
  180SLPC   H4X20620   0.468   5.113   9.828 -0.1988  0.7357 -0.6608
  180SLPC   H4Y20621   0.603   5.232   9.818  0.7333 -0.1909  0.6623
  180SLPC   C3520622   0.414   5.284   9.922 -0.0883 -0.0823  0.1985
  180SLPC   H5X20623   0.442   5.372   9.985 -1.3913 -0.6672  1.6780
  180SLPC   H5Y20624   0.332   5.226   9.971 -1.4663  1.4157 -0.2352
  180SLPC   C3620625   0.343   5.350   9.802  0.4918  0.4636  0.0365
  180SLPC   H6X20626   0.295   5.268   9.743  2.8180 -1.1345  0.2419
  180SLPC   H6Y20627   0.422   5.394   9.738  1.5678 -1.6330 -0.1617
  180SLPC   C3720628   0.229   5.450   9.828  0.9855  0.1614 -0.6686
  180SLPC   H7X20629   0.261   5.511   9.915 -1.4814 -0.7135  0.9584
  180SLPC   H7Y20630   0.141   5.386   9.853  1.1120 -0.1412 -0.9797
  180SLPC   C3820631   0.200   5.539   9.709  0.3795  0.0702  0.4972
  180SLPC   H8X20632   0.182   5.474   9.620  1.8242  2.5762 -1.7701
  180SLPC   H8Y20633   0.280   5.605   9.670  0.1886 -1.3987 -2.7146
  180SLPC   C3920634   0.071   5.623   9.725  0.0515 -0.8410 -0.3976
  180SLPC   H9X20635   0.096   5.710   9.790  2.6746 -0.1301 -2.1824
  180SLPC   H9Y20636  -0.003   5.561   9.780 -0.2176  1.4535  2.0680
  180SLPC  C31020637   0.001   5.657   9.589 -0.1270  0.2291 -0.0687
  180SLPC  H10X20638  -0.019   5.553   9.556  0.9689 -0.7960  2.2558
  180SLPC  H10Y20639   0.052   5.720   9.513 -1.6681  0.5110 -0.9261
  180SLPC  C31120640  -0.140   5.724   9.605  0.4103 -0.8329 -0.0505
  180SLPC  H11X20641  -0.123   5.826   9.645 -0.4851 -0.5238 -0.4415
  180SLPC  H11Y20642  -0.205   5.670   9.676  1.3042 -2.9977 -0.7580
  180SLPC  C31220643  -0.221   5.744   9.474  0.0733  0.1846  0.3738
  180SLPC  H12X20644  -0.164   5.811   9.407 -0.9826  2.0864  1.2885
  180SLPC  H12Y20645  -0.323   5.781   9.498 -0.6379 -2.0112  0.9276
  180SLPC  C31320646  -0.243   5.611   9.394 -0.4576  0.4641 -0.0301
  180SLPC  H13X20647  -0.342   5.618   9.344 -0.8768 -0.3900  0.6593
  180SLPC  H13Y20648  -0.254   5.523   9.460  0.0915 -0.1601 -0.7579
  180SLPC  C31420649  -0.138   5.577   9.285  0.0410  0.2733  0.0748
  180SLPC  H14X20650  -0.038   5.563   9.330  0.7603  1.8323 -0.9286
  180SLPC  H14Y20651  -0.120   5.672   9.230 -0.9075  0.5245  0.1761
  180SLPC  C31520652  -0.184   5.462   9.184  0.4552 -0.6177  0.0710
  180SLPC  H15X20653  -0.272   5.495   9.125  0.8028 -1.1913 -0.7781
  180SLPC  H15Y20654  -0.222   5.383   9.252 -0.1289 -0.2095  0.2303
  180SLPC  C31620655  -0.086   5.411   9.080 -0.7937 -0.0765 -0.1836
  180SLPC  H16X20656  -0.010   5.348   9.131 -0.0491 -0.7481 -2.0346
  180SLPC  H16Y20657  -0.040   5.502   9.035 -0.0269 -0.2567  0.2134
  180SLPC  C31720658  -0.163   5.325   8.976 -0.2636  0.1216 -0.1178
  180SLPC  H17X20659  -0.221   5.383   8.901  0.1604 -0.3416 -0.8135
  180SLPC  H17Y20660  -0.242   5.270   9.030 -1.4338 -1.3775 -3.1532
  180SLPC  C31820661  -0.075   5.228   8.906 -0.2076 -0.1651  0.0748
  180SLPC  H18X20662  -0.127   5.174   8.825  1.9871 -1.7100 -0.4085
  180SLPC  H18Y20663  -0.042   5.151   8.979 -0.6140  1.7327  2.3931
  180SLPC  H18Z20664   0.014   5.276   8.861  0.2672 -1.3291 -0.2609
  181SLPC     N20665   5.278   0.896  11.231 -0.1712 -0.0369 -0.4760
  181SLPC   C1320666   5.284   1.034  11.290 -0.1231  0.1412 -0.4159
  181SLPC  H13A20667   5.291   1.114  11.218 -0.1041  1.7660  1.3040
  181SLPC  H13B20668   5.199   1.066  11.349  0.1807  1.3787 -0.6126
  181SLPC  H13C20669   5.363   1.050  11.363 -1.0377 -2.4213  1.2954
  181SLPC   C1420670   5.155   0.892  11.155  0.3175 -0.0346 -0.5715
  181SLPC  H14A20671   5.139   0.974  11.086  0.7816  0.7553  0.2351
  181SLPC  H14B20672   5.160   0.798  11.103  0.2310 -0.2161 -0.2530
  181SLPC  H14C20673   5.070   0.891  11.222  1.1050 -0.5718  0.4291
  181SLPC   C1520674   5.293   0.789  11.330  0.5516 -0.2085 -0.5172
  181SLPC  H15A20675   5.393   0.780  11.369 -0.7580 -0.3307  3.1750
  181SLPC  H15B20676   5.244   0.812  11.423  0.0441 -0.7693 -0.6402
  181SLPC  H15C20677   5.264   0.688  11.304  0.9544 -0.5036  0.1473
  181SLPC   C1220678   5.390   0.873  11.127  0.2058  0.1120 -0.5668
  181SLPC  H12A20679   5.390   0.954  11.056  0.8348  0.9181  0.3292
  181SLPC  H12B20680   5.370   0.776  11.084 -1.8680  0.0906  0.3422
  181SLPC   C1120681   5.537   0.875  11.166 -0.0551 -0.2737  0.1384
  181SLPC  H11A20682   5.603   0.823  11.093  0.5079  0.0204  0.4355
  181SLPC  H11B20683   5.544   0.817  11.261 -0.1558  1.5225  1.2882
  181SLPC     P20684   5.586   1.129  11.092 -0.1166 -0.3005  0.1470
  181SLPC   O1320685   5.444   1.168  11.067 -0.4005  0.7229 -0.9002
  181SLPC   O1420686   5.685   1.229  11.141  0.3612  0.0147 -0.3507
  181SLPC   O1220687   5.584   1.008  11.188 -0.4514  0.5427  0.4521
  181SLPC   O1120688   5.626   1.073  10.946  0.0106 -0.2929  0.4269
  181SLPC    C120689   5.747   1.003  10.947 -0.0462 -0.5979 -0.3272
  181SLPC    HA20690   5.785   0.985  11.050 -1.0350  2.3808  0.6799
  181SLPC    HB20691   5.732   0.907  10.893 -0.5019 -0.3397 -0.6773
  181SLPC    C220692   5.859   1.090  10.885  0.7336  0.3290 -0.5939
  181SLPC    HS20693   5.866   1.176  10.956  0.8647 -0.5809  0.5236
  181SLPC   O2120694   5.817   1.124  10.753 -0.4154  0.1064 -0.1772
  181SLPC   C2120695   5.858   1.239  10.701 -0.2374  0.6324 -0.4360
  181SLPC   O2220696   5.910   1.327  10.768 -0.3726  0.4986  0.2435
  181SLPC   C2220697   5.852   1.240  10.548  0.0022  0.3587  0.1326
  181SLPC   H2R20698   5.925   1.161  10.521  2.1768  0.7177  4.2216
  181SLPC   H2S20699   5.747   1.217  10.517 -0.4487  2.3060  0.0916
  181SLPC    C320700   5.995   1.018  10.888 -0.1576  0.6383 -0.5713
  181SLPC    HX20701   6.014   0.996  10.995 -0.5133 -1.3370 -0.8669
  181SLPC    HY20702   6.078   1.090  10.870 -0.5972  1.4222  0.4419
  181SLPC   O3120703   5.993   0.893  10.811  0.4426  0.4921 -0.3429
  181SLPC   C3120704   6.053   0.902  10.693  0.2595  0.0412 -0.0791
  181SLPC   O3220705   6.121   0.993  10.649  0.5724 -0.2798 -0.5599
  181SLPC   C3220706   6.028   0.769  10.623 -0.3593  0.0556  0.4434
  181SLPC   H2X20707   5.919   0.755  10.606 -0.1606 -1.0098 -0.0139
  181SLPC   H2Y20708   6.057   0.692  10.698  0.1343 -0.4352 -0.2409
  181SLPC   C2320709   5.888   1.379  10.495  0.2878  0.2853  0.9645
  181SLPC   H3R20710   5.936   1.355  10.398 -0.4882 -0.8642  0.8505
  181SLPC   H3S20711   5.963   1.434  10.556 -0.5845  2.8910 -0.1769
  181SLPC   C2420712   5.760   1.466  10.463 -0.5146  0.2684 -0.3959
  181SLPC   H4R20713   5.703   1.467  10.558  1.0667 -0.4532  0.6105
  181SLPC   H4S20714   5.696   1.408  10.393 -0.7386 -0.8635  0.7123
  181SLPC   C2520715   5.782   1.594  10.396 -0.4768  0.6408 -0.3011
  181SLPC   H5R20716   5.862   1.656  10.443 -0.2131  0.4207 -0.4584
  181SLPC   H5S20717   5.680   1.637  10.396 -0.9655 -0.4792 -1.0360
  181SLPC   C2620718   5.827   1.582  10.248  0.4850  0.2140  0.2508
  181SLPC   H6R20719   5.762   1.509  10.196 -2.4963  3.0516 -0.3577
  181SLPC   H6S20720   5.932   1.546  10.244  0.1887 -0.8756  1.6620
  181SLPC   C2720721   5.818   1.724  10.176 -0.2515 -0.6447 -0.5040
  181SLPC   H7R20722   5.868   1.804  10.236  0.5220 -0.6345 -1.1447
  181SLPC   H7S20723   5.710   1.750  10.173 -0.1992 -0.3692 -0.1525
  181SLPC   C2820724   5.871   1.731  10.034  0.0418  0.2098 -0.6961
  181SLPC   H8R20725   5.840   1.826   9.985 -0.5870 -0.2413 -1.2043
  181SLPC   H8S20726   5.824   1.654   9.969 -2.3893  0.0079  1.1199
  181SLPC   C2920727   6.023   1.712  10.033  0.3249  0.4137  0.1536
  181SLPC   H9R20728   6.070   1.731  10.130  1.0507  1.6575 -0.4092
  181SLPC  C21020729   6.088   1.674   9.924 -0.6622 -0.0671  0.3342
  181SLPC  H10R20730   6.196   1.653   9.932 -0.8726 -0.5118  2.7328
  181SLPC  C21120731   6.033   1.652   9.788  0.7508  0.3618 -0.1647
  181SLPC  H11R20732   6.062   1.738   9.724  2.1377 -0.8916 -1.2811
  181SLPC  H11S20733   5.922   1.642   9.794  0.9457 -1.9654  1.1062
  181SLPC  C21220734   6.087   1.525   9.725  0.5064 -0.4823 -0.3210
  181SLPC  H12R20735   6.192   1.522   9.694 -0.0144  0.4490 -2.3580
  181SLPC  C21320736   6.021   1.410   9.704  0.7635  0.5217  0.3142
  181SLPC  H13R20737   6.060   1.321   9.652  3.5774 -1.3015  4.8930
  181SLPC  C21420738   5.869   1.394   9.742 -0.2746  0.8129  0.0144
  181SLPC  H14R20739   5.813   1.347   9.659  1.0621  1.0714 -1.0590
  181SLPC  H14S20740   5.819   1.489   9.772  0.4401  0.9040  0.9842
  181SLPC  C21520741   5.853   1.297   9.863 -0.1314 -0.3635 -1.0100
  181SLPC  H15R20742   5.758   1.325   9.914  1.2755  0.9645  1.0828
  181SLPC  H15S20743   5.931   1.319   9.940  0.7137 -3.3722 -0.8434
  181SLPC  C21620744   5.870   1.153   9.834  0.3479  0.2644 -0.3867
  181SLPC  H16R20745   5.975   1.139   9.801  0.0629 -1.4914 -0.6776
  181SLPC  H16S20746   5.807   1.140   9.743 -2.9669  1.0835  1.6107
  181SLPC  C21720747   5.840   1.060   9.947  0.2028 -0.3536 -0.2533
  181SLPC  H17R20748   5.909   1.079  10.032  2.2688 -1.0324 -1.6888
  181SLPC  H17S20749   5.858   0.955   9.917  1.0277 -1.0921  2.5383
  181SLPC  C21820750   5.693   1.068   9.990 -0.1646  0.0624 -0.8970
  181SLPC  H18R20751   5.642   1.006   9.913  0.6780 -2.2529  0.3245
  181SLPC  H18S20752   5.647   1.170   9.993  0.4930  0.4203  3.6357
  181SLPC  H18T20753   5.676   1.027  10.091  0.3132 -0.7100 -1.1279
  181SLPC   C3320754   6.105   0.760  10.487 -0.1439 -0.3886  0.1863
  181SLPC   H3X20755   6.213   0.754  10.509  0.0528 -0.5344 -0.7642
  181SLPC   H3Y20756   6.084   0.848  10.423  1.2658 -2.0446 -2.7837
  181SLPC   C3420757   6.076   0.622  10.416 -0.0095  0.3367  0.6500
  181SLPC   H4X20758   5.970   0.604  10.387  0.3233 -0.1002 -0.3386
  181SLPC   H4Y20759   6.107   0.542  10.486  1.5700 -0.4586 -0.8943
  181SLPC   C3520760   6.161   0.610  10.293 -0.1624  0.1457 -0.1337
  181SLPC   H5X20761   6.167   0.503  10.265 -1.0627 -0.1220  0.6550
  181SLPC   H5Y20762   6.265   0.642  10.313  0.3481 -1.6769  0.2534
  181SLPC   C3620763   6.110   0.681  10.173 -0.6960 -0.0177  0.9282
  181SLPC   H6X20764   6.092   0.787  10.200  1.0513  0.8569 -1.0673
  181SLPC   H6Y20765   6.014   0.630  10.149 -0.8270  0.2785  0.8227
  181SLPC   C3720766   6.207   0.673  10.058 -0.2728  0.2457 -0.0048
  181SLPC   H7X20767   6.231   0.567  10.031 -0.0919  0.4835 -0.8105
  181SLPC   H7Y20768   6.309   0.715  10.070 -0.0645  0.1646 -1.3471
  181SLPC   C3820769   6.132   0.733   9.935 -0.1733  0.1719  0.6968
  181SLPC   H8X20770   6.098   0.838   9.946 -0.0678  0.1354  1.4585
  181SLPC   H8Y20771   6.034   0.682   9.923 -0.3318  0.5594  0.2982
  181SLPC   C3920772   6.199   0.718   9.800  0.1559  0.0113  0.1101
  181SLPC   H9X20773   6.234   0.613   9.796  1.1710  0.0890  3.7314
  181SLPC   H9Y20774   6.294   0.775   9.801  0.4603 -0.4873  2.0710
  181SLPC  C31020775   6.120   0.764   9.677  0.4191 -0.3770 -0.3845
  181SLPC  H10X20776   6.175   0.780   9.582 -0.2903 -3.5987 -1.4534
  181SLPC  H10Y20777   6.090   0.868   9.704  0.1194 -0.3280 -0.8996
  181SLPC  C31120778   5.999   0.684   9.650 -0.8824  0.3133  0.5131
  181SLPC  H11X20779   5.924   0.696   9.730 -0.3289  1.5561  0.8679
  181SLPC  H11Y20780   6.030   0.579   9.632  1.6706  1.2797 -1.3530
  181SLPC  C31220781   5.912   0.723   9.524  0.1692 -0.0724  0.8397
  181SLPC  H12X20782   5.923   0.832   9.509  0.0628 -0.0074  1.2186
  181SLPC  H12Y20783   5.805   0.701   9.548  0.4588  0.0474  2.3897
  181SLPC  C31320784   5.961   0.656   9.400 -0.4748 -0.0359 -0.0827
  181SLPC  H13X20785   5.973   0.546   9.415 -1.5475 -0.3804 -1.4880
  181SLPC  H13Y20786   6.060   0.689   9.365 -0.0857 -0.6867  0.3763
  181SLPC  C31420787   5.866   0.683   9.282  0.3175 -0.2955  0.3421
  181SLPC  H14X20788   5.868   0.793   9.265 -1.1010 -0.1459  0.9931
  181SLPC  H14Y20789   5.761   0.661   9.312 -0.1976  3.0529  1.3400
  181SLPC  C31520790   5.912   0.625   9.149  0.1257  0.1248  0.1217
  181SLPC  H15X20791   5.928   0.517   9.168 -1.2530 -0.6164 -2.5055
  181SLPC  H15Y20792   6.007   0.676   9.122 -1.3359  1.2841 -3.3990
  181SLPC  C31620793   5.814   0.629   9.032  0.4505 -0.3023 -0.5448
  181SLPC  H16X20794   5.791   0.738   9.029  1.3989 -0.1143 -1.3932
  181SLPC  H16Y20795   5.721   0.576   9.060  0.2090  0.1187 -0.5419
  181SLPC  C31720796   5.873   0.591   8.897 -0.1580  0.8068 -0.2605
  181SLPC  H17X20797   5.797   0.570   8.819 -0.8212 -0.3794  0.6676
  181SLPC  H17Y20798   5.943   0.506   8.914 -0.1138  0.3896 -2.2898
  181SLPC  C31820799   5.955   0.706   8.846 -0.2596 -0.4651 -0.8412
  181SLPC  H18X20800   5.879   0.776   8.804  0.1117  0.7577  0.4745
  181SLPC  H18Y20801   6.043   0.681   8.783  0.9572  0.9254  0.2309
  181SLPC  H18Z20802   6.004   0.763   8.927  1.6866 -1.5849 -1.1744
  182SLPC     N20803   0.040   4.323  10.839  0.0068  0.9526  0.5333
  182SLPC   C1320804   0.072   4.417  10.731  0.1021  0.2703 -0.0309
  182SLPC  H13A20805   0.083   4.517  10.771  0.2452 -0.4446  1.8263
  182SLPC  H13B20806   0.159   4.390  10.674  1.1292  1.0775  1.0875
  182SLPC  H13C20807  -0.008   4.418  10.659  2.6880 -0.2953 -3.1097
  182SLPC   C1420808  -0.058   4.389  10.932  0.7078  0.2157 -1.0468
  182SLPC  H14A20809  -0.150   4.416  10.882  0.8270  1.9467 -0.4054
  182SLPC  H14B20810  -0.070   4.325  11.018 -2.3701 -1.5374 -2.6148
  182SLPC  H14C20811  -0.013   4.477  10.975  1.0578 -1.1382  1.5595
  182SLPC   C1520812   0.165   4.282  10.919  0.6661 -0.0005 -0.4039
  182SLPC  H15A20813   0.128   4.221  11.000  0.6963  0.1272 -0.2950
  182SLPC  H15B20814   0.236   4.231  10.855  0.5623  0.1135 -0.6091
  182SLPC  H15C20815   0.206   4.367  10.970  0.5830 -0.4488  0.4293
  182SLPC   C1220816  -0.023   4.196  10.787  0.3974 -0.3399 -0.1982
  182SLPC  H12A20817   0.050   4.145  10.727  0.5562 -2.6343  1.7691
  182SLPC  H12B20818  -0.114   4.217  10.735  0.9872  0.4221 -0.9512
  182SLPC   C1120819  -0.064   4.090  10.894  0.2760 -0.2559  0.9549
  182SLPC  H11A20820  -0.122   4.012  10.841  3.5952 -1.3229 -1.4554
  182SLPC  H11B20821  -0.132   4.136  10.969 -2.3972 -2.2766 -0.0566
  182SLPC     P20822   0.154   3.926  10.884 -0.1588 -0.3042 -0.3987
  182SLPC   O1320823   0.286   3.942  10.947  0.2365 -0.2665  0.0064
  182SLPC   O1420824   0.106   3.787  10.885 -0.0288 -0.6089 -0.3788
  182SLPC   O1220825   0.054   4.030  10.946 -0.0553  0.0935  0.2712
  182SLPC   O1120826   0.171   3.980  10.737  0.5906 -0.0900 -0.0863
  182SLPC    C120827   0.132   3.913  10.618 -0.3019  0.3637 -0.4450
  182SLPC    HA20828   0.156   3.804  10.619  0.7059  0.5780 -0.2003
  182SLPC    HB20829   0.021   3.925  10.614 -0.2753  0.7031 -0.2237
  182SLPC    C220830   0.203   3.966  10.485  0.3244  0.6311 -0.3074
  182SLPC    HS20831   0.168   3.893  10.409  1.4218  0.3550 -0.5652
  182SLPC   O2120832   0.344   3.967  10.497  0.7519 -0.0747  0.4389
  182SLPC   C2120833   0.405   3.852  10.463  0.3008  0.5067 -0.1910
  182SLPC   O2220834   0.347   3.742  10.446  0.1750 -0.0001 -0.1497
  182SLPC   C2220835   0.559   3.877  10.454 -0.0859  0.5023  0.4304
  182SLPC   H2R20836   0.592   3.932  10.545  1.7760 -0.5502  0.4544
  182SLPC   H2S20837   0.608   3.777  10.454  0.0490  0.5541 -0.4773
  182SLPC    C320838   0.158   4.113  10.447  0.2935  0.0553  0.5913
  182SLPC    HX20839   0.215   4.176  10.520  2.9862 -0.2738 -1.0719
  182SLPC    HY20840   0.050   4.117  10.470 -0.1618 -1.8178 -0.9626
  182SLPC   O3120841   0.173   4.140  10.308 -0.8215  0.3937 -0.0723
  182SLPC   C3120842   0.255   4.246  10.285 -0.0104  0.3350 -0.7171
  182SLPC   O3220843   0.294   4.321  10.371 -0.3068 -0.0211  0.0859
  182SLPC   C3220844   0.303   4.223  10.147  0.3781 -0.3580  0.0916
  182SLPC   H2X20845   0.213   4.208  10.083 -1.7411 -1.3801  3.0797
  182SLPC   H2Y20846   0.367   4.133  10.152 -0.8039 -1.2598 -0.3236
  182SLPC   C2320847   0.605   3.953  10.326 -0.0412  0.7255 -0.7514
  182SLPC   H3R20848   0.712   3.974  10.347 -0.6780  3.4266  0.2811
  182SLPC   H3S20849   0.549   4.049  10.328 -1.4198 -0.0471  1.0536
  182SLPC   C2420850   0.570   3.867  10.202 -0.0942 -1.0911  0.1012
  182SLPC   H4R20851   0.462   3.861  10.178 -0.8845 -2.2773  3.3947
  182SLPC   H4S20852   0.627   3.772  10.216  0.7832 -0.5726  0.0901
  182SLPC   C2520853   0.633   3.937  10.089 -0.2232 -0.2795 -0.0114
  182SLPC   H5R20854   0.742   3.930  10.109  0.0348  0.5914 -0.9963
  182SLPC   H5S20855   0.600   4.043  10.084  0.2795  0.1189  3.1498
  182SLPC   C2620856   0.607   3.867   9.948 -0.5584  0.6338  0.2766
  182SLPC   H6R20857   0.531   3.925   9.892 -0.1042  1.5340  0.5739
  182SLPC   H6S20858   0.566   3.764   9.959  1.3382 -0.0803  1.2265
  182SLPC   C2720859   0.728   3.861   9.863 -0.9621  0.0984  0.7018
  182SLPC   H7R20860   0.800   3.791   9.911 -2.3713 -0.8132  1.5830
  182SLPC   H7S20861   0.770   3.964   9.857 -3.6385  1.1800 -1.1398
  182SLPC   C2820862   0.697   3.806   9.717  0.3126  0.4949 -0.0765
  182SLPC   H8R20863   0.637   3.714   9.736  1.9696 -0.3294  1.4641
  182SLPC   H8S20864   0.783   3.774   9.654 -0.4960 -0.3478 -0.7805
  182SLPC   C2920865   0.612   3.907   9.642 -0.4042 -0.9037  0.4114
  182SLPC   H9R20866   0.503   3.900   9.653 -0.5516 -0.1201 -0.3505
  182SLPC  C21020867   0.670   4.008   9.567  0.0826  0.6430  0.1082
  182SLPC  H10R20868   0.605   4.088   9.529 -2.0783 -0.8174  0.5912
  182SLPC  C21120869   0.817   4.042   9.554  0.1842  0.0962 -0.8261
  182SLPC  H11R20870   0.848   3.989   9.462 -2.4798 -0.2344 -1.6107
  182SLPC  H11S20871   0.878   3.993   9.633  2.6049  0.7603 -2.1763
  182SLPC  C21220872   0.830   4.194   9.550  0.8153 -0.4613 -0.1030
  182SLPC  H12R20873   0.813   4.242   9.647  0.5515 -0.1531 -0.3013
  182SLPC  C21320874   0.836   4.273   9.442  0.4336  0.2871  0.0863
  182SLPC  H13R20875   0.837   4.379   9.471 -0.0162 -0.1266  1.6958
  182SLPC  C21420876   0.826   4.227   9.298 -0.2006 -0.6527  0.0751
  182SLPC  H14R20877   0.720   4.222   9.262 -0.7081  0.9357  1.2262
  182SLPC  H14S20878   0.874   4.127   9.296 -2.2098 -1.6571 -0.7321
  182SLPC  C21520879   0.897   4.343   9.219  1.0244 -0.2568 -0.0636
  182SLPC  H15R20880   0.995   4.369   9.265  1.3180 -1.1085 -0.2042
  182SLPC  H15S20881   0.838   4.437   9.228  2.4237  0.5215  1.8355
  182SLPC  C21620882   0.923   4.316   9.071 -0.1955  0.7811  0.3054
  182SLPC  H16R20883   0.826   4.284   9.028  0.4605  0.0905 -0.7135
  182SLPC  H16S20884   0.999   4.235   9.066 -1.3311 -0.2661 -0.6868
  182SLPC  C21720885   0.958   4.447   8.987  0.1643  0.0028 -1.3286
  182SLPC  H17R20886   0.887   4.526   9.020  3.0584  1.6875  1.3483
  182SLPC  H17S20887   0.936   4.412   8.884 -1.2830 -2.6522 -0.2146
  182SLPC  C21820888   1.102   4.489   8.999 -1.1484 -0.5261  0.3296
  182SLPC  H18R20889   1.114   4.595   8.969 -3.1768 -0.3800 -0.0600
  182SLPC  H18S20890   1.166   4.442   8.921 -0.8469  1.7699 -0.8731
  182SLPC  H18T20891   1.142   4.477   9.102  0.9442  1.9187 -0.0980
  182SLPC   C3320892   0.387   4.344  10.094 -0.0615 -0.7881  0.8226
  182SLPC   H3X20893   0.479   4.360  10.154  0.6119  0.0125 -0.3957
  182SLPC   H3Y20894   0.323   4.435  10.092  0.5320 -0.3652 -0.7223
  182SLPC   C3420895   0.446   4.310   9.955 -0.4879 -0.7307 -0.4847
  182SLPC   H4X20896   0.517   4.224   9.957  1.0008  0.4555  0.8313
  182SLPC   H4Y20897   0.511   4.395   9.923 -0.2235 -0.3541  0.9924
  182SLPC   C3520898   0.338   4.269   9.854  0.5406  0.2690  0.3114
  182SLPC   H5X20899   0.262   4.350   9.848  0.3172 -0.0471 -2.1981
  182SLPC   H5Y20900   0.294   4.172   9.885  1.0247 -0.6407 -1.6278
  182SLPC   C3620901   0.385   4.254   9.703 -0.3298  0.6387 -0.5075
  182SLPC   H6X20902   0.294   4.243   9.640 -1.3099 -0.0931  0.9789
  182SLPC   H6Y20903   0.452   4.166   9.700 -1.6675 -0.5911  1.9172
  182SLPC   C3720904   0.449   4.374   9.642  0.3199  0.6341  0.3490
  182SLPC   H7X20905   0.552   4.392   9.681 -0.6045  1.6224  2.4401
  182SLPC   H7Y20906   0.383   4.456   9.676 -1.1188 -0.1332 -0.5066
  182SLPC   C3820907   0.437   4.377   9.494 -0.2707 -0.4883  0.5728
  182SLPC   H8X20908   0.331   4.379   9.459 -0.8016 -4.4848  1.4458
  182SLPC   H8Y20909   0.482   4.288   9.444 -0.1574  0.1337 -0.4680
  182SLPC   C3920910   0.526   4.503   9.442 -0.5883  0.8355 -0.9902
  182SLPC   H9X20911   0.633   4.507   9.471 -0.4920 -0.6796 -1.0726
  182SLPC   H9Y20912   0.474   4.598   9.466 -0.8946 -0.1191  2.8729
  182SLPC  C31020913   0.519   4.520   9.290  0.0158  0.6920  0.5640
  182SLPC  H10X20914   0.416   4.541   9.254  0.7738  1.7016 -1.1565
  182SLPC  H10Y20915   0.561   4.427   9.244  2.3149  1.8338  0.1938
  182SLPC  C31120916   0.611   4.634   9.234 -0.7656 -0.6343  0.2736
  182SLPC  H11X20917   0.713   4.604   9.266 -0.2438 -1.9669 -2.3611
  182SLPC  H11Y20918   0.577   4.730   9.278  0.2455 -0.5628  0.9267
  182SLPC  C31220919   0.604   4.643   9.079  0.2176  0.2341  0.0383
  182SLPC  H12X20920   0.497   4.663   9.058  0.6909  1.7178 -1.1513
  182SLPC  H12Y20921   0.630   4.549   9.026  2.2362  1.0283 -0.4634
  182SLPC  C31320922   0.696   4.752   9.036 -0.4149 -1.5182  0.2670
  182SLPC  H13X20923   0.796   4.726   9.076  0.5621  1.2780 -0.1401
  182SLPC  H13Y20924   0.679   4.859   9.061  1.0521 -1.9285  3.4757
  182SLPC  C31420925   0.702   4.751   8.884  0.1273 -0.5733 -0.3132
  182SLPC  H14X20926   0.595   4.753   8.854 -0.2114 -3.3303  0.4575
  182SLPC  H14Y20927   0.740   4.653   8.849 -2.2402 -1.9459  0.6684
  182SLPC  C31520928   0.772   4.878   8.834 -0.2643 -0.2265  0.1350
  182SLPC  H15X20929   0.861   4.901   8.897  0.8690 -4.3168  0.3417
  182SLPC  H15Y20930   0.700   4.957   8.863 -0.9392 -0.5600 -0.6081
  182SLPC  C31620931   0.788   4.890   8.677 -0.8583 -0.6900 -0.0206
  182SLPC  H16X20932   0.837   4.984   8.645  0.6497 -1.3431  0.2700
  182SLPC  H16Y20933   0.688   4.893   8.630 -0.3985  0.1003 -0.9992
  182SLPC  C31720934   0.867   4.771   8.616 -0.6436 -0.6097 -0.1774
  182SLPC  H17X20935   0.822   4.672   8.638 -2.5033  0.3876  0.8118
  182SLPC  H17Y20936   0.964   4.767   8.670 -0.3486  0.9163 -0.5333
  182SLPC  C31820937   0.888   4.779   8.466 -0.1507 -0.4262 -0.8554
  182SLPC  H18X20938   0.927   4.881   8.445  0.2696 -0.5474 -0.6732
  182SLPC  H18Y20939   0.792   4.772   8.411 -0.5794  0.1058 -0.1977
  182SLPC  H18Z20940   0.953   4.695   8.433  0.8002  0.0860 -0.3548
  183SLPC     N20941   1.176   1.989  11.005  0.3918  0.3295  0.1017
  183SLPC   C1320942   1.296   1.896  11.004 -0.0502 -0.6024  0.5469
  183SLPC  H13A20943   1.279   1.797  11.043 -3.2293  0.1903  1.4775
  183SLPC  H13B20944   1.338   1.899  10.905 -0.2543 -1.0620  0.4462
  183SLPC  H13C20945   1.369   1.950  11.062 -0.9789  1.7403 -0.3129
  183SLPC   C1420946   1.216   2.121  10.945  0.6651  0.0964 -0.1336
  183SLPC  H14A20947   1.298   2.168  10.997  1.4051 -0.1817 -1.0157
  183SLPC  H14B20948   1.243   2.105  10.841 -2.2364  0.9257 -1.1132
  183SLPC  H14C20949   1.139   2.195  10.933  0.2581 -0.1197  1.0655
  183SLPC   C1520950   1.141   2.014  11.148 -0.1573 -0.0633 -0.8685
  183SLPC  H15A20951   1.128   1.925  11.207  2.3704 -0.5425 -0.9269
  183SLPC  H15B20952   1.216   2.069  11.204 -0.6097 -0.2590 -0.0527
  183SLPC  H15C20953   1.048   2.068  11.153 -0.4198 -0.5638 -0.2098
  183SLPC   C1220954   1.067   1.929  10.920 -0.0078 -0.2162  0.1704
  183SLPC  H12A20955   1.054   1.830  10.962 -0.0678 -0.9302 -1.4513
  183SLPC  H12B20956   1.107   1.910  10.822  1.2039  3.3641 -0.1427
  183SLPC   C1120957   0.928   2.001  10.897 -0.0363 -0.4950 -0.5899
  183SLPC  H11A20958   0.861   1.926  10.850 -1.6688  0.3264  0.3442
  183SLPC  H11B20959   0.939   2.083  10.823  1.6685 -0.6502 -0.5446
  183SLPC     P20960   0.722   2.032  11.062  0.2219 -0.0582 -0.3096
  183SLPC   O1320961   0.705   1.890  11.112 -0.2606  0.1759  0.0038
  183SLPC   O1420962   0.677   2.147  11.148 -0.7072  0.7850  0.2404
  183SLPC   O1220963   0.874   2.049  11.021  0.1837 -0.5463 -0.0094
  183SLPC   O1120964   0.640   2.035  10.933 -0.1132 -0.1099  0.3364
  183SLPC    C120965   0.600   2.139  10.855 -0.8972 -0.7766 -0.0568
  183SLPC    HA20966   0.509   2.194  10.885 -0.8497 -0.1171 -1.0502
  183SLPC    HB20967   0.679   2.218  10.850 -0.3317 -1.2926  0.5891
  183SLPC    C220968   0.576   2.093  10.709  0.1050  0.1182 -0.2883
  183SLPC    HS20969   0.499   2.012  10.710  2.1913 -1.9784 -1.0499
  183SLPC   O2120970   0.698   2.045  10.650 -0.8185  0.9891  0.3132
  183SLPC   C2120971   0.694   1.935  10.575 -0.2406  0.1026 -0.1497
  183SLPC   O2220972   0.606   1.852  10.581  0.4217  0.2230 -0.4055
  183SLPC   C2220973   0.833   1.924  10.514  0.1236  0.0612  0.5107
  183SLPC   H2R20974   0.851   2.005  10.440  1.4415  0.1422  0.8946
  183SLPC   H2S20975   0.916   1.923  10.588  1.2363  0.1896 -0.7046
  183SLPC    C320976   0.503   2.200  10.618  0.0604  0.2037  0.3964
  183SLPC    HX20977   0.571   2.287  10.619  0.2308  0.0720  1.1571
  183SLPC    HY20978   0.408   2.223  10.671 -1.0214 -1.9106 -0.4882
  183SLPC   O3120979   0.485   2.143  10.484 -0.4518 -0.2023 -0.5686
  183SLPC   C3120980   0.377   2.067  10.474 -0.0098  0.1063 -0.5821
  183SLPC   O3220981   0.295   2.048  10.562 -0.1283  0.0687 -0.2625
  183SLPC   C3220982   0.376   2.011  10.338 -0.4361  0.1435 -0.4520
  183SLPC   H2X20983   0.478   2.029  10.298  0.3127 -0.6374  1.0210
  183SLPC   H2Y20984   0.307   2.070  10.274 -2.7348  0.8505  2.4746
  183SLPC   C2320985   0.852   1.802  10.429  0.5665  0.0941  0.1145
  183SLPC   H3R20986   0.821   1.705  10.473 -0.6149  0.3391 -0.1348
  183SLPC   H3S20987   0.961   1.794  10.412  0.5863  0.2236  0.1800
  183SLPC   C2420988   0.784   1.795  10.293  0.3509  0.0442 -0.1470
  183SLPC   H4R20989   0.860   1.789  10.212 -0.2113  0.9394 -0.7547
  183SLPC   H4S20990   0.721   1.883  10.267  1.3386  0.2406 -2.0697
  183SLPC   C2520991   0.706   1.667  10.266 -0.2692 -0.5741  0.4002
  183SLPC   H5R20992   0.607   1.697  10.306 -2.1221 -1.4607 -3.1219
  183SLPC   H5S20993   0.748   1.583  10.325 -0.1472 -0.6688  0.1779
  183SLPC   C2620994   0.683   1.640  10.117  0.7738 -0.1033 -0.7456
  183SLPC   H6R20995   0.767   1.580  10.075 -0.6690 -2.0687 -0.9793
  183SLPC   H6S20996   0.682   1.737  10.063  2.7423 -0.0062 -0.6919
  183SLPC   C2720997   0.558   1.570  10.077 -0.0426 -0.3500 -0.5754
  183SLPC   H7R20998   0.469   1.624  10.117  0.7722  0.8347 -0.2906
  183SLPC   H7S20999   0.561   1.476  10.136  1.2218 -1.2080 -1.9446
  183SLPC   C2821000   0.543   1.538   9.928  0.8807 -0.9447 -0.3799
  183SLPC   H8R21001   0.459   1.470   9.901 -1.2088  1.4427 -0.2905
  183SLPC   H8S21002   0.637   1.486   9.902  0.4450 -1.4074 -1.0630
  183SLPC   C2921003   0.512   1.672   9.856 -0.4480  0.3477  0.2246
  183SLPC   H9R21004   0.441   1.738   9.907 -1.7077  0.0877 -1.1449
  183SLPC  C21021005   0.557   1.703   9.728  0.4252 -0.6205 -0.0222
  183SLPC  H10R21006   0.543   1.808   9.699  0.3326 -0.3457  0.9713
  183SLPC  C21121007   0.645   1.622   9.640 -0.5014  0.5157 -0.3512
  183SLPC  H11R21008   0.708   1.558   9.706  0.6026  1.1374 -0.7848
  183SLPC  H11S21009   0.716   1.690   9.590  0.0503  0.1717 -0.0451
  183SLPC  C21221010   0.570   1.534   9.546 -0.3177 -0.0225 -0.2368
  183SLPC  H12R21011   0.476   1.494   9.588 -0.8050  0.0420 -1.2377
  183SLPC  C21321012   0.601   1.511   9.417  0.1497  0.2629  0.5238
  183SLPC  H13R21013   0.528   1.463   9.351  0.1099  1.0671 -0.0276
  183SLPC  C21421014   0.722   1.557   9.330 -0.1973 -0.3816 -0.1094
  183SLPC  H14R21015   0.764   1.480   9.261 -0.7344 -1.5481  0.8319
  183SLPC  H14S21016   0.811   1.573   9.394  0.0990  1.4094 -0.9157
  183SLPC  C21521017   0.700   1.682   9.250  0.9395  0.1188 -0.3885
  183SLPC  H15R21018   0.795   1.689   9.192 -0.4733  0.1785 -2.8003
  183SLPC  H15S21019   0.673   1.768   9.315 -3.2408 -1.1721 -0.1425
  183SLPC  C21621020   0.597   1.676   9.138 -0.5327 -0.1186 -0.1743
  183SLPC  H16R21021   0.616   1.766   9.076 -0.2178 -1.6782 -2.5029
  183SLPC  H16S21022   0.496   1.684   9.183 -0.2208  0.9358  0.3660
  183SLPC  C21721023   0.602   1.555   9.046  0.5853 -0.2840  0.0340
  183SLPC  H17R21024   0.595   1.463   9.107 -0.0747  0.4223  1.0573
  183SLPC  H17S21025   0.696   1.553   8.986  0.4082  2.1621 -0.4509
  183SLPC  C21821026   0.476   1.545   8.950  0.1100  0.4832 -0.5024
  183SLPC  H18R21027   0.467   1.441   8.914 -0.6638 -0.2617  1.7140
  183SLPC  H18S21028   0.500   1.616   8.868  2.2015 -0.1458 -0.4790
  183SLPC  H18T21029   0.392   1.583   9.013 -1.7944 -1.1333 -1.9328
  183SLPC   C3321030   0.341   1.861  10.335 -0.1315  0.6753 -0.6105
  183SLPC   H3X21031   0.406   1.792  10.394 -0.6709 -1.4838 -2.4053
  183SLPC   H3Y21032   0.372   1.835  10.232  3.7555 -0.4073  0.6289
  183SLPC   C3421033   0.190   1.829  10.352 -0.0032 -0.5788  0.5415
  183SLPC   H4X21034   0.128   1.906  10.302 -1.9913 -2.9377 -0.8531
  183SLPC   H4Y21035   0.172   1.843  10.461 -0.7697  1.0962  0.2234
  183SLPC   C3521036   0.146   1.695  10.297 -0.0894  1.0691 -0.6612
  183SLPC   H5X21037   0.041   1.673  10.328 -0.1297  0.8640 -0.9391
  183SLPC   H5Y21038   0.211   1.616  10.338 -1.1259  0.0559 -0.9119
  183SLPC   C3621039   0.136   1.685  10.148  0.0232 -0.1314  0.6525
  183SLPC   H6X21040   0.228   1.728  10.101 -2.7452  2.7442 -2.7266
  183SLPC   H6Y21041   0.053   1.742  10.102  1.0878 -2.1788 -4.4432
  183SLPC   C3721042   0.109   1.533  10.110 -0.1856  1.1848 -0.1247
  183SLPC   H7X21043   0.027   1.496  10.174  0.7686 -1.7222 -0.4272
  183SLPC   H7Y21044   0.198   1.468  10.128 -1.6311 -0.4526  1.4087
  183SLPC   C3821045   0.062   1.519   9.964 -0.7992 -0.6416 -0.3713
  183SLPC   H8X21046   0.133   1.573   9.898 -0.1909 -0.0988  0.7068
  183SLPC   H8Y21047  -0.041   1.562   9.956 -1.1788 -1.5381 -0.4330
  183SLPC   C3921048   0.054   1.377   9.915 -0.3148 -1.5863 -0.6209
  183SLPC   H9X21049  -0.007   1.322   9.989  0.2022  0.3758  1.3684
  183SLPC   H9Y21050   0.157   1.334   9.916  0.1577 -0.4926 -0.5759
  183SLPC  C31021051  -0.018   1.354   9.784  0.0560 -0.0493  0.2909
  183SLPC  H10X21052  -0.127   1.374   9.793 -0.0174 -0.0491 -0.4897
  183SLPC  H10Y21053  -0.024   1.244   9.769 -1.9252 -0.1476  1.5451
  183SLPC  C31121054   0.055   1.419   9.666 -0.4344 -0.5207  0.4820
  183SLPC  H11X21055   0.154   1.383   9.630 -0.5657 -0.2916 -0.1191
  183SLPC  H11Y21056   0.046   1.529   9.676 -0.6180 -0.4046 -0.7594
  183SLPC  C31221057  -0.040   1.388   9.547  0.3224 -0.3524  0.4591
  183SLPC  H12X21058  -0.085   1.479   9.502  2.0343 -0.7706 -2.3618
  183SLPC  H12Y21059  -0.129   1.325   9.564  0.4490 -0.5329  0.4635
  183SLPC  C31321060   0.021   1.307   9.432 -0.0077  0.7060  0.9483
  183SLPC  H13X21061   0.070   1.219   9.480 -0.1290  0.4112  0.5384
  183SLPC  H13Y21062   0.103   1.363   9.383 -0.9247  0.8441 -0.4652
  183SLPC  C31421063  -0.067   1.247   9.324  0.1731  0.0407  0.3478
  183SLPC  H14X21064  -0.140   1.185   9.380 -0.7891  1.8099  1.1479
  183SLPC  H14Y21065  -0.002   1.190   9.254  0.7553  2.3512 -1.1033
  183SLPC  C31521066  -0.134   1.353   9.236  0.2574  0.6414 -0.3144
  183SLPC  H15X21067  -0.052   1.415   9.195 -1.7996  2.8105 -1.3425
  183SLPC  H15Y21068  -0.197   1.416   9.302 -0.4750 -0.6155  0.2197
  183SLPC  C31621069  -0.208   1.289   9.120  0.1532  0.4305 -0.0547
  183SLPC  H16X21070  -0.293   1.231   9.163 -0.3726  1.4608  0.3285
  183SLPC  H16Y21071  -0.142   1.233   9.051  1.7643  1.9941  0.1476
  183SLPC  C31721072  -0.281   1.382   9.022  0.1904  0.2285  0.3591
  183SLPC  H17X21073  -0.364   1.439   9.069  0.6913 -0.9658  2.7948
  183SLPC  H17Y21074  -0.326   1.321   8.941 -1.2051 -0.3839  1.5519
  183SLPC  C31821075  -0.185   1.479   8.945 -0.0988 -0.4422 -0.4961
  183SLPC  H18X21076  -0.138   1.549   9.017  0.1695 -0.6806 -0.4402
  183SLPC  H18Y21077  -0.241   1.539   8.870  2.6951  0.8943 -1.6302
  183SLPC  H18Z21078  -0.107   1.417   8.896  2.3072  2.1866 -0.2139
  184SLPC     N21079   6.518   6.451  10.617  0.4068 -0.2980  0.1169
  184SLPC   C1321080   6.531   6.354  10.498  0.5049 -0.1801  0.2013
  184SLPC  H13A21081   6.593   6.270  10.526  1.4995  0.2149 -0.7455
  184SLPC  H13B21082   6.430   6.318  10.485  0.1145  1.0058 -0.1750
  184SLPC  H13C21083   6.567   6.399  10.407 -0.1186  0.0586  0.0689
  184SLPC   C1421084   6.410   6.391  10.704  0.3444 -0.1105 -0.4922
  184SLPC  H14A21085   6.327   6.343  10.655 -0.4931 -0.1671  0.9078
  184SLPC  H14B21086   6.454   6.320  10.773 -0.7790 -0.9097 -0.5691
  184SLPC  H14C21087   6.359   6.464  10.766  1.5812  0.4371 -0.0926
  184SLPC   C1521088   6.466   6.580  10.567 -0.0984  0.1242 -0.0078
  184SLPC  H15A21089   6.439   6.653  10.642  0.7181  1.7375 -1.1958
  184SLPC  H15B21090   6.552   6.625  10.519 -1.2726  0.7700 -1.5915
  184SLPC  H15C21091   6.381   6.574  10.501  1.1308 -1.4738 -1.5175
  184SLPC   C1221092   6.650   6.469  10.684  0.1210 -0.0932  0.1335
  184SLPC  H12A21093   6.723   6.521  10.624 -2.6271  2.7977 -0.9835
  184SLPC  H12B21094   6.697   6.372  10.688 -2.3219 -1.3220  0.9561
  184SLPC   C1121095   6.665   6.537  10.824 -0.3818  0.3170  0.2764
  184SLPC  H11A21096   6.772   6.562  10.841 -0.0274  3.7517 -4.8370
  184SLPC  H11B21097   6.622   6.478  10.908 -1.9955  3.1397  1.5750
  184SLPC     P21098   6.660   6.805  10.877  0.3284 -0.3017 -0.0003
  184SLPC   O1321099   6.569   6.912  10.825  0.1679 -0.5274 -0.8995
  184SLPC   O1421100   6.669   6.809  11.029  0.7940  0.2842  0.2105
  184SLPC   O1221101   6.599   6.664  10.822 -0.0092 -0.1845  0.5753
  184SLPC   O1121102   6.801   6.811  10.802 -0.0604  0.5570  0.0302
  184SLPC    C121103   6.907   6.860  10.888 -0.4194 -0.5485  0.0380
  184SLPC    HA21104   6.880   6.927  10.973 -0.0165 -0.1245 -0.1604
  184SLPC    HB21105   6.967   6.781  10.936 -1.1419 -0.8299  0.4958
  184SLPC    C221106   7.015   6.920  10.797  0.6429  1.1500  0.0166
  184SLPC    HS21107   7.090   6.962  10.868  0.5277 -0.8764  1.4135
  184SLPC   O2121108   6.961   7.019  10.711  0.0941  0.3794 -0.3400
  184SLPC   C2121109   6.920   7.126  10.774  0.0965  0.4761 -0.5305
  184SLPC   O2221110   6.899   7.144  10.889 -0.3656 -0.3931  0.1610
  184SLPC   C2221111   6.878   7.232  10.665 -0.1476 -0.6679  0.4338
  184SLPC   H2R21112   6.768   7.248  10.672 -0.1881 -0.9284  0.3972
  184SLPC   H2S21113   6.925   7.327  10.697  1.9455 -1.1890 -0.9231
  184SLPC    C321114   7.094   6.821  10.714  0.4585  0.0201  0.5176
  184SLPC    HX21115   7.015   6.748  10.683 -0.5295  1.3287 -0.1413
  184SLPC    HY21116   7.171   6.771  10.777  1.6496  1.8231  0.5396
  184SLPC   O3121117   7.162   6.889  10.602 -0.2900  1.2699 -0.4948
  184SLPC   C3121118   7.143   6.827  10.489  0.1569  0.4546  0.0115
  184SLPC   O3221119   7.066   6.731  10.468 -0.4854 -0.2335 -0.4935
  184SLPC   C3221120   7.230   6.880  10.376 -0.9238  0.0299 -0.4913
  184SLPC   H2X21121   7.334   6.849  10.398 -0.9993 -0.0113 -0.1810
  184SLPC   H2Y21122   7.228   6.991  10.372 -2.7944  0.0791  0.4531
  184SLPC   C2321123   6.927   7.197  10.519 -0.2124 -0.0437 -0.4667
  184SLPC   H3R21124   6.860   7.121  10.473 -0.4572  0.0906 -0.3345
  184SLPC   H3S21125   7.022   7.140  10.525  0.4527  1.0755 -0.1354
  184SLPC   C2421126   6.932   7.321  10.435  0.3672  0.1444 -0.5906
  184SLPC   H4R21127   7.015   7.383  10.475 -0.5482  0.3910  1.0060
  184SLPC   H4S21128   6.838   7.379  10.444  0.2316 -0.3298  1.3301
  184SLPC   C2521129   6.966   7.288  10.287 -0.2287  0.1197  0.3027
  184SLPC   H5R21130   6.878   7.243  10.236 -0.1141 -0.8081  0.8978
  184SLPC   H5S21131   7.045   7.211  10.283 -0.0806  0.3339 -1.4843
  184SLPC   C2621132   7.013   7.415  10.220 -0.1803 -0.2889  0.5899
  184SLPC   H6R21133   7.120   7.428  10.248  0.4662 -0.3184 -1.7015
  184SLPC   H6S21134   6.947   7.499  10.253 -1.2630 -0.0181 -2.0312
  184SLPC   C2721135   7.018   7.411  10.067  0.6122  0.2899 -0.2590
  184SLPC   H7R21136   7.063   7.506  10.030 -0.0548  1.3060  1.4494
  184SLPC   H7S21137   6.915   7.418  10.027 -0.2927  1.3075  2.0884
  184SLPC   C2821138   7.085   7.284   9.997  0.4676 -0.1581 -0.5585
  184SLPC   H8R21139   7.020   7.194  10.002  0.3809 -0.0601  0.4111
  184SLPC   H8S21140   7.167   7.251  10.065 -0.5584  1.5413  1.6681
  184SLPC   C2921141   7.147   7.299   9.865 -0.1465 -0.8762  0.1336
  184SLPC   H9R21142   7.249   7.337   9.880 -0.4945  0.1362  0.0067
  184SLPC  C21021143   7.103   7.257   9.744  0.1600 -0.3451 -0.7932
  184SLPC  H10R21144   7.171   7.282   9.661  0.3705 -0.3391 -0.6180
  184SLPC  C21121145   6.972   7.183   9.713 -0.0831 -0.3067 -0.4244
  184SLPC  H11R21146   6.901   7.254   9.666 -1.6925 -2.1581 -0.9565
  184SLPC  H11S21147   6.926   7.157   9.811  1.4613 -0.7551  0.2150
  184SLPC  C21221148   6.993   7.067   9.618 -0.4746  0.0123 -0.0941
  184SLPC  H12R21149   7.054   6.989   9.665  0.6199  0.8414 -0.0737
  184SLPC  C21321150   6.978   7.061   9.486  0.0727  0.4566  0.2452
  184SLPC  H13R21151   7.002   6.971   9.427  0.5264  0.5582  0.2760
  184SLPC  C21421152   6.927   7.174   9.407 -0.1168  0.2534  0.1878
  184SLPC  H14R21153   7.016   7.219   9.359  1.5583 -3.2581 -0.3206
  184SLPC  H14S21154   6.903   7.255   9.479  1.1725 -0.3048  1.2766
  184SLPC  C21521155   6.814   7.151   9.305 -0.4065  0.8552 -0.1992
  184SLPC  H15R21156   6.772   7.252   9.284 -1.0853  0.4609 -0.7908
  184SLPC  H15S21157   6.723   7.092   9.329  0.8094 -1.1808 -0.4150
  184SLPC  C21621158   6.870   7.085   9.180  0.4205  0.1885 -0.5045
  184SLPC  H16R21159   6.901   6.981   9.205  0.1039 -0.2916 -1.9789
  184SLPC  H16S21160   6.949   7.156   9.147  1.6496  0.0448  1.9509
  184SLPC  C21721161   6.758   7.063   9.075  0.4291 -0.0095  0.3228
  184SLPC  H17R21162   6.717   7.164   9.053  2.6473  1.2290  1.4947
  184SLPC  H17S21163   6.670   7.013   9.120 -0.3397  0.9145 -0.1220
  184SLPC  C21821164   6.803   7.011   8.939  0.2217 -0.2366 -0.1384
  184SLPC  H18R21165   6.880   7.079   8.895 -1.7538  2.0374 -0.2818
  184SLPC  H18S21166   6.715   6.999   8.872  0.8149  1.1066 -1.2255
  184SLPC  H18T21167   6.842   6.908   8.946  0.6480  0.0286  1.9199
  184SLPC   C3321168   7.191   6.829  10.232 -0.3513 -0.1905 -0.1247
  184SLPC   H3X21169   7.152   6.725  10.237  0.5997 -0.6086 -0.9703
  184SLPC   H3Y21170   7.288   6.824  10.178  0.4506 -1.2496  1.3310
  184SLPC   C3421171   7.095   6.931  10.158 -0.0701 -0.8361  0.6923
  184SLPC   H4X21172   7.123   6.914  10.051  0.0826 -0.1875  0.6259
  184SLPC   H4Y21173   7.125   7.036  10.177 -1.1603 -0.2446 -0.6605
  184SLPC   C3521174   6.945   6.912  10.176 -0.0995  0.4094 -0.1338
  184SLPC   H5X21175   6.912   7.009  10.133  0.2008  0.3564 -0.4902
  184SLPC   H5Y21176   6.911   6.911  10.282 -2.5825  2.2335 -0.8220
  184SLPC   C3621177   6.874   6.790  10.104  0.0346 -0.1309  0.2137
  184SLPC   H6X21178   6.765   6.796  10.124 -0.0539  0.1986 -0.3374
  184SLPC   H6Y21179   6.903   6.687  10.133  1.7583  0.7371  1.7306
  184SLPC   C3721180   6.881   6.801   9.947 -0.5182  0.1778 -0.0457
  184SLPC   H7X21181   6.986   6.806   9.911 -0.6768  0.1605 -0.5143
  184SLPC   H7Y21182   6.844   6.901   9.918  1.8617  0.6261 -1.8735
  184SLPC   C3821183   6.810   6.691   9.868  0.4459 -0.0326 -0.0663
  184SLPC   H8X21184   6.706   6.690   9.907  1.0814 -0.7385  1.7093
  184SLPC   H8Y21185   6.853   6.592   9.890 -4.5579 -2.1815  1.5136
  184SLPC   C3921186   6.826   6.716   9.712  0.3598 -0.6016 -0.4601
  184SLPC   H9X21187   6.931   6.744   9.692  0.3679  0.2260  0.6045
  184SLPC   H9Y21188   6.776   6.813   9.691 -1.7281 -1.8983 -1.8264
  184SLPC  C31021189   6.779   6.608   9.615  0.5508  0.6704 -0.3151
  184SLPC  H10X21190   6.676   6.575   9.641 -0.4858  2.9329 -1.3164
  184SLPC  H10Y21191   6.851   6.525   9.598 -0.1016 -0.0803  0.4903
  184SLPC  C31121192   6.751   6.680   9.479  0.1800  0.0554  0.2998
  184SLPC  H11X21193   6.839   6.698   9.414 -1.4172 -2.0662 -2.6932
  184SLPC  H11Y21194   6.696   6.773   9.504 -2.9284 -1.4012 -0.5773
  184SLPC  C31221195   6.665   6.605   9.377 -0.8322 -0.3310  0.8754
  184SLPC  H12X21196   6.565   6.592   9.424 -1.7459  4.2243  0.6788
  184SLPC  H12Y21197   6.721   6.510   9.365 -1.1917 -0.9741  3.6572
  184SLPC  C31321198   6.654   6.686   9.244  0.6910 -0.2869  0.3331
  184SLPC  H13X21199   6.754   6.728   9.223 -0.1823  1.4436 -0.5985
  184SLPC  H13Y21200   6.577   6.764   9.262 -0.5372 -2.0605  3.6289
  184SLPC  C31421201   6.597   6.599   9.130  0.0348 -0.1918 -0.0869
  184SLPC  H14X21202   6.489   6.579   9.149 -0.0431  0.0559 -0.2605
  184SLPC  H14Y21203   6.638   6.496   9.130 -2.6319 -1.3267 -0.0417
  184SLPC  C31521204   6.619   6.663   8.996  0.4064  0.3369  0.0277
  184SLPC  H15X21205   6.714   6.722   8.993  1.0580 -0.6933  0.0678
  184SLPC  H15Y21206   6.534   6.732   8.976 -1.3346 -0.8552  2.7677
  184SLPC  C31621207   6.619   6.554   8.892 -0.1460  0.5943 -0.9209
  184SLPC  H16X21208   6.522   6.504   8.870  1.1535 -2.3471 -0.5438
  184SLPC  H16Y21209   6.678   6.467   8.929 -1.4607  0.0710  0.0328
  184SLPC  C31721210   6.677   6.585   8.752 -0.5686  1.0798 -0.4650
  184SLPC  H17X21211   6.783   6.612   8.769 -0.1320 -1.2839  0.9834
  184SLPC  H17Y21212   6.621   6.673   8.713 -1.5487 -0.0917 -1.8092
  184SLPC  C31821213   6.666   6.470   8.654 -0.2520  1.0177 -0.0095
  184SLPC  H18X21214   6.697   6.374   8.700 -0.3795  0.7101 -0.5585
  184SLPC  H18Y21215   6.725   6.491   8.562  0.1313 -0.1599 -0.0464
  184SLPC  H18Z21216   6.560   6.449   8.627  0.0950 -2.9028  1.1237
  185SLPC     N21217   6.392   6.219   6.283  0.0973 -0.0168  0.0502
  185SLPC   C1321218   6.375   6.231   6.133  0.3755 -0.3474 -0.7345
  185SLPC  H13A21219   6.418   6.153   6.073  0.2977  0.8487 -2.4246
  185SLPC  H13B21220   6.273   6.258   6.107 -0.7487 -1.6813  1.9218
  185SLPC  H13C21221   6.430   6.319   6.105  0.4284 -0.2016 -0.1858
  185SLPC   C1421222   6.525   6.169   6.322  0.3973  0.2354 -0.9298
  185SLPC  H14A21223   6.520   6.110   6.413  0.0967  2.2999  0.4686
  185SLPC  H14B21224   6.567   6.088   6.264 -0.8618 -1.2188  0.0696
  185SLPC  H14C21225   6.599   6.247   6.330  2.3309 -1.6558  1.0331
  185SLPC   C1521226   6.291   6.118   6.331 -0.3199 -0.1588  0.1416
  185SLPC  H15A21227   6.310   6.024   6.281 -1.6763 -0.4056  0.0365
  185SLPC  H15B21228   6.292   6.106   6.438 -2.4897 -2.6049  0.0128
  185SLPC  H15C21229   6.191   6.150   6.306  0.0484 -0.0793 -1.2921
  185SLPC   C1221230   6.367   6.355   6.347 -0.0858 -0.3593 -0.2093
  185SLPC  H12A21231   6.285   6.408   6.302  0.1467  2.5480  2.4238
  185SLPC  H12B21232   6.451   6.420   6.326 -0.0990  0.3114  1.6173
  185SLPC   C1121233   6.339   6.362   6.502  0.7019  0.3996 -0.6354
  185SLPC  H11A21234   6.342   6.468   6.537  1.3192  0.5830 -1.2222
  185SLPC  H11B21235   6.420   6.310   6.556  1.0669 -0.0559 -1.5952
  185SLPC     P21236   6.079   6.369   6.479  0.0422  0.2383  0.1649
  185SLPC   O1321237   6.096   6.507   6.432 -0.3127 -0.0800  0.8230
  185SLPC   O1421238   6.036   6.268   6.377 -0.0515  0.5151  0.1186
  185SLPC   O1221239   6.209   6.305   6.539  0.6586 -0.5975  0.7320
  185SLPC   O1121240   5.978   6.375   6.600  0.1536 -0.0126 -0.2897
  185SLPC    C121241   5.987   6.463   6.704 -0.4935 -0.1193 -0.5780
  185SLPC    HA21242   6.008   6.563   6.660 -0.5275  0.4203  0.5899
  185SLPC    HB21243   5.888   6.471   6.754 -0.7775  0.2280 -1.1888
  185SLPC    C221244   6.089   6.426   6.809 -1.2046 -0.1301  0.0070
  185SLPC    HS21245   6.176   6.400   6.745 -2.6615 -0.7840 -1.7728
  185SLPC   O2121246   6.036   6.318   6.883  0.7061 -0.2788  0.0536
  185SLPC   C2121247   6.135   6.232   6.923 -0.1381  0.3951  0.0491
  185SLPC   O2221248   6.251   6.234   6.886 -0.0439  0.0118  0.2994
  185SLPC   C2221249   6.080   6.166   7.044  0.0181  0.3936  0.6689
  185SLPC   H2R21250   6.161   6.167   7.121  1.6204  1.9335 -0.9563
  185SLPC   H2S21251   5.999   6.229   7.086  0.4932  0.4266  1.5558
  185SLPC    C321252   6.130   6.551   6.893  0.0520  0.0441  0.0875
  185SLPC    HX21253   6.033   6.584   6.935 -0.6592 -0.6864 -0.9207
  185SLPC    HY21254   6.179   6.629   6.831  1.0792 -0.3508  0.3874
  185SLPC   O3121255   6.232   6.525   6.991  0.0563  0.1748 -0.4134
  185SLPC   C3121256   6.196   6.507   7.118 -0.0781  0.1294 -0.1509
  185SLPC   O3221257   6.086   6.514   7.161  0.4225 -0.3299 -0.8069
  185SLPC   C3221258   6.330   6.456   7.176 -0.0204  0.4709  0.8858
  185SLPC   H2X21259   6.406   6.527   7.138  1.6089 -0.8036  1.6436
  185SLPC   H2Y21260   6.358   6.362   7.125  0.8604  1.2186 -0.0698
  185SLPC   C2321261   6.036   6.018   7.008  0.3928 -0.2970  0.1946
  185SLPC   H3R21262   6.129   5.958   6.998  0.3547 -0.3365  0.0885
  185SLPC   H3S21263   5.976   6.009   6.916  1.4295 -3.1474 -0.2779
  185SLPC   C2421264   5.951   5.960   7.121 -0.2318 -0.1366  0.3656
  185SLPC   H4R21265   5.909   5.863   7.085 -1.2052  0.5062 -0.2694
  185SLPC   H4S21266   5.875   6.040   7.131 -0.1551  0.0918 -0.7377
  185SLPC   C2521267   6.030   5.945   7.248 -0.1739 -0.3213  0.7928
  185SLPC   H5R21268   6.051   6.041   7.299 -3.0601 -0.6316  2.8298
  185SLPC   H5S21269   6.125   5.892   7.225 -0.2846  0.9475 -3.2232
  185SLPC   C2621270   5.940   5.867   7.354  0.3063 -0.4462 -0.0397
  185SLPC   H6R21271   5.931   5.759   7.327  0.1003 -0.7502  1.2186
  185SLPC   H6S21272   5.835   5.902   7.362  1.1061  1.6976  2.5783
  185SLPC   C2721273   5.999   5.860   7.503  0.0370  0.0036  0.4909
  185SLPC   H7R21274   6.012   5.962   7.546  0.1489  0.1094  0.2125
  185SLPC   H7S21275   6.093   5.805   7.482 -0.8088 -0.7010 -1.8381
  185SLPC   C2821276   5.911   5.765   7.591 -1.1739 -0.1155 -0.5568
  185SLPC   H8R21277   5.887   5.665   7.550 -1.7968 -0.1449 -0.1322
  185SLPC   H8S21278   5.814   5.817   7.603 -1.6903 -1.1365 -0.1905
  185SLPC   C2921279   5.966   5.739   7.730 -0.1055  0.4805  0.6189
  185SLPC   H9R21280   5.940   5.820   7.800  0.4346  0.5712  0.7172
  185SLPC  C21021281   6.049   5.650   7.777 -0.2245 -0.5056 -0.5074
  185SLPC  H10R21282   6.081   5.659   7.882 -0.5820 -1.1875 -0.3348
  185SLPC  C21121283   6.125   5.542   7.706  1.0093  0.2094  0.4016
  185SLPC  H11R21284   6.063   5.504   7.623  1.6628 -0.1081  0.0462
  185SLPC  H11S21285   6.128   5.458   7.779  1.3483 -1.3344 -1.3088
  185SLPC  C21221286   6.255   5.589   7.647 -0.3203  0.4629 -0.1633
  185SLPC  H12R21287   6.314   5.652   7.716  0.0750 -0.0232 -0.0543
  185SLPC  C21321288   6.307   5.564   7.520  0.4456 -0.4050 -0.1982
  185SLPC  H13R21289   6.406   5.601   7.489  0.5449 -0.5986 -0.1152
  185SLPC  C21421290   6.244   5.484   7.404  0.3464  0.1246 -0.0741
  185SLPC  H14R21291   6.267   5.527   7.305 -1.3820  2.0965  0.3095
  185SLPC  H14S21292   6.134   5.476   7.410  0.5310 -2.9781  0.8128
  185SLPC  C21521293   6.275   5.329   7.401  1.3524 -0.2395 -0.1619
  185SLPC  H15R21294   6.230   5.289   7.307 -1.1297 -0.8084  1.1838
  185SLPC  H15S21295   6.207   5.286   7.477  0.0402  2.2188  0.1448
  185SLPC  C21621296   6.420   5.297   7.438  0.6057 -0.2323 -0.1811
  185SLPC  H16R21297   6.433   5.294   7.549 -1.0416  0.1917  0.0449
  185SLPC  H16S21298   6.484   5.381   7.404  1.6204 -0.6279  0.6893
  185SLPC  C21721299   6.464   5.161   7.382 -0.1649 -0.3374  0.3155
  185SLPC  H17R21300   6.376   5.093   7.390 -1.2323  0.5364 -2.6722
  185SLPC  H17S21301   6.541   5.103   7.438 -0.4389 -0.1837  0.8541
  185SLPC  C21821302   6.491   5.160   7.231 -0.0197  0.1057  0.3019
  185SLPC  H18R21303   6.513   5.055   7.203  2.8217 -0.5411  4.1673
  185SLPC  H18S21304   6.571   5.236   7.216 -0.9696  0.8460 -1.2189
  185SLPC  H18T21305   6.399   5.200   7.183 -0.8253 -1.6752  0.2899
  185SLPC   C3321306   6.349   6.442   7.323  0.7616  0.0880  0.7457
  185SLPC   H3X21307   6.330   6.542   7.368  0.6449  2.0372 -3.1687
  185SLPC   H3Y21308   6.451   6.411   7.355  0.5221 -0.7304  0.7342
  185SLPC   C3421309   6.246   6.343   7.391 -0.4997 -0.5045 -0.1522
  185SLPC   H4X21310   6.269   6.251   7.334  1.1900  0.8489 -1.7897
  185SLPC   H4Y21311   6.140   6.361   7.367 -0.1484 -1.4198 -2.6198
  185SLPC   C3521312   6.274   6.318   7.537 -0.4114 -0.6645  0.0938
  185SLPC   H5X21313   6.262   6.410   7.598  2.6702  1.0358 -1.6574
  185SLPC   H5Y21314   6.377   6.278   7.547 -0.5390 -1.1910 -0.6218
  185SLPC   C3621315   6.182   6.203   7.601 -0.9677 -0.2639 -0.0573
  185SLPC   H6X21316   6.219   6.109   7.553 -1.0985 -0.5261  0.3494
  185SLPC   H6Y21317   6.075   6.223   7.584 -0.7548 -0.4957 -1.8717
  185SLPC   C3721318   6.214   6.183   7.755  0.6920 -0.3701  0.7376
  185SLPC   H7X21319   6.189   6.276   7.811  0.7264  0.2770 -0.2951
  185SLPC   H7Y21320   6.325   6.180   7.759  1.0608  0.2995 -3.7732
  185SLPC   C3821321   6.154   6.057   7.821 -1.0014  0.2466 -0.5756
  185SLPC   H8X21322   6.178   5.961   7.771  3.1627 -1.1054  3.2348
  185SLPC   H8Y21323   6.044   6.071   7.810 -0.6932  1.9643 -1.8881
  185SLPC   C3921324   6.206   6.042   7.968 -0.8539 -0.2858 -0.1408
  185SLPC   H9X21325   6.209   6.141   8.017 -0.0935 -0.6536  0.5898
  185SLPC   H9Y21326   6.309   6.002   7.960 -0.9341 -0.6289  0.4412
  185SLPC  C31021327   6.120   5.954   8.057 -0.2616 -0.3822  0.3074
  185SLPC  H10X21328   6.098   5.854   8.014  0.0589 -0.1004 -0.5294
  185SLPC  H10Y21329   6.023   6.008   8.056  0.1643  0.4034 -0.1016
  185SLPC  C31121330   6.176   5.943   8.199 -0.0007  0.3927 -0.5013
  185SLPC  H11X21331   6.258   6.017   8.208  0.3683  0.0515 -0.9578
  185SLPC  H11Y21332   6.228   5.845   8.206  0.3185  0.2665 -3.3330
  185SLPC  C31221333   6.072   5.961   8.319 -0.1352 -0.4500  0.2817
  185SLPC  H12X21334   6.002   5.875   8.333 -0.8488  0.1656  0.5798
  185SLPC  H12Y21335   6.010   6.049   8.290 -0.5073 -0.9558 -0.4909
  185SLPC  C31321336   6.150   5.987   8.448  0.6342 -0.1435 -0.3181
  185SLPC  H13X21337   6.080   6.019   8.528  0.1882  0.0786 -0.7949
  185SLPC  H13Y21338   6.230   6.065   8.448  1.3574 -0.8627  0.3202
  185SLPC  C31421339   6.211   5.861   8.508  0.0555 -0.5756  0.5220
  185SLPC  H14X21340   6.286   5.837   8.430 -1.7244 -2.1422 -0.8098
  185SLPC  H14Y21341   6.141   5.775   8.517  0.0931 -0.7571 -0.6766
  185SLPC  C31521342   6.273   5.896   8.644 -0.5141  0.8743  0.1070
  185SLPC  H15X21343   6.202   5.943   8.715 -0.3374  1.1285  0.1148
  185SLPC  H15Y21344   6.349   5.973   8.617 -0.7831  1.0418 -0.1795
  185SLPC  C31621345   6.338   5.768   8.713  0.1377  0.0890 -0.1088
  185SLPC  H16X21346   6.434   5.742   8.664  0.9101  2.3455  0.0585
  185SLPC  H16Y21347   6.260   5.689   8.705 -0.8750  0.9199  1.0400
  185SLPC  C31721348   6.366   5.793   8.865  0.5758 -0.4970  0.9057
  185SLPC  H17X21349   6.285   5.856   8.908 -0.7812 -2.8937  2.0391
  185SLPC  H17Y21350   6.467   5.838   8.870 -0.9511  3.6265 -0.6370
  185SLPC  C31821351   6.348   5.673   8.959  0.2662  0.4397  0.2044
  185SLPC  H18X21352   6.364   5.715   9.061  0.2169 -0.1867  0.4742
  185SLPC  H18Y21353   6.428   5.603   8.926  0.8867  1.4047 -0.3662
  185SLPC  H18Z21354   6.244   5.638   8.946  0.9212 -1.3457 -0.5548
  186SLPC     N21355   1.763   1.790   6.068 -0.1150 -0.7467 -0.4918
  186SLPC   C1321356   1.611   1.772   6.057 -0.3565 -0.0663  0.1322
  186SLPC  H13A21357   1.590   1.677   6.010  1.7798 -0.2329 -0.6198
  186SLPC  H13B21358   1.559   1.780   6.151  0.2076 -1.0532  0.5407
  186SLPC  H13C21359   1.571   1.850   5.994  0.0809  1.1217  1.2722
  186SLPC   C1421360   1.828   1.789   5.933  0.2376  0.5822  0.5705
  186SLPC  H14A21361   1.804   1.879   5.878  0.3715  1.6084  2.1577
  186SLPC  H14B21362   1.933   1.799   5.954  0.6779 -1.6661 -0.2363
  186SLPC  H14C21363   1.800   1.702   5.875  0.2521 -0.4026  2.0083
  186SLPC   C1521364   1.817   1.665   6.136  0.5217 -0.4514 -0.2760
  186SLPC  H15A21365   1.772   1.576   6.094 -2.1487  0.5788  0.1609
  186SLPC  H15B21366   1.924   1.660   6.145  0.6009  2.5981  2.0760
  186SLPC  H15C21367   1.766   1.668   6.232 -3.3752  0.8801 -2.1562
  186SLPC   C1221368   1.794   1.918   6.149  0.2278 -0.0720 -0.2566
  186SLPC  H12A21369   1.776   2.002   6.084  0.4852  0.4571  0.3583
  186SLPC  H12B21370   1.901   1.926   6.163  0.1096 -0.7894  1.2071
  186SLPC   C1121371   1.735   1.936   6.292 -0.3790 -0.9137 -0.7481
  186SLPC  H11A21372   1.759   2.036   6.333 -1.2125 -1.5319  1.3897
  186SLPC  H11B21373   1.790   1.878   6.369 -0.9421 -0.3954  0.0597
  186SLPC     P21374   1.516   1.877   6.431 -0.1465 -0.3930 -0.0286
  186SLPC   O1321375   1.507   1.996   6.519 -0.1913  0.1490 -0.4047
  186SLPC   O1421376   1.385   1.827   6.383  0.1267 -0.3760 -0.4718
  186SLPC   O1221377   1.597   1.920   6.303 -0.0704  0.3009  0.0872
  186SLPC   O1121378   1.592   1.757   6.508 -0.5934  0.2814  0.0615
  186SLPC    C121379   1.515   1.677   6.602  0.0435 -0.2917  0.4852
  186SLPC    HA21380   1.413   1.716   6.617 -0.5910 -2.1856  1.3622
  186SLPC    HB21381   1.499   1.575   6.561 -0.8707  0.2971 -0.6863
  186SLPC    C221382   1.589   1.660   6.739  0.3134  0.0526  0.6782
  186SLPC    HS21383   1.522   1.597   6.802  0.3711  0.3046  0.9933
  186SLPC   O2121384   1.619   1.782   6.811  0.2554 -0.8078 -0.0487
  186SLPC   C2121385   1.522   1.856   6.839  0.8629  0.2872  0.4504
  186SLPC   O2221386   1.401   1.830   6.829 -0.7441  0.3625  0.2664
  186SLPC   C2221387   1.569   1.988   6.878  0.3014 -0.5444  0.4614
  186SLPC   H2R21388   1.676   1.983   6.908  0.5455 -2.5582 -0.5818
  186SLPC   H2S21389   1.562   2.054   6.789 -1.5452 -0.9670  0.2468
  186SLPC    C321390   1.717   1.570   6.716  0.4983 -0.0133 -0.3545
  186SLPC    HX21391   1.787   1.619   6.645  2.2844 -0.8578  0.7707
  186SLPC    HY21392   1.690   1.470   6.676  0.2011  0.1748 -0.6335
  186SLPC   O3121393   1.791   1.561   6.836 -0.0532  0.0133  0.1205
  186SLPC   C3121394   1.736   1.468   6.917  0.3074 -0.4461  0.7428
  186SLPC   O3221395   1.644   1.397   6.873  0.2754 -0.1456  0.0117
  186SLPC   C3221396   1.790   1.467   7.060 -0.2075  0.2712  0.1751
  186SLPC   H2X21397   1.749   1.551   7.120 -0.2359  0.6166 -0.3226
  186SLPC   H2Y21398   1.896   1.497   7.044  0.3436 -2.1408 -1.1770
  186SLPC   C2321399   1.480   2.052   6.989  0.1390  0.1783  0.5672
  186SLPC   H3R21400   1.376   2.067   6.953  0.1688  0.8241  0.7267
  186SLPC   H3S21401   1.524   2.153   7.003  0.1205  0.2973 -0.1824
  186SLPC   C2421402   1.500   1.977   7.125  0.5156  0.3066 -0.0308
  186SLPC   H4R21403   1.607   1.981   7.156  0.1756 -0.5532  1.3262
  186SLPC   H4S21404   1.478   1.870   7.108 -0.6551  0.6782 -1.0180
  186SLPC   C2521405   1.438   2.044   7.239  0.2749  0.0271  0.5051
  186SLPC   H5R21406   1.337   2.082   7.210  1.9150  1.8552 -3.5680
  186SLPC   H5S21407   1.494   2.135   7.269 -0.2018  0.5278 -0.0977
  186SLPC   C2621408   1.424   1.953   7.357  0.3452  0.1440  0.4772
  186SLPC   H6R21409   1.425   1.850   7.316 -0.9593 -0.1023  1.0107
  186SLPC   H6S21410   1.330   1.979   7.410 -1.2963  1.3121 -2.6892
  186SLPC   C2721411   1.540   1.961   7.454  0.0572  0.2699 -0.7134
  186SLPC   H7R21412   1.532   2.056   7.511 -0.5623  0.2477 -0.7545
  186SLPC   H7S21413   1.631   1.950   7.391  1.7452  1.4064  1.4253
  186SLPC   C2821414   1.549   1.844   7.547 -0.4505 -0.1914  0.2861
  186SLPC   H8R21415   1.555   1.753   7.484  2.1169 -0.8636  1.3963
  186SLPC   H8S21416   1.453   1.833   7.600 -0.9387 -0.1397 -0.5651
  186SLPC   C2921417   1.665   1.862   7.642 -0.8387 -0.5453  0.1120
  186SLPC   H9R21418   1.767   1.863   7.601  0.2198 -0.1346  2.5990
  186SLPC  C21021419   1.647   1.884   7.776 -0.1156 -0.6595  0.4708
  186SLPC  H10R21420   1.739   1.907   7.831  0.0315 -0.9386  0.3403
  186SLPC  C21121421   1.522   1.911   7.858  0.0155  0.1352 -0.7715
  186SLPC  H11R21422   1.430   1.867   7.812  0.5174 -0.0792 -1.6044
  186SLPC  H11S21423   1.500   2.018   7.841 -2.1277 -0.3471 -1.3951
  186SLPC  C21221424   1.533   1.898   8.014  0.2329 -0.0033 -0.0143
  186SLPC  H12R21425   1.632   1.915   8.058  0.0652 -2.5191  1.5214
  186SLPC  C21321426   1.436   1.842   8.092  0.9796  0.1279 -0.4378
  186SLPC  H13R21427   1.457   1.834   8.199  1.0210  0.4250 -0.4217
  186SLPC  C21421428   1.288   1.808   8.051 -0.4587 -0.0218 -0.6282
  186SLPC  H14R21429   1.281   1.809   7.940  2.1872  1.9421 -0.8749
  186SLPC  H14S21430   1.229   1.896   8.085  2.1628  0.7940  2.4219
  186SLPC  C21521431   1.238   1.674   8.109 -0.4474 -0.1922 -0.2644
  186SLPC  H15R21432   1.234   1.673   8.220  2.7008 -1.1015 -0.0655
  186SLPC  H15S21433   1.317   1.603   8.078  0.6395  0.7986  0.1389
  186SLPC  C21621434   1.104   1.619   8.059  0.8645  0.0109  0.1975
  186SLPC  H16R21435   1.099   1.585   7.953 -0.8614  1.0844 -0.1097
  186SLPC  H16S21436   1.024   1.695   8.071 -0.5394 -1.1709 -1.1484
  186SLPC  C21721437   1.037   1.512   8.149 -0.2780 -0.1496 -0.1488
  186SLPC  H17R21438   0.936   1.483   8.113 -0.4425  1.5001 -1.1021
  186SLPC  H17S21439   1.029   1.561   8.248 -0.4702 -1.2446  0.4022
  186SLPC  C21821440   1.137   1.393   8.179 -0.2231  0.2776  0.4651
  186SLPC  H18R21441   1.233   1.432   8.219  0.5408 -2.2529  1.2540
  186SLPC  H18S21442   1.159   1.332   8.089 -1.5424  0.9196 -0.3204
  186SLPC  H18T21443   1.110   1.315   8.253  2.6751 -0.4097  0.9068
  186SLPC   C3321444   1.770   1.330   7.137 -0.7782 -0.2792  0.1746
  186SLPC   H3X21445   1.780   1.243   7.068 -0.7211 -0.5805  0.5629
  186SLPC   H3Y21446   1.672   1.322   7.188  0.5815 -1.2083  2.8139
  186SLPC   C3421447   1.870   1.303   7.249  0.3654  0.4683 -0.5862
  186SLPC   H4X21448   1.867   1.382   7.327  1.0845  1.0567 -1.1323
  186SLPC   H4Y21449   1.974   1.306   7.210  0.7896 -1.0495  0.3304
  186SLPC   C3521450   1.835   1.167   7.309 -0.1058 -0.1625 -0.7750
  186SLPC   H5X21451   1.873   1.096   7.232 -0.1288 -0.2287 -0.7254
  186SLPC   H5Y21452   1.725   1.159   7.321 -0.0353  0.4423  0.4552
  186SLPC   C3621453   1.914   1.133   7.439  0.8523  0.0921 -0.3716
  186SLPC   H6X21454   1.878   1.039   7.486  2.1672 -0.5908 -0.6861
  186SLPC   H6Y21455   1.897   1.224   7.501 -1.7802  0.8199 -1.9564
  186SLPC   C3721456   2.058   1.107   7.420 -0.2026  0.0950  0.3216
  186SLPC   H7X21457   2.101   1.187   7.356  0.9216 -0.7895 -0.0818
  186SLPC   H7Y21458   2.071   1.019   7.352  1.4486  1.5794 -1.4159
  186SLPC   C3821459   2.155   1.095   7.542  0.1264  0.0289  0.6592
  186SLPC   H8X21460   2.125   1.177   7.611  0.5439  2.3087 -1.7278
  186SLPC   H8Y21461   2.260   1.104   7.508  0.2506 -0.4149  0.9189
  186SLPC   C3921462   2.144   0.955   7.607 -0.1704 -0.5057 -0.1065
  186SLPC   H9X21463   2.203   0.878   7.552 -0.7602 -0.8428 -0.2684
  186SLPC   H9Y21464   2.037   0.927   7.614  0.1751 -2.6910 -2.1418
  186SLPC  C31021465   2.200   0.974   7.744  0.1036  0.2390 -0.5635
  186SLPC  H10X21466   2.126   1.022   7.811  1.5881  0.8568  0.6877
  186SLPC  H10Y21467   2.287   1.042   7.735 -1.8835  3.0966  0.7053
  186SLPC  C31121468   2.241   0.840   7.815 -0.0943  0.1138 -0.5433
  186SLPC  H11X21469   2.318   0.784   7.756  0.0672 -1.5827  1.2036
  186SLPC  H11Y21470   2.156   0.769   7.808  1.1780 -1.5352 -0.1264
  186SLPC  C31221471   2.272   0.863   7.956  0.3279  0.6297 -0.0230
  186SLPC  H12X21472   2.186   0.921   7.997 -0.3269 -1.2121  1.3175
  186SLPC  H12Y21473   2.357   0.934   7.965 -0.6824  2.0194 -1.0122
  186SLPC  C31321474   2.299   0.738   8.034  0.6511  0.6135 -0.2372
  186SLPC  H13X21475   2.394   0.704   7.989 -0.9876 -1.2316 -2.5637
  186SLPC  H13Y21476   2.226   0.657   8.013  0.2212  0.8333  0.3798
  186SLPC  C31421477   2.319   0.756   8.180  0.2954  0.1834 -1.2782
  186SLPC  H14X21478   2.226   0.785   8.234  0.8162 -0.1395 -0.1770
  186SLPC  H14Y21479   2.392   0.839   8.192 -0.0316  0.6271 -2.2654
  186SLPC  C31521480   2.385   0.631   8.247 -0.3999 -0.6258 -0.2622
  186SLPC  H15X21481   2.482   0.619   8.194 -0.8427 -0.0328 -1.2204
  186SLPC  H15Y21482   2.323   0.544   8.218 -2.8740  1.0465 -0.2379
  186SLPC  C31621483   2.403   0.646   8.401 -1.0197  0.7878 -0.4266
  186SLPC  H16X21484   2.298   0.660   8.436 -0.8236 -1.4427  1.2952
  186SLPC  H16Y21485   2.471   0.729   8.429 -0.0534  0.4112 -1.5910
  186SLPC  C31721486   2.450   0.516   8.470  0.1122  0.8726  1.1573
  186SLPC  H17X21487   2.382   0.430   8.448 -0.5273  2.0903 -2.2350
  186SLPC  H17Y21488   2.448   0.534   8.579  0.0056  0.6033  1.2013
  186SLPC  C31821489   2.589   0.466   8.422 -0.0264 -0.2036 -0.3907
  186SLPC  H18X21490   2.620   0.382   8.488  0.5318  0.0204 -0.3601
  186SLPC  H18Y21491   2.672   0.538   8.438 -0.6529  0.2161  1.0643
  186SLPC  H18Z21492   2.587   0.434   8.315 -1.7835  2.2521 -1.1640
  187SLPC     N21493   0.658   3.939   5.967 -0.2973 -0.2425 -0.2013
  187SLPC   C1321494   0.786   3.966   5.898 -0.2122  0.3802  0.0312
  187SLPC  H13A21495   0.767   4.030   5.813 -0.2531  1.2845  0.7038
  187SLPC  H13B21496   0.845   4.015   5.974 -3.2583  0.3933  2.5907
  187SLPC  H13C21497   0.841   3.876   5.871 -0.7244  0.2346 -0.5331
  187SLPC   C1421498   0.584   3.826   5.902  0.5276 -0.1751 -0.0036
  187SLPC  H14A21499   0.487   3.827   5.950  0.6944 -2.4833  0.4805
  187SLPC  H14B21500   0.569   3.847   5.798  0.0691  1.9717  0.4357
  187SLPC  H14C21501   0.631   3.730   5.915  2.5972  0.2492 -3.3486
  187SLPC   C1521502   0.578   4.071   5.955  0.1231  0.8404 -0.2189
  187SLPC  H15A21503   0.504   4.065   6.033  0.5931 -0.7624  0.1241
  187SLPC  H15B21504   0.640   4.158   5.965  3.6431 -1.5580  0.5178
  187SLPC  H15C21505   0.525   4.072   5.860 -0.8641  0.2523  0.3066
  187SLPC   C1221506   0.682   3.905   6.111 -0.2369  0.2388  0.2051
  187SLPC  H12A21507   0.584   3.914   6.156 -0.9010  0.2537 -1.1939
  187SLPC  H12B21508   0.748   3.978   6.155  0.0398  0.0331  0.1332
  187SLPC   C1121509   0.735   3.761   6.148  0.0851  0.0248 -0.1697
  187SLPC  H11A21510   0.786   3.775   6.245 -1.8005  1.5129  0.6891
  187SLPC  H11B21511   0.806   3.736   6.066 -0.5786 -0.5449 -0.5835
  187SLPC     P21512   0.510   3.659   6.242  0.5501 -0.1038 -0.3750
  187SLPC   O1321513   0.466   3.796   6.270 -0.0408 -0.6072  0.1709
  187SLPC   O1421514   0.410   3.567   6.190 -0.1505  0.0532 -0.1273
  187SLPC   O1221515   0.630   3.667   6.147  0.1186  0.2841 -0.3604
  187SLPC   O1121516   0.580   3.603   6.371  0.2322  0.0734 -0.3630
  187SLPC    C121517   0.608   3.689   6.490 -0.0113  0.4127 -0.2955
  187SLPC    HA21518   0.612   3.796   6.461  0.0153  0.1198 -1.4175
  187SLPC    HB21519   0.522   3.692   6.561  1.7032  1.6197  1.8427
  187SLPC    C221520   0.746   3.660   6.561  0.5994 -0.3098 -0.7832
  187SLPC    HS21521   0.817   3.634   6.480  2.2509  0.5985  0.3021
  187SLPC   O2121522   0.717   3.558   6.658 -0.0280 -0.0864  0.0323
  187SLPC   C2121523   0.809   3.480   6.686 -0.2858  0.2004  0.6435
  187SLPC   O2221524   0.929   3.495   6.655  0.0541 -0.2286  0.4151
  187SLPC   C2221525   0.757   3.351   6.752 -0.1707  0.3039 -0.0945
  187SLPC   H2R21526   0.647   3.355   6.740 -0.3085 -0.5934  0.7504
  187SLPC   H2S21527   0.775   3.260   6.692 -4.4223 -1.5090  1.0076
  187SLPC    C321528   0.812   3.793   6.621  0.3574  0.3923  0.3980
  187SLPC    HX21529   0.727   3.860   6.645  0.4216  0.8944 -0.7314
  187SLPC    HY21530   0.875   3.845   6.546  1.5344  0.8475  1.6518
  187SLPC   O3121531   0.895   3.767   6.738 -0.3364 -0.1813  0.4522
  187SLPC   C3121532   0.840   3.752   6.856  0.6621 -0.1087 -0.2419
  187SLPC   O3221533   0.726   3.777   6.882  0.5271 -0.0308  0.2684
  187SLPC   C3221534   0.946   3.689   6.948  0.3127  0.4623 -0.3659
  187SLPC   H2X21535   1.028   3.765   6.949  1.8231 -1.0825 -1.1195
  187SLPC   H2Y21536   0.974   3.592   6.900 -0.2105 -0.2179  0.6911
  187SLPC   C2321537   0.827   3.331   6.893 -0.5011 -0.8141 -0.5664
  187SLPC   H3R21538   0.805   3.420   6.955 -2.6879 -0.7422 -1.3745
  187SLPC   H3S21539   0.938   3.334   6.886 -0.5497  0.2262 -1.0795
  187SLPC   C2421540   0.784   3.198   6.954  0.1296 -0.3324  0.3375
  187SLPC   H4R21541   0.785   3.121   6.873 -1.1016  0.6652 -0.6861
  187SLPC   H4S21542   0.679   3.220   6.983  0.7632  0.0339  2.5066
  187SLPC   C2521543   0.868   3.167   7.076 -0.4983  0.1625 -0.3056
  187SLPC   H5R21544   0.861   3.257   7.140 -1.3426  0.2828 -0.5514
  187SLPC   H5S21545   0.974   3.148   7.050 -0.3770 -0.2207  0.4418
  187SLPC   C2621546   0.826   3.035   7.145  0.0117 -0.7917 -0.1510
  187SLPC   H6R21547   0.887   3.015   7.235 -1.2774  0.4000  1.0216
  187SLPC   H6S21548   0.832   2.954   7.068 -0.3195  0.8300 -1.9586
  187SLPC   C2721549   0.675   3.033   7.181 -0.4257  0.2124  0.0115
  187SLPC   H7R21550   0.617   3.032   7.086  0.1589  0.1532 -0.3476
  187SLPC   H7S21551   0.653   3.133   7.224 -0.3233  1.8710 -3.4819
  187SLPC   C2821552   0.625   2.910   7.260  0.3753  0.0965  0.0118
  187SLPC   H8R21553   0.688   2.889   7.350  1.1201  1.1020 -0.2617
  187SLPC   H8S21554   0.640   2.825   7.190 -3.3514 -1.0621  0.3983
  187SLPC   C2921555   0.478   2.913   7.305 -0.4063 -0.0533  0.5329
  187SLPC   H9R21556   0.460   2.979   7.391 -0.0347  2.3689 -1.1390
  187SLPC  C21021557   0.371   2.850   7.254  0.7218 -0.0032 -0.4412
  187SLPC  H10R21558   0.274   2.858   7.304  0.4639  0.4502 -0.9986
  187SLPC  C21121559   0.377   2.759   7.135  0.7857 -0.2977 -0.4275
  187SLPC  H11R21560   0.372   2.656   7.174 -0.1893 -0.5312 -1.1255
  187SLPC  H11S21561   0.469   2.784   7.078  1.1522 -0.5394  0.0570
  187SLPC  C21221562   0.263   2.782   7.029  0.0140 -0.7561 -0.2127
  187SLPC  H12R21563   0.289   2.832   6.935 -0.7376  0.6374  0.2903
  187SLPC  C21321564   0.139   2.729   7.041  0.2162 -0.1472 -0.9566
  187SLPC  H13R21565   0.056   2.764   6.977 -0.8660  0.6718  0.7884
  187SLPC  C21421566   0.076   2.657   7.159 -0.2795 -0.9100  0.4616
  187SLPC  H14R21567   0.145   2.640   7.245 -0.6149 -0.0824  0.9047
  187SLPC  H14S21568   0.038   2.560   7.121  0.3464 -0.2452 -2.0139
  187SLPC  C21521569  -0.051   2.721   7.202 -0.0141  0.6132 -0.0221
  187SLPC  H15R21570  -0.125   2.709   7.120 -0.3623 -1.6234  0.5539
  187SLPC  H15S21571  -0.035   2.831   7.211 -2.5604  0.9797  0.6283
  187SLPC  C21621572  -0.105   2.675   7.342  0.5009 -0.0537 -0.3055
  187SLPC  H16R21573  -0.015   2.661   7.405  1.1059 -1.2840 -1.3870
  187SLPC  H16S21574  -0.172   2.587   7.333 -2.9628  2.2657  0.7027
  187SLPC  C21721575  -0.189   2.790   7.407 -0.5180  0.7564 -0.3913
  187SLPC  H17R21576  -0.270   2.822   7.338  0.4680 -0.6667 -2.3174
  187SLPC  H17S21577  -0.126   2.875   7.439  2.1212 -1.8911  2.0545
  187SLPC  C21821578  -0.253   2.734   7.537  0.6872  0.1187 -0.3735
  187SLPC  H18R21579  -0.271   2.827   7.596  1.1984  1.1285 -1.7518
  187SLPC  H18S21580  -0.190   2.670   7.602  1.1379 -1.3009 -2.1214
  187SLPC  H18T21581  -0.346   2.680   7.510  0.2621  0.7790 -0.2348
  187SLPC   C3321582   0.899   3.649   7.092 -0.1019 -0.5433  0.4050
  187SLPC   H3X21583   0.805   3.589   7.087 -0.4168 -0.0656  0.5944
  187SLPC   H3Y21584   0.880   3.741   7.151  2.6019  0.2773  0.1238
  187SLPC   C3421585   1.004   3.570   7.177 -0.3016 -0.1704 -0.3033
  187SLPC   H4X21586   1.102   3.622   7.188  0.2265 -0.3913 -3.1841
  187SLPC   H4Y21587   1.025   3.473   7.127 -0.9720 -1.5484  1.9429
  187SLPC   C3521588   0.949   3.530   7.314  1.1529 -0.1690 -0.2360
  187SLPC   H5X21589   0.844   3.492   7.316  0.8687  0.5561 -0.7727
  187SLPC   H5Y21590   0.947   3.622   7.377 -2.1515 -0.9590  1.0204
  187SLPC   C3621591   1.030   3.411   7.379  0.1355  0.2046  0.0115
  187SLPC   H6X21592   1.124   3.452   7.422 -0.6542  2.8806 -0.6274
  187SLPC   H6Y21593   1.062   3.345   7.295  1.9331 -0.9159  1.4811
  187SLPC   C3721594   0.953   3.323   7.482  0.0348 -0.4388  0.1555
  187SLPC   H7X21595   0.903   3.387   7.558  0.2555  0.2006 -0.2307
  187SLPC   H7Y21596   0.877   3.261   7.431 -0.3787  0.6506 -0.5860
  187SLPC   C3821597   1.038   3.230   7.570 -0.0549 -0.1907  0.1433
  187SLPC   H8X21598   1.123   3.288   7.612  0.5514 -1.8254  1.2648
  187SLPC   H8Y21599   1.084   3.152   7.505 -0.0223 -1.0972  1.2362
  187SLPC   C3921600   0.975   3.162   7.689  0.0642 -0.6855  0.2510
  187SLPC   H9X21601   0.935   3.249   7.745  1.8128  0.1511  0.2828
  187SLPC   H9Y21602   1.048   3.117   7.760 -0.2566  0.4972  1.3734
  187SLPC  C31021603   0.853   3.071   7.676 -0.0281  0.3344  0.1463
  187SLPC  H10X21604   0.848   2.979   7.614 -1.9352  0.5038 -0.0118
  187SLPC  H10Y21605   0.776   3.139   7.633 -0.1893  0.3804  0.5022
  187SLPC  C31121606   0.814   3.013   7.808  0.0555  0.5143  0.6694
  187SLPC  H11X21607   0.804   3.081   7.896 -2.7557 -1.4391  2.0249
  187SLPC  H11Y21608   0.888   2.933   7.828  0.0360 -0.4019 -2.5081
  187SLPC  C31221609   0.686   2.929   7.787  0.1850 -0.2760  0.0301
  187SLPC  H12X21610   0.691   2.841   7.720  1.3982  0.2653 -0.6207
  187SLPC  H12Y21611   0.605   2.994   7.747  0.0786 -0.3303  0.1600
  187SLPC  C31321612   0.627   2.875   7.919 -0.3090 -0.4078  0.0463
  187SLPC  H13X21613   0.600   2.966   7.978 -1.2224 -0.4476 -0.2843
  187SLPC  H13Y21614   0.708   2.824   7.974 -2.4474 -4.1442  0.0733
  187SLPC  C31421615   0.513   2.778   7.896  0.0832  0.6366 -0.4024
  187SLPC  H14X21616   0.543   2.712   7.811  0.4142  0.0637  0.1538
  187SLPC  H14Y21617   0.415   2.820   7.867 -2.5173 -3.4013  1.6281
  187SLPC  C31521618   0.490   2.686   8.015 -0.0000  0.3303 -0.2758
  187SLPC  H15X21619   0.588   2.655   8.059  0.3923 -1.4198 -2.2252
  187SLPC  H15Y21620   0.450   2.587   7.984  0.3425 -0.7736  2.5401
  187SLPC  C31621621   0.419   2.756   8.125  0.3094 -0.3181 -0.0038
  187SLPC  H16X21622   0.327   2.804   8.085  1.4570  1.1010 -1.0351
  187SLPC  H16Y21623   0.476   2.839   8.171  0.5989 -1.7789  2.4307
  187SLPC  C31721624   0.378   2.651   8.230 -0.7441 -0.0940 -0.2566
  187SLPC  H17X21625   0.464   2.586   8.255  0.4301  0.3716 -2.7310
  187SLPC  H17Y21626   0.296   2.585   8.195 -1.1663 -0.0584  0.6408
  187SLPC  C31821627   0.338   2.711   8.370 -0.1965  0.6148  0.2065
  187SLPC  H18X21628   0.428   2.755   8.416  2.8394 -0.5325 -3.9723
  187SLPC  H18Y21629   0.295   2.624   8.423  1.2003 -0.7947 -0.8758
  187SLPC  H18Z21630   0.255   2.784   8.353 -0.6817 -0.4579 -2.7043
  188SLPC     N21631   2.213   2.999   6.266  0.6086  0.0469 -0.5324
  188SLPC   C1321632   2.074   2.946   6.267  0.1685 -0.2966  1.0480
  188SLPC  H13A21633   2.032   2.971   6.363  1.9075  0.6775  1.5868
  188SLPC  H13B21634   2.023   2.981   6.178  1.5162 -2.7854 -0.8338
  188SLPC  H13C21635   2.072   2.838   6.258 -0.8127 -0.3083  1.2219
  188SLPC   C1421636   2.296   2.950   6.156 -0.5372  0.5209  0.6892
  188SLPC  H14A21637   2.392   2.998   6.160 -1.4934  2.4318  2.2339
  188SLPC  H14B21638   2.304   2.842   6.164 -2.3764  0.1304 -1.4885
  188SLPC  H14C21639   2.247   2.972   6.062 -0.2065  2.3174  0.9155
  188SLPC   C1521640   2.273   2.974   6.397 -0.3721  0.5608 -0.2492
  188SLPC  H15A21641   2.313   2.875   6.408 -0.9389  0.5711  2.5907
  188SLPC  H15B21642   2.358   3.041   6.401 -0.0342  0.0701  2.3679
  188SLPC  H15C21643   2.209   2.993   6.481 -0.8252 -3.1596  0.4080
  188SLPC   C1221644   2.196   3.151   6.251  0.1439  0.2965  1.1618
  188SLPC  H12A21645   2.123   3.157   6.172  1.5749 -0.9328 -0.3222
  188SLPC  H12B21646   2.291   3.181   6.209 -0.1211 -2.4859 -1.8426
  188SLPC   C1121647   2.146   3.241   6.366 -0.3186  0.0386  0.4014
  188SLPC  H11A21648   2.142   3.348   6.338  2.2825  0.2445  0.5848
  188SLPC  H11B21649   2.223   3.250   6.446 -0.1167  0.0358  0.2086
  188SLPC     P21650   1.966   3.253   6.553 -0.2583  0.0491  0.0272
  188SLPC   O1321651   2.082   3.294   6.631  0.5981 -0.7458 -0.5364
  188SLPC   O1421652   1.872   3.355   6.505  0.4599  0.9324  0.6942
  188SLPC   O1221653   2.026   3.181   6.426 -0.2471 -0.0619  0.1213
  188SLPC   O1121654   1.891   3.136   6.622  0.4718 -0.5872 -0.0421
  188SLPC    C121655   1.765   3.081   6.580  0.2412  0.0442  0.3976
  188SLPC    HA21656   1.747   3.094   6.471  1.7093  0.7130  0.2038
  188SLPC    HB21657   1.764   2.972   6.599  0.4374  0.0841  0.6399
  188SLPC    C221658   1.644   3.145   6.651  0.9139  0.0268  0.3974
  188SLPC    HS21659   1.647   3.255   6.637 -3.8891  0.2253 -0.9759
  188SLPC   O2121660   1.653   3.111   6.784 -0.5418  0.4915 -0.0709
  188SLPC   C2121661   1.686   3.205   6.873  0.4323  0.3488 -0.0550
  188SLPC   O2221662   1.701   3.323   6.850  0.3857 -0.1567 -0.0648
  188SLPC   C2221663   1.717   3.130   7.008  0.3288 -0.4969  0.6788
  188SLPC   H2R21664   1.658   3.037   7.023 -0.6474 -0.2197 -1.2545
  188SLPC   H2S21665   1.824   3.106   6.991  0.1742  0.5730 -2.2701
  188SLPC    C321666   1.508   3.093   6.602 -0.1199  0.5095  0.0086
  188SLPC    HX21667   1.502   2.988   6.638 -0.7764  0.9932  1.3875
  188SLPC    HY21668   1.505   3.094   6.491  0.6576  1.2417 -0.0134
  188SLPC   O3121669   1.400   3.159   6.664 -0.0868 -0.0658 -0.3824
  188SLPC   C3121670   1.350   3.260   6.601  0.0674 -0.3818  0.3802
  188SLPC   O3221671   1.393   3.306   6.495  0.0633 -0.1743 -0.4895
  188SLPC   C3221672   1.234   3.323   6.682 -0.0220  0.4782  0.5067
  188SLPC   H2X21673   1.191   3.244   6.747  1.0707 -1.6717 -1.2365
  188SLPC   H2Y21674   1.157   3.340   6.603 -0.8967 -2.1700  0.7110
  188SLPC   C2321675   1.707   3.225   7.122  0.2168 -0.0059 -0.6325
  188SLPC   H3R21676   1.599   3.244   7.140  0.6236  1.7275  0.1501
  188SLPC   H3S21677   1.742   3.327   7.096 -0.7533  0.0236 -1.8961
  188SLPC   C2421678   1.767   3.168   7.251 -0.3968  0.2216  0.5000
  188SLPC   H4R21679   1.741   3.223   7.345 -1.1010 -0.2011  0.5616
  188SLPC   H4S21680   1.878   3.170   7.245 -0.4444  2.1264 -0.6549
  188SLPC   C2521681   1.731   3.015   7.269  0.1527  0.2856 -0.1341
  188SLPC   H5R21682   1.796   2.955   7.202 -0.8214 -3.0978  1.7396
  188SLPC   H5S21683   1.623   2.998   7.246 -0.0063 -2.6794  2.2764
  188SLPC   C2621684   1.752   2.967   7.413  0.1258 -1.3176 -0.6150
  188SLPC   H6R21685   1.734   2.858   7.426  1.9773 -1.6797 -0.6972
  188SLPC   H6S21686   1.697   3.025   7.489 -1.3854 -1.3953 -1.6085
  188SLPC   C2721687   1.897   2.965   7.451 -0.2619 -0.9086 -0.1143
  188SLPC   H7R21688   1.933   3.069   7.468  2.2383 -1.9228  1.4742
  188SLPC   H7S21689   1.946   2.919   7.363 -0.1611 -1.5189  0.2571
  188SLPC   C2821690   1.932   2.889   7.578 -0.1674  0.2889 -0.3083
  188SLPC   H8R21691   2.037   2.896   7.614 -0.3122 -4.1431  1.6099
  188SLPC   H8S21692   1.918   2.780   7.567  0.7344 -0.3370  3.2741
  188SLPC   C2921693   1.846   2.938   7.697  0.4914  0.5630  0.0752
  188SLPC   H9R21694   1.762   2.871   7.722  0.6796  0.5179  0.6153
  188SLPC  C21021695   1.881   3.032   7.785 -0.5263 -0.3314 -0.1859
  188SLPC  H10R21696   1.809   3.055   7.865 -0.7572 -0.0691 -0.4682
  188SLPC  C21121697   2.020   3.102   7.783 -0.2937 -0.5338 -0.2889
  188SLPC  H11R21698   2.083   3.074   7.696 -2.2354 -0.5550 -1.7473
  188SLPC  H11S21699   2.083   3.073   7.869 -0.6695 -0.8228 -0.1085
  188SLPC  C21221700   2.002   3.251   7.766  0.1286  0.1514 -0.7424
  188SLPC  H12R21701   1.971   3.280   7.665  1.6359  0.3856 -1.1653
  188SLPC  C21321702   2.031   3.349   7.858  0.4274  0.2242  0.3617
  188SLPC  H13R21703   2.021   3.454   7.827 -1.7438 -0.2058 -0.6017
  188SLPC  C21421704   2.088   3.327   8.000  1.0908 -0.1636  0.1265
  188SLPC  H14R21705   2.150   3.234   8.001 -1.2773 -1.8395 -0.4996
  188SLPC  H14S21706   2.004   3.320   8.071  0.7224  1.9161 -0.0368
  188SLPC  C21521707   2.175   3.448   8.045 -0.7903 -0.7954  0.1747
  188SLPC  H15R21708   2.117   3.543   8.050  2.3734  1.3354 -0.1981
  188SLPC  H15S21709   2.252   3.476   7.970 -1.6336 -2.3448 -1.3384
  188SLPC  C21621710   2.235   3.422   8.183 -0.3227 -0.1732 -0.0945
  188SLPC  H16R21711   2.307   3.505   8.197 -0.2352 -0.2648  0.0104
  188SLPC  H16S21712   2.296   3.331   8.162 -1.3270 -1.3863  1.8927
  188SLPC  C21721713   2.147   3.403   8.307  0.3575 -0.0805  0.3653
  188SLPC  H17R21714   2.071   3.328   8.278  0.1226  0.8536 -1.6220
  188SLPC  H17S21715   2.092   3.498   8.324 -3.1443 -1.7074 -0.8877
  188SLPC  C21821716   2.219   3.347   8.429 -0.0523 -0.5122  0.6110
  188SLPC  H18R21717   2.140   3.297   8.489 -2.2052  2.8260  0.8480
  188SLPC  H18S21718   2.264   3.427   8.492  1.2849 -0.4799 -0.3340
  188SLPC  H18T21719   2.287   3.264   8.402  1.4039  1.2148 -1.4534
  188SLPC   C3321720   1.272   3.449   6.768  0.6160  0.0601 -0.1964
  188SLPC   H3X21721   1.193   3.526   6.787  2.2244  1.8308 -0.4016
  188SLPC   H3Y21722   1.348   3.510   6.716  0.5120 -0.6431 -1.1938
  188SLPC   C3421723   1.336   3.408   6.899 -0.1355 -0.2208  0.1686
  188SLPC   H4X21724   1.426   3.343   6.889 -1.6892 -2.3483 -0.7157
  188SLPC   H4Y21725   1.263   3.344   6.953 -1.5148  1.2538  0.1327
  188SLPC   C3521726   1.361   3.532   6.981  0.1899 -0.2616  0.4679
  188SLPC   H5X21727   1.267   3.570   7.025  1.6609  2.9893  1.0983
  188SLPC   H5Y21728   1.400   3.608   6.910 -1.6594  0.2007 -0.1148
  188SLPC   C3621729   1.447   3.511   7.107  0.4115 -0.1374  0.4450
  188SLPC   H6X21730   1.458   3.612   7.152  0.3426  0.4882 -0.8906
  188SLPC   H6Y21731   1.543   3.466   7.074 -0.8257 -1.1405 -2.0375
  188SLPC   C3721732   1.386   3.416   7.216  0.5300 -0.4728 -0.1317
  188SLPC   H7X21733   1.381   3.308   7.192  2.9240 -0.8229  0.7022
  188SLPC   H7Y21734   1.285   3.459   7.237  0.3514 -0.8155 -0.2854
  188SLPC   C3821735   1.476   3.418   7.346 -0.3262  0.3115  0.8263
  188SLPC   H8X21736   1.474   3.522   7.384 -0.7210  0.5379  0.1974
  188SLPC   H8Y21737   1.580   3.404   7.311 -0.8314  0.3455 -0.7712
  188SLPC   C3921738   1.431   3.328   7.453  0.4228  0.4890 -0.7205
  188SLPC   H9X21739   1.454   3.226   7.414 -1.0180  0.0266 -0.4021
  188SLPC   H9Y21740   1.322   3.335   7.472  0.4597  1.2690 -0.7698
  188SLPC  C31021741   1.534   3.331   7.567 -0.0274  0.3379  1.2636
  188SLPC  H10X21742   1.524   3.434   7.608 -0.4725  0.5100  0.7325
  188SLPC  H10Y21743   1.632   3.324   7.515 -1.2720  0.8678 -1.2642
  188SLPC  C31121744   1.523   3.224   7.672  0.3920  0.8084  0.5509
  188SLPC  H11X21745   1.618   3.228   7.729  0.7180  2.5592 -0.0568
  188SLPC  H11Y21746   1.519   3.122   7.629  0.3117  0.3361  1.6431
  188SLPC  C31221747   1.399   3.247   7.760  0.0108  0.2509  0.2990
  188SLPC  H12X21748   1.309   3.206   7.709  0.3422 -0.3730  0.1959
  188SLPC  H12Y21749   1.381   3.352   7.788  0.7797  0.3142  0.5975
  188SLPC  C31321750   1.424   3.171   7.894 -0.5001  0.3587 -0.0963
  188SLPC  H13X21751   1.514   3.201   7.952  0.0828  0.4254 -1.0023
  188SLPC  H13Y21752   1.442   3.066   7.860 -0.0503  0.2133  0.5686
  188SLPC  C31421753   1.310   3.179   7.995 -0.1622 -0.3265  0.2533
  188SLPC  H14X21754   1.228   3.136   7.934  0.5505 -2.1112  0.4875
  188SLPC  H14Y21755   1.279   3.281   8.025 -0.9708 -0.3654 -0.4216
  188SLPC  C31521756   1.322   3.080   8.119  0.2419 -0.8731  0.0838
  188SLPC  H15X21757   1.408   3.106   8.184  0.5832 -0.0675 -0.6716
  188SLPC  H15Y21758   1.354   2.990   8.063  1.2232 -1.1030  0.9950
  188SLPC  C31621759   1.182   3.043   8.188 -0.1672  0.2617  0.2546
  188SLPC  H16X21760   1.190   2.968   8.270 -1.8786 -1.4435 -1.0725
  188SLPC  H16Y21761   1.130   2.993   8.104  0.6357  0.1194 -0.1663
  188SLPC  C31721762   1.109   3.164   8.258 -0.6244 -0.0537  0.2195
  188SLPC  H17X21763   1.148   3.258   8.212  0.5070 -0.9335 -0.6672
  188SLPC  H17Y21764   1.139   3.161   8.365  2.0600 -0.5725 -0.4753
  188SLPC  C31821765   0.959   3.158   8.254  0.1812  0.0392 -0.3009
  188SLPC  H18X21766   0.926   3.053   8.273 -0.9335  0.2808 -0.8284
  188SLPC  H18Y21767   0.912   3.186   8.157 -2.2875 -0.8178  0.5544
  188SLPC  H18Z21768   0.913   3.220   8.334 -1.7981 -1.9407  0.2036
  189SLPC     N21769   4.580   5.167   5.757 -0.6752 -0.6574  0.3462
  189SLPC   C1321770   4.544   5.059   5.659 -0.1388 -0.4080  0.3742
  189SLPC  H13A21771   4.466   5.107   5.602 -0.3711  0.7055  1.6077
  189SLPC  H13B21772   4.625   5.038   5.590 -0.8972 -4.0160  0.3910
  189SLPC  H13C21773   4.526   4.963   5.704 -0.4970 -0.1916  0.6915
  189SLPC   C1421774   4.460   5.203   5.834 -0.1208  0.1682 -0.1890
  189SLPC  H14A21775   4.483   5.288   5.896  1.5429 -2.3208  2.9081
  189SLPC  H14B21776   4.384   5.228   5.761  0.7952  0.0517 -1.2188
  189SLPC  H14C21777   4.435   5.122   5.900 -1.3011 -0.2132 -1.0642
  189SLPC   C1521778   4.638   5.291   5.679  0.2219  0.0830 -0.1911
  189SLPC  H15A21779   4.561   5.332   5.616  0.1645  0.3761  0.0660
  189SLPC  H15B21780   4.673   5.375   5.738  1.6003  0.6787 -1.7856
  189SLPC  H15C21781   4.726   5.269   5.620  0.4995 -0.6087  0.4597
  189SLPC   C1221782   4.699   5.116   5.840 -0.3662  0.3240 -0.0297
  189SLPC  H12A21783   4.788   5.112   5.778 -1.7863  0.9008 -2.2382
  189SLPC  H12B21784   4.660   5.019   5.867  1.0004  0.1489  1.4864
  189SLPC   C1121785   4.730   5.180   5.975  0.1847  0.2139  0.6427
  189SLPC  H11A21786   4.756   5.288   5.971  2.3233 -0.2790 -1.7540
  189SLPC  H11B21787   4.826   5.135   6.008  1.3350  1.4865 -0.7854
  189SLPC     P21788   4.622   5.048   6.168 -0.1626  0.7490 -0.4347
  189SLPC   O1321789   4.487   5.038   6.219 -0.5566 -0.3009 -0.0607
  189SLPC   O1421790   4.685   4.940   6.097 -0.4749  0.2119  0.0249
  189SLPC   O1221791   4.628   5.167   6.073 -0.7580  0.9840 -0.0739
  189SLPC   O1121792   4.726   5.101   6.284 -0.0504  0.6365 -0.7737
  189SLPC    C121793   4.686   5.103   6.421 -0.9226  0.3809  0.4744
  189SLPC    HA21794   4.575   5.104   6.434 -1.5199  0.7156 -3.5782
  189SLPC    HB21795   4.722   5.014   6.477  0.0270 -0.1500 -0.9314
  189SLPC    C221796   4.745   5.235   6.489 -0.4249 -0.1320  0.2279
  189SLPC    HS21797   4.854   5.225   6.506  0.0245  0.2501 -2.1223
  189SLPC   O2121798   4.682   5.251   6.617  0.0247 -0.6647 -0.0963
  189SLPC   C2121799   4.725   5.166   6.719  0.2722 -0.4959 -0.3227
  189SLPC   O2221800   4.818   5.090   6.713 -0.4369  0.4794  0.5840
  189SLPC   C2221801   4.648   5.196   6.848 -0.5799 -0.0975 -0.4031
  189SLPC   H2R21802   4.659   5.305   6.867  1.8757 -0.0336 -1.7932
  189SLPC   H2S21803   4.541   5.169   6.834 -0.6446  0.6032 -1.3473
  189SLPC    C321804   4.734   5.366   6.403  0.3805 -0.2291  0.7647
  189SLPC    HX21805   4.629   5.401   6.406  0.6345  0.6899 -0.3088
  189SLPC    HY21806   4.753   5.354   6.294 -0.3180 -3.1849  0.8812
  189SLPC   O3121807   4.827   5.467   6.451  0.2102  0.3039 -0.4251
  189SLPC   C3121808   4.782   5.552   6.543  0.1855 -0.0798 -0.3311
  189SLPC   O3221809   4.668   5.566   6.576 -0.5154 -0.1607 -0.3841
  189SLPC   C3221810   4.902   5.639   6.579 -0.0221  0.5355 -0.5679
  189SLPC   H2X21811   4.924   5.705   6.492  0.9245 -0.8546 -1.4149
  189SLPC   H2Y21812   4.992   5.575   6.585  2.2968  3.3885 -2.5091
  189SLPC   C2321813   4.715   5.121   6.967 -0.0131  0.1283  0.0891
  189SLPC   H3R21814   4.825   5.137   6.958  0.0783 -0.0391  0.8440
  189SLPC   H3S21815   4.698   5.011   6.969  0.1723  0.0666  3.0379
  189SLPC   C2421816   4.683   5.183   7.103  0.2238  0.3820 -0.1836
  189SLPC   H4R21817   4.573   5.193   7.120  0.6901  3.1564  2.1722
  189SLPC   H4S21818   4.732   5.282   7.117  0.1825  0.2674  0.8794
  189SLPC   C2521819   4.730   5.097   7.230 -0.0476  0.5453  0.6161
  189SLPC   H5R21820   4.841   5.097   7.242 -0.1157 -1.3439  1.6464
  189SLPC   H5S21821   4.691   4.993   7.220  0.2022  0.5700 -0.8076
  189SLPC   C2621822   4.674   5.152   7.365 -0.1272 -0.6989 -0.2960
  189SLPC   H6R21823   4.564   5.142   7.371 -0.2935  1.3230  1.1519
  189SLPC   H6S21824   4.707   5.257   7.380 -1.4449 -0.7301  3.8697
  189SLPC   C2721825   4.743   5.081   7.487 -0.3122  0.0342  0.5383
  189SLPC   H7R21826   4.851   5.057   7.474 -0.2499  0.3307  0.4793
  189SLPC   H7S21827   4.700   4.979   7.497 -1.4288  0.3741 -0.5075
  189SLPC   C2821828   4.731   5.150   7.622  0.5488 -0.4476  0.3372
  189SLPC   H8R21829   4.776   5.251   7.611 -0.6999  0.2083  0.9487
  189SLPC   H8S21830   4.798   5.094   7.691  0.1028 -0.4312  0.7904
  189SLPC   C2921831   4.588   5.152   7.671 -0.2665 -0.0937 -0.7568
  189SLPC   H9R21832   4.509   5.137   7.596  0.2399 -0.7050 -1.1770
  189SLPC  C21021833   4.563   5.191   7.795  0.4427  0.0658  0.2445
  189SLPC  H10R21834   4.457   5.206   7.820 -0.0254  1.0620 -2.0354
  189SLPC  C21121835   4.667   5.229   7.903  0.3812  0.5283 -0.0319
  189SLPC  H11R21836   4.628   5.308   7.970  1.8403  0.7911  0.5408
  189SLPC  H11S21837   4.763   5.264   7.861  0.7523  0.3716  0.6717
  189SLPC  C21221838   4.695   5.109   7.987 -0.0684 -0.2258  0.1170
  189SLPC  H12R21839   4.719   5.022   7.925 -0.2612  0.3993 -0.8437
  189SLPC  C21321840   4.711   5.108   8.124  0.4337  0.1210 -1.2500
  189SLPC  H13R21841   4.731   5.009   8.167 -0.8527 -0.3956 -1.8244
  189SLPC  C21421842   4.700   5.214   8.227  0.0444  0.2655  0.0399
  189SLPC  H14R21843   4.609   5.205   8.290 -0.8858 -1.0318 -1.4026
  189SLPC  H14S21844   4.688   5.312   8.175 -2.0061  0.0124 -0.0405
  189SLPC  C21521845   4.820   5.204   8.322 -0.1412 -0.2268 -0.5580
  189SLPC  H15R21846   4.804   5.274   8.408 -1.0584  1.3810 -1.9730
  189SLPC  H15S21847   4.909   5.230   8.262  0.4246 -0.7179  0.0506
  189SLPC  C21621848   4.845   5.058   8.379 -0.3013 -0.4737 -0.5165
  189SLPC  H16R21849   4.874   5.000   8.289  1.3135  1.4680 -1.3295
  189SLPC  H16S21850   4.752   5.020   8.428  0.3220 -0.3964  0.7873
  189SLPC  C21721851   4.964   5.053   8.481  0.0624 -0.1285 -0.5605
  189SLPC  H17R21852   5.049   5.088   8.419  0.1678 -0.6042 -0.6930
  189SLPC  H17S21853   4.981   4.948   8.515  0.0332  0.3263  0.9623
  189SLPC  C21821854   4.950   5.130   8.612  0.3651  0.3784 -0.5387
  189SLPC  H18R21855   4.966   5.240   8.600  1.7561  0.7351  3.1124
  189SLPC  H18S21856   5.038   5.116   8.679  0.6686  2.2445 -0.4749
  189SLPC  H18T21857   4.850   5.122   8.660  0.0737  0.9844 -1.0267
  189SLPC   C3321858   4.886   5.714   6.711 -0.0469  0.2215 -0.2207
  189SLPC   H3X21859   4.787   5.760   6.728 -0.5396 -1.3142  1.3845
  189SLPC   H3Y21860   4.962   5.795   6.715 -1.3083  1.6070 -2.4584
  189SLPC   C3421861   4.905   5.618   6.830 -0.3050  0.1045  0.5938
  189SLPC   H4X21862   4.999   5.563   6.850 -0.1691 -0.4137 -1.3388
  189SLPC   H4Y21863   4.838   5.535   6.801 -0.3012  1.7039 -5.1480
  189SLPC   C3521864   4.870   5.684   6.968 -0.5605  0.7119  0.3716
  189SLPC   H5X21865   4.784   5.751   6.950 -1.1268  0.7529  2.8711
  189SLPC   H5Y21866   4.949   5.748   7.014  0.5384 -0.6533  0.4758
  189SLPC   C3621867   4.826   5.575   7.071  0.1603  0.0278 -0.8897
  189SLPC   H6X21868   4.907   5.499   7.068  2.5507  2.3882 -0.2472
  189SLPC   H6Y21869   4.735   5.517   7.044  0.6080 -1.0546 -0.1180
  189SLPC   C3721870   4.830   5.638   7.210 -0.5481 -0.1995 -0.1310
  189SLPC   H7X21871   4.761   5.725   7.201  0.0325  0.2453 -0.3243
  189SLPC   H7Y21872   4.933   5.680   7.203 -1.3840  1.8639 -0.6661
  189SLPC   C3821873   4.804   5.544   7.327  0.3242  0.3227  0.0422
  189SLPC   H8X21874   4.847   5.442   7.316 -0.5049  0.0534 -0.8009
  189SLPC   H8Y21875   4.694   5.530   7.330  0.3123  0.5259  0.6793
  189SLPC   C3921876   4.859   5.611   7.448  0.4227  0.3295  0.2473
  189SLPC   H9X21877   4.818   5.714   7.451  0.7742  0.4760  0.1160
  189SLPC   H9Y21878   4.966   5.639   7.441 -0.0465  2.2304  0.0393
  189SLPC  C31021879   4.841   5.544   7.583 -1.2708 -0.4172 -0.2483
  189SLPC  H10X21880   4.889   5.444   7.576  0.5787  0.3342  0.8315
  189SLPC  H10Y21881   4.734   5.527   7.606 -1.0946 -1.4466 -0.1738
  189SLPC  C31121882   4.901   5.636   7.694  0.1329  1.1561  0.4849
  189SLPC  H11X21883   4.860   5.735   7.666 -0.3190  0.7185 -0.4467
  189SLPC  H11Y21884   5.011   5.654   7.692  0.1928  1.3435  2.7484
  189SLPC  C31221885   4.858   5.600   7.833 -0.1175  0.1316  0.2732
  189SLPC  H12X21886   4.896   5.503   7.871  0.4276  0.2535  0.0406
  189SLPC  H12Y21887   4.748   5.590   7.845  0.1479 -1.4087  1.7452
  189SLPC  C31321888   4.906   5.697   7.937 -0.0690 -0.2780  0.3033
  189SLPC  H13X21889   4.855   5.792   7.910 -0.5624 -0.5848  0.1404
  189SLPC  H13Y21890   5.014   5.713   7.922 -0.1941 -1.2413 -1.9384
  189SLPC  C31421891   4.866   5.670   8.080  0.2813  0.2564  0.0795
  189SLPC  H14X21892   4.879   5.755   8.150 -0.2721 -0.4428  1.0615
  189SLPC  H14Y21893   4.922   5.581   8.117  0.1385 -0.8020 -2.1101
  189SLPC  C31521894   4.718   5.623   8.093 -0.3323  0.3368  0.4881
  189SLPC  H15X21895   4.712   5.520   8.051 -1.0739  0.1826  0.9484
  189SLPC  H15Y21896   4.667   5.702   8.034 -0.0840  0.0331 -0.1371
  189SLPC  C31621897   4.670   5.615   8.235 -0.3034  0.1191 -0.0602
  189SLPC  H16X21898   4.698   5.706   8.292  2.0819  0.0649 -1.0355
  189SLPC  H16Y21899   4.716   5.532   8.294  0.2595  1.3278  1.2693
  189SLPC  C31721900   4.520   5.610   8.244  0.4432 -0.0199 -0.0515
  189SLPC  H17X21901   4.482   5.553   8.157 -0.6642  1.8300 -0.8189
  189SLPC  H17Y21902   4.477   5.711   8.229  0.9428 -0.0188 -1.6708
  189SLPC  C31821903   4.468   5.555   8.382  0.2147 -0.0634  0.0110
  189SLPC  H18X21904   4.503   5.608   8.473 -0.9598 -2.4865  2.0078
  189SLPC  H18Y21905   4.494   5.447   8.392  1.9753  0.0540 -2.3681
  189SLPC  H18Z21906   4.357   5.557   8.375  0.2586  1.1197 -0.5328
  190SLPC     N21907   5.475   6.417   6.485  0.4485  0.6689 -0.5448
  190SLPC   C1321908   5.352   6.399   6.577 -0.5037  0.3180  0.8310
  190SLPC  H13A21909   5.372   6.352   6.672 -0.2388 -1.5042 -0.0733
  190SLPC  H13B21910   5.299   6.492   6.586  0.2306  1.3857 -3.3901
  190SLPC  H13C21911   5.276   6.338   6.531 -1.7049  1.7094  0.9178
  190SLPC   C1421912   5.426   6.494   6.361  0.1229 -0.1998 -0.0344
  190SLPC  H14A21913   5.345   6.441   6.315  0.2793  0.3541 -0.9771
  190SLPC  H14B21914   5.407   6.598   6.385 -0.9857 -0.0757 -1.3591
  190SLPC  H14C21915   5.503   6.500   6.286  0.2148 -1.4544 -0.0611
  190SLPC   C1521916   5.527   6.290   6.438  0.7606 -0.0852 -0.0093
  190SLPC  H15A21917   5.447   6.231   6.396  1.6584 -0.0324 -1.9051
  190SLPC  H15B21918   5.608   6.302   6.368 -0.0384  0.3528 -0.8801
  190SLPC  H15C21919   5.569   6.227   6.514  1.5910 -0.2085 -0.5669
  190SLPC   C1221920   5.583   6.501   6.561 -0.1755  0.1834 -0.0937
  190SLPC  H12A21921   5.614   6.440   6.645 -1.0512 -0.7309 -0.4292
  190SLPC  H12B21922   5.533   6.590   6.595 -3.1091 -2.2719  2.6095
  190SLPC   C1121923   5.712   6.539   6.488  0.2100 -0.3696 -1.1032
  190SLPC  H11A21924   5.755   6.443   6.454 -1.1886 -1.3062 -0.3479
  190SLPC  H11B21925   5.780   6.583   6.564 -3.1787  1.3013  1.2101
  190SLPC     P21926   5.654   6.775   6.412 -0.3382 -0.0511 -0.2502
  190SLPC   O1321927   5.743   6.836   6.515 -0.1344 -0.9118 -0.7304
  190SLPC   O1421928   5.649   6.848   6.285 -0.0847 -0.1519  0.5558
  190SLPC   O1221929   5.697   6.629   6.386 -0.2759 -0.0691 -0.0294
  190SLPC   O1121930   5.511   6.760   6.469  0.6114  0.2470  0.0243
  190SLPC    C121931   5.420   6.873   6.474 -0.0801 -0.8382  0.0002
  190SLPC    HA21932   5.463   6.972   6.502 -1.2680  0.1179 -1.3806
  190SLPC    HB21933   5.388   6.888   6.368  1.0301 -1.3802 -0.4339
  190SLPC    C221934   5.303   6.852   6.572  0.3789 -0.4293 -1.0177
  190SLPC    HS21935   5.268   6.953   6.602 -1.4520 -1.3350  0.0590
  190SLPC   O2121936   5.340   6.772   6.686  0.3082  0.0514 -0.3919
  190SLPC   C2121937   5.425   6.842   6.765  0.5336  0.8843 -0.2972
  190SLPC   O2221938   5.457   6.954   6.750 -0.4584  0.2417 -0.1512
  190SLPC   C2221939   5.473   6.753   6.878 -0.0728 -0.2923 -0.2601
  190SLPC   H2R21940   5.398   6.719   6.953  0.8407  2.1485  1.9266
  190SLPC   H2S21941   5.532   6.669   6.835 -0.7393 -1.3598  0.8170
  190SLPC    C321942   5.171   6.787   6.509 -0.1538  0.1280 -0.0526
  190SLPC    HX21943   5.196   6.684   6.473  2.7535  0.7768 -0.1450
  190SLPC    HY21944   5.145   6.855   6.426 -0.0179  2.2755  1.5932
  190SLPC   O3121945   5.062   6.782   6.602 -0.0145 -0.5055 -0.2088
  190SLPC   C3121946   5.033   6.670   6.659 -0.6400 -0.2496  0.2252
  190SLPC   O3221947   5.080   6.560   6.635 -0.1121  0.0678 -0.3957
  190SLPC   C3221948   4.901   6.696   6.737  0.4365  0.7097 -0.0808
  190SLPC   H2X21949   4.820   6.644   6.682  1.1634 -0.1310 -0.3677
  190SLPC   H2Y21950   4.895   6.806   6.751  1.0412  0.9035 -1.2246
  190SLPC   C2321951   5.569   6.834   6.967 -0.0128 -0.6320 -0.0157
  190SLPC   H3R21952   5.510   6.906   7.028  2.5564  1.7417 -0.0779
  190SLPC   H3S21953   5.645   6.898   6.916 -0.4696  0.5992  0.7966
  190SLPC   C2421954   5.649   6.752   7.070  0.3769 -0.1060  0.1750
  190SLPC   H4R21955   5.733   6.707   7.012 -0.1513  0.0475 -0.7307
  190SLPC   H4S21956   5.590   6.662   7.098  4.2439 -3.0340 -0.1933
  190SLPC   C2521957   5.688   6.818   7.195 -0.7373  0.3745 -0.2371
  190SLPC   H5R21958   5.600   6.849   7.255 -1.3350  0.3495 -1.0840
  190SLPC   H5S21959   5.759   6.901   7.173  0.0556 -0.9126 -2.9081
  190SLPC   C2621960   5.759   6.723   7.302  0.4264  0.1055  0.2125
  190SLPC   H6R21961   5.850   6.686   7.251  0.6677  0.3411  0.4686
  190SLPC   H6S21962   5.698   6.633   7.324  1.5946 -1.3954 -2.2287
  190SLPC   C2721963   5.811   6.805   7.422 -0.9432  0.6250 -0.1989
  190SLPC   H7R21964   5.731   6.862   7.475 -1.4966 -2.5698  2.7530
  190SLPC   H7S21965   5.902   6.863   7.395 -0.7827 -0.5579 -2.4762
  190SLPC   C2821966   5.861   6.712   7.538 -0.4170  0.4786  0.4080
  190SLPC   H8R21967   5.926   6.645   7.479  1.3607  1.2121  1.4612
  190SLPC   H8S21968   5.778   6.647   7.574  0.8336 -1.2843  0.2198
  190SLPC   C2921969   5.932   6.785   7.652  0.0063 -0.2536  0.0606
  190SLPC   H9R21970   5.997   6.873   7.635  0.3312 -0.0996  1.8820
  190SLPC  C21021971   5.934   6.746   7.782  0.0869 -0.0772  0.4747
  190SLPC  H10R21972   5.995   6.802   7.855 -0.1108  0.6839  0.0586
  190SLPC  C21121973   5.876   6.614   7.835 -0.2164 -0.5436 -0.5200
  190SLPC  H11R21974   5.829   6.555   7.753  0.3912 -0.6968 -0.7656
  190SLPC  H11S21975   5.796   6.629   7.910 -0.2401  2.2678 -1.0137
  190SLPC  C21221976   5.988   6.534   7.892  0.5653 -0.3344  0.7668
  190SLPC  H12R21977   6.039   6.472   7.817 -0.6404 -1.6490  0.9928
  190SLPC  C21321978   6.019   6.516   8.018 -0.3892  0.3006 -0.0819
  190SLPC  H13R21979   6.101   6.448   8.043  0.1207  0.6699 -0.7264
  190SLPC  C21421980   5.949   6.579   8.138 -0.2222  0.2010 -0.1228
  190SLPC  H14R21981   5.874   6.500   8.160  1.0511 -1.0461 -0.1121
  190SLPC  H14S21982   5.892   6.673   8.124  0.9307  0.8372 -0.6507
  190SLPC  C21521983   6.037   6.587   8.267  0.4661  0.5025  0.1640
  190SLPC  H15R21984   5.985   6.648   8.344  0.1246 -3.0665  3.0100
  190SLPC  H15S21985   6.142   6.621   8.251  1.4573 -1.5533  1.8317
  190SLPC  C21621986   6.061   6.451   8.340 -0.5061 -0.4223 -0.1582
  190SLPC  H16R21987   6.092   6.373   8.267  0.4271  1.2668 -1.6697
  190SLPC  H16S21988   5.970   6.416   8.392 -1.1388 -0.9514 -1.5804
  190SLPC  C21721989   6.161   6.487   8.455 -0.0227  0.3299  0.1563
  190SLPC  H17R21990   6.118   6.530   8.549 -0.4021 -1.7601  0.9900
  190SLPC  H17S21991   6.240   6.556   8.419 -1.6480  1.6824 -0.9858
  190SLPC  C21821992   6.219   6.353   8.513 -0.0950 -0.5157  0.3935
  190SLPC  H18R21993   6.148   6.277   8.551  0.6592 -0.4490  2.0172
  190SLPC  H18S21994   6.293   6.376   8.592 -0.6947  0.2505  0.7326
  190SLPC  H18T21995   6.282   6.304   8.435  1.8957  1.6568  0.5434
  190SLPC   C3321996   4.914   6.624   6.876  0.5117 -0.2314  0.2202
  190SLPC   H3X21997   4.923   6.513   6.880  0.7923 -0.1846  1.2175
  190SLPC   H3Y21998   4.831   6.646   6.946  1.2255 -0.2316  1.0955
  190SLPC   C3421999   5.038   6.680   6.954  0.0278 -0.5921  0.2856
  190SLPC   H4X22000   5.028   6.783   6.994 -1.0189  0.2598 -1.9931
  190SLPC   H4Y22001   5.128   6.700   6.892  0.3382  0.3149  0.9974
  190SLPC   C3522002   5.076   6.583   7.066 -0.0170 -0.1015 -0.6418
  190SLPC   H5X22003   5.118   6.491   7.021 -2.7222 -2.0944  0.6327
  190SLPC   H5Y22004   4.981   6.552   7.114 -0.6077  0.8110 -1.1944
  190SLPC   C3622005   5.168   6.642   7.177  0.4327 -0.0482 -0.0300
  190SLPC   H6X22006   5.126   6.741   7.204 -0.6703 -0.7234  0.8215
  190SLPC   H6Y22007   5.272   6.652   7.138  1.3116 -1.1046  1.8927
  190SLPC   C3722008   5.161   6.559   7.301  0.2003 -0.4482  0.4269
  190SLPC   H7X22009   5.203   6.458   7.282  0.7972  0.0608 -1.1478
  190SLPC   H7Y22010   5.055   6.549   7.333  0.0972  1.1843  0.6966
  190SLPC   C3822011   5.227   6.630   7.421 -0.0191  0.4826  0.1253
  190SLPC   H8X22012   5.166   6.717   7.452 -0.3061  1.2114 -2.2634
  190SLPC   H8Y22013   5.335   6.645   7.397 -0.2078 -0.4919 -1.4876
  190SLPC   C3922014   5.232   6.541   7.553  0.0930 -0.2173 -0.6070
  190SLPC   H9X22015   5.274   6.441   7.532  0.2259 -0.2478 -0.2081
  190SLPC   H9Y22016   5.125   6.528   7.581  0.6642 -0.9693  1.4585
  190SLPC  C31022017   5.313   6.609   7.668 -0.1942 -0.1251 -0.0902
  190SLPC  H10X22018   5.282   6.713   7.694  0.2460 -0.0928  0.3094
  190SLPC  H10Y22019   5.419   6.609   7.636 -0.1427 -0.7249  0.0827
  190SLPC  C31122020   5.319   6.525   7.801  0.3525  0.0689 -0.1124
  190SLPC  H11X22021   5.371   6.428   7.783 -0.5479 -0.4769  0.1413
  190SLPC  H11Y22022   5.219   6.488   7.834  0.8195 -0.8779  0.2979
  190SLPC  C31222023   5.390   6.594   7.919 -0.3646  0.9063 -0.4867
  190SLPC  H12X22024   5.343   6.694   7.934 -0.6061  0.9513 -1.5016
  190SLPC  H12Y22025   5.498   6.604   7.898 -0.4389 -0.0194 -1.3703
  190SLPC  C31322026   5.374   6.515   8.059  0.6060 -0.6747  0.2065
  190SLPC  H13X22027   5.397   6.407   8.046 -0.0926 -0.8209  0.1735
  190SLPC  H13Y22028   5.267   6.513   8.088  0.6713 -1.4086  0.3952
  190SLPC  C31422029   5.465   6.571   8.166  0.9197  0.1558  0.3293
  190SLPC  H14X22030   5.455   6.682   8.173 -0.7953  0.2407 -2.0915
  190SLPC  H14Y22031   5.571   6.561   8.137  0.7602  2.3756 -1.2792
  190SLPC  C31522032   5.453   6.500   8.304  0.1128  0.2104  0.2055
  190SLPC  H15X22033   5.454   6.391   8.284  1.7687  0.1350  0.5299
  190SLPC  H15Y22034   5.359   6.519   8.361  0.5375  0.3681  0.8699
  190SLPC  C31622035   5.580   6.525   8.384  0.0736 -0.3028 -0.7219
  190SLPC  H16X22036   5.607   6.633   8.388 -1.6440  0.1362  2.5414
  190SLPC  H16Y22037   5.659   6.469   8.330 -1.4891 -0.1377 -3.3548
  190SLPC  C31722038   5.557   6.488   8.530  0.7998  0.2516 -0.2502
  190SLPC  H17X22039   5.488   6.402   8.540  0.7748  0.4523  1.7454
  190SLPC  H17Y22040   5.487   6.559   8.579  0.5128  0.5036 -1.0149
  190SLPC  C31822041   5.677   6.464   8.617 -0.4091 -0.2074  0.0448
  190SLPC  H18X22042   5.722   6.365   8.596 -0.2672 -1.0859  3.7353
  190SLPC  H18Y22043   5.653   6.466   8.726 -2.7415 -0.4714 -0.4174
  190SLPC  H18Z22044   5.756   6.542   8.611  0.2617 -0.8714  0.1107
  191SLPC     N22045   4.416   0.810   5.880 -0.1655 -0.0266 -0.0991
  191SLPC   C1322046   4.556   0.756   5.890  0.5479  0.1258 -0.4649
  191SLPC  H13A22047   4.626   0.838   5.893 -1.7638  2.3459 -2.3585
  191SLPC  H13B22048   4.572   0.697   5.979 -0.2696 -0.2115 -0.5355
  191SLPC  H13C22049   4.581   0.698   5.803  1.0718  0.5787 -0.6245
  191SLPC   C1422050   4.323   0.692   5.868 -0.7240 -0.4905  1.1418
  191SLPC  H14A22051   4.223   0.718   5.837  0.0724  0.4652 -0.7814
  191SLPC  H14B22052   4.356   0.625   5.789  0.6245  0.3867  0.9438
  191SLPC  H14C22053   4.330   0.620   5.949  4.1360 -4.1749 -1.9517
  191SLPC   C1522054   4.402   0.891   5.758 -0.1852 -1.0865  0.1168
  191SLPC  H15A22055   4.304   0.931   5.742  0.3932 -0.1491 -1.3139
  191SLPC  H15B22056   4.475   0.970   5.767 -1.0624 -0.5086  2.8156
  191SLPC  H15C22057   4.427   0.841   5.665  0.5669 -0.7156  0.1096
  191SLPC   C1222058   4.379   0.884   6.009  0.5011  0.4483 -1.0857
  191SLPC  H12A22059   4.277   0.918   6.007 -1.2164 -3.8839 -0.1127
  191SLPC  H12B22060   4.438   0.973   6.021 -0.4684  1.0724 -0.8393
  191SLPC   C1122061   4.386   0.804   6.144 -0.0426  1.0167  0.7577
  191SLPC  H11A22062   4.351   0.873   6.224  0.3177  1.8254  0.2394
  191SLPC  H11B22063   4.495   0.790   6.155  0.4163  1.9035 -1.9175
  191SLPC     P22064   4.357   0.550   6.199 -0.2449 -0.1691  0.3993
  191SLPC   O1322065   4.282   0.445   6.136  0.5426 -0.3398 -0.0076
  191SLPC   O1422066   4.504   0.533   6.191 -0.1100  0.3850 -0.1538
  191SLPC   O1222067   4.308   0.686   6.143  0.0562 -0.0777 -0.0103
  191SLPC   O1122068   4.307   0.549   6.344 -0.2131  1.1817  0.2792
  191SLPC    C122069   4.231   0.649   6.402  0.1685  0.5692  0.0724
  191SLPC    HA22070   4.273   0.751   6.398  0.1083  0.6659  1.5291
  191SLPC    HB22071   4.128   0.660   6.362 -0.8310 -0.6493  2.1708
  191SLPC    C222072   4.223   0.620   6.558  0.8572  0.7113 -0.3974
  191SLPC    HS22073   4.328   0.607   6.592  0.6830  1.3717  0.4580
  191SLPC   O2122074   4.152   0.494   6.572  0.8305 -0.0071 -0.4095
  191SLPC   C2122075   4.193   0.411   6.661 -0.1827  0.2437  0.3423
  191SLPC   O2222076   4.276   0.448   6.746  0.1629  0.1601 -0.0396
  191SLPC   C2222077   4.134   0.273   6.645  0.0086  0.3054 -0.6576
  191SLPC   H2R22078   4.038   0.273   6.588 -0.3362  0.4169 -0.0890
  191SLPC   H2S22079   4.212   0.209   6.600  0.2644 -0.0534  0.2919
  191SLPC    C322080   4.155   0.734   6.638  0.3566  0.2420  0.0013
  191SLPC    HX22081   4.047   0.742   6.610  0.4784  1.5319 -0.1646
  191SLPC    HY22082   4.208   0.828   6.614 -0.0517  0.3570 -0.4509
  191SLPC   O3122083   4.172   0.720   6.783  0.5128  0.1087 -0.1528
  191SLPC   C3122084   4.058   0.693   6.848  0.0941 -0.2609  0.3041
  191SLPC   O3222085   3.942   0.707   6.809 -0.0720 -0.2352  0.4190
  191SLPC   C3222086   4.096   0.675   6.993  0.1149  0.8043 -1.0821
  191SLPC   H2X22087   4.133   0.772   7.033 -1.0955  0.2754  1.5447
  191SLPC   H2Y22088   4.179   0.601   7.004 -2.0085 -1.5257  0.7544
  191SLPC   C2322089   4.102   0.214   6.785 -0.2554  0.3720 -0.0437
  191SLPC   H3R22090   4.183   0.235   6.858  1.8336 -2.5173 -1.3493
  191SLPC   H3S22091   4.109   0.104   6.778 -1.2713  0.1468  1.9626
  191SLPC   C2422092   3.968   0.258   6.831 -0.2858 -1.0518 -0.1671
  191SLPC   H4R22093   3.889   0.213   6.767  0.2953 -1.2066 -0.7848
  191SLPC   H4S22094   3.951   0.368   6.831  0.3447 -0.9526  0.2346
  191SLPC   C2522095   3.943   0.227   6.974 -1.4772  0.6555 -0.1339
  191SLPC   H5R22096   4.005   0.286   7.044 -0.9781 -1.5539  1.4141
  191SLPC   H5S22097   3.988   0.128   6.997 -0.1689  1.2614 -0.0187
  191SLPC   C2622098   3.797   0.227   7.016 -0.1701 -0.3477 -0.4795
  191SLPC   H6R22099   3.742   0.163   6.944  0.1180 -0.6403 -0.4452
  191SLPC   H6S22100   3.759   0.331   7.025 -2.1722 -1.2032  2.2594
  191SLPC   C2722101   3.769   0.157   7.146 -0.4338 -0.0684  0.2404
  191SLPC   H7R22102   3.843   0.075   7.154 -1.8258 -1.3188  0.9641
  191SLPC   H7S22103   3.668   0.112   7.136 -0.5892  0.5058 -0.9732
  191SLPC   C2822104   3.779   0.242   7.275  0.4329 -0.1454  0.7312
  191SLPC   H8R22105   3.699   0.319   7.270 -1.2034 -1.7343  1.3270
  191SLPC   H8S22106   3.873   0.300   7.293 -0.3230  1.2514  0.3567
  191SLPC   C2922107   3.758   0.151   7.392  0.4581 -0.4437  0.8910
  191SLPC   H9R22108   3.775   0.043   7.378  2.5683 -0.3603  2.3727
  191SLPC  C21022109   3.710   0.181   7.516  0.2456  0.5243 -0.1743
  191SLPC  H10R22110   3.697   0.101   7.591 -2.6082 -0.2626 -1.3404
  191SLPC  C21122111   3.681   0.312   7.573 -0.0995 -0.3946  0.3678
  191SLPC  H11R22112   3.740   0.391   7.521 -1.7650 -0.5968 -2.0490
  191SLPC  H11S22113   3.721   0.321   7.676 -2.4777 -1.5278  1.4788
  191SLPC  C21222114   3.533   0.336   7.570  0.3800  0.0228 -0.2006
  191SLPC  H12R22115   3.497   0.399   7.487  1.9218 -0.8557 -1.6143
  191SLPC  C21322116   3.444   0.293   7.659 -0.0954 -0.0961  0.3909
  191SLPC  H13R22117   3.343   0.337   7.647  0.7133  1.4429 -1.1344
  191SLPC  C21422118   3.470   0.208   7.780 -0.6509  0.0963 -0.5070
  191SLPC  H14R22119   3.579   0.190   7.787 -0.2399  1.7417 -2.0474
  191SLPC  H14S22120   3.412   0.114   7.780  1.8979 -1.5874  0.5470
  191SLPC  C21522121   3.428   0.284   7.911 -0.0432  0.0436 -0.2149
  191SLPC  H15R22122   3.321   0.313   7.901  0.0120  0.6643  0.7977
  191SLPC  H15S22123   3.480   0.379   7.936  1.0151 -0.6286  0.2144
  191SLPC  C21622124   3.431   0.190   8.037  0.3861  0.4985 -0.5189
  191SLPC  H16R22125   3.400   0.233   8.134 -1.2327 -0.7433 -0.4428
  191SLPC  H16S22126   3.536   0.155   8.048  0.2741 -0.1061 -1.2468
  191SLPC  C21722127   3.345   0.059   8.033 -1.1133  0.5361 -0.3359
  191SLPC  H17R22128   3.371   0.001   7.943 -2.0074  2.2444 -1.7650
  191SLPC  H17S22129   3.236   0.080   8.026 -1.1281  0.6036  0.0736
  191SLPC  C21822130   3.371  -0.032   8.153 -0.5593  0.2945 -0.7544
  191SLPC  H18R22131   3.475  -0.071   8.152 -0.5003  0.4306 -0.1469
  191SLPC  H18S22132   3.312  -0.126   8.146 -0.5465  0.1421  0.8479
  191SLPC  H18T22133   3.359   0.026   8.247 -0.3628 -0.9584  0.0680
  191SLPC   C3322134   3.973   0.638   7.076 -0.1438  0.1213  0.1321
  191SLPC   H3X22135   3.929   0.543   7.038  1.9553 -0.7841 -0.1916
  191SLPC   H3Y22136   3.892   0.713   7.067  0.1591  0.2304 -2.9346
  191SLPC   C3422137   4.010   0.604   7.219 -0.1731 -0.1583 -0.1194
  191SLPC   H4X22138   4.079   0.518   7.206  2.2366  1.4719  0.8696
  191SLPC   H4Y22139   3.920   0.573   7.276  0.3690  1.0597  1.4969
  191SLPC   C3522140   4.078   0.721   7.291 -0.3900 -0.7829 -0.1952
  191SLPC   H5X22141   4.018   0.737   7.383  1.0112 -0.2618  0.6614
  191SLPC   H5Y22142   4.067   0.813   7.230 -1.3823 -1.3964 -0.9601
  191SLPC   C3622143   4.233   0.708   7.318  0.1171 -0.3285  0.0203
  191SLPC   H6X22144   4.277   0.803   7.355 -0.5611  0.1862 -0.4677
  191SLPC   H6Y22145   4.275   0.675   7.221 -0.0654  1.9146 -0.8816
  191SLPC   C3722146   4.255   0.608   7.429  0.3431  0.6464 -0.4347
  191SLPC   H7X22147   4.240   0.506   7.389  1.0130 -0.1635  1.2846
  191SLPC   H7Y22148   4.186   0.617   7.516  0.9757 -2.7532  0.5685
  191SLPC   C3822149   4.387   0.621   7.498 -0.8552 -0.0491 -0.3327
  191SLPC   H8X22150   4.410   0.725   7.532  0.1506 -0.7482  1.2325
  191SLPC   H8Y22151   4.476   0.598   7.437 -0.6959 -1.5556  0.4401
  191SLPC   C3922152   4.396   0.534   7.623 -0.3303  0.4302 -0.4597
  191SLPC   H9X22153   4.365   0.429   7.604 -1.7845  0.1742  2.6840
  191SLPC   H9Y22154   4.321   0.581   7.691 -0.5515  0.0888 -0.4589
  191SLPC  C31022155   4.535   0.548   7.694 -0.2524 -0.2220 -0.3613
  191SLPC  H10X22156   4.566   0.655   7.697  1.7526 -0.7982  1.7279
  191SLPC  H10Y22157   4.619   0.514   7.631  0.8627 -1.1051  1.5370
  191SLPC  C31122158   4.538   0.501   7.837  0.7488  0.0134 -0.3129
  191SLPC  H11X22159   4.510   0.393   7.840  0.1299  0.1336 -1.4464
  191SLPC  H11Y22160   4.450   0.550   7.886  1.9938  1.9121  0.1380
  191SLPC  C31222161   4.656   0.547   7.924 -0.2468  0.3707 -0.1215
  191SLPC  H12X22162   4.649   0.655   7.946 -1.4965  0.2975 -0.0899
  191SLPC  H12Y22163   4.752   0.522   7.874  0.6308  3.9486 -0.4400
  191SLPC  C31322164   4.654   0.471   8.057 -0.1472 -0.5170 -0.3058
  191SLPC  H13X22165   4.642   0.361   8.060  1.3888 -0.6953  0.1034
  191SLPC  H13Y22166   4.559   0.499   8.108 -0.6166 -0.5881 -1.1175
  191SLPC  C31422167   4.777   0.509   8.140 -0.6050  0.2769  0.1332
  191SLPC  H14X22168   4.777   0.618   8.158  1.2463 -0.1086  3.1448
  191SLPC  H14Y22169   4.868   0.480   8.083 -0.8055  0.7321 -0.4323
  191SLPC  C31522170   4.780   0.456   8.281 -0.2711 -0.3868  0.3253
  191SLPC  H15X22171   4.812   0.354   8.250  2.4869  0.4969  0.0174
  191SLPC  H15Y22172   4.683   0.457   8.335 -0.5205 -1.1371 -0.0997
  191SLPC  C31622173   4.890   0.509   8.379 -0.4754 -0.2194 -0.1044
  191SLPC  H16X22174   4.843   0.604   8.414 -1.7308 -0.4331 -1.1400
  191SLPC  H16Y22175   4.987   0.520   8.325 -0.7891 -1.9347 -1.0891
  191SLPC  C31722176   4.919   0.421   8.501 -0.8358 -0.1268  0.4965
  191SLPC  H17X22177   4.951   0.323   8.458 -1.5731 -0.2338  0.1741
  191SLPC  H17Y22178   4.819   0.409   8.547 -0.9300  1.3764  0.7357
  191SLPC  C31822179   5.016   0.478   8.607  0.5624  0.3851 -0.7402
  191SLPC  H18X22180   5.009   0.451   8.714 -0.2786 -0.3662 -0.9740
  191SLPC  H18Y22181   4.997   0.588   8.613  0.4057  0.3082  0.4034
  191SLPC  H18Z22182   5.120   0.472   8.568  1.2965 -2.3328  1.3089
  192SLPC     N22183   5.046   2.414   6.298  0.3343  0.6433  0.0971
  192SLPC   C1322184   4.969   2.530   6.252 -0.0177  0.6310 -0.5205
  192SLPC  H13A22185   4.865   2.502   6.239  0.3449 -0.9726 -0.1573
  192SLPC  H13B22186   4.980   2.608   6.327 -0.1899 -1.5420  1.9061
  192SLPC  H13C22187   4.997   2.566   6.154 -0.0479  0.8697 -0.4445
  192SLPC   C1422188   5.189   2.459   6.314  0.3183  0.0480 -0.0591
  192SLPC  H14A22189   5.196   2.538   6.388  0.5148  3.7135 -3.6276
  192SLPC  H14B22190   5.261   2.385   6.345  0.7746  0.9908  1.2376
  192SLPC  H14C22191   5.226   2.515   6.229  1.5761 -1.8732 -0.8411
  192SLPC   C1522192   5.045   2.310   6.188  0.4394  0.2994 -0.7065
  192SLPC  H15A22193   5.077   2.214   6.226  0.3701 -0.1697 -1.7784
  192SLPC  H15B22194   4.950   2.291   6.139 -1.2739 -0.5741  2.6735
  192SLPC  H15C22195   5.113   2.343   6.111  0.5155 -2.8370 -2.1595
  192SLPC   C1222196   5.009   2.360   6.437 -0.1498 -0.1592  0.1203
  192SLPC  H12A22197   5.077   2.277   6.449  0.1765  0.1642  0.5492
  192SLPC  H12B22198   4.906   2.329   6.434 -0.4965  0.7122  1.7875
  192SLPC   C1122199   5.032   2.460   6.561  0.0538  0.5445 -0.4123
  192SLPC  H11A22200   5.140   2.484   6.560  0.6529 -1.8308 -1.1739
  192SLPC  H11B22201   4.990   2.401   6.646 -2.1191  1.7938 -0.5378
  192SLPC     P22202   4.975   2.695   6.649 -0.1489 -0.2399 -0.2542
  192SLPC   O1322203   5.117   2.737   6.631 -0.1675  0.4073  0.2487
  192SLPC   O1422204   4.867   2.795   6.623 -0.2662 -0.0290  0.5209
  192SLPC   O1222205   4.954   2.579   6.554  0.3811 -0.0564  0.2609
  192SLPC   O1122206   4.952   2.634   6.792 -0.4691  0.1182 -0.3313
  192SLPC    C122207   4.819   2.577   6.809  0.3749 -0.5688  0.5132
  192SLPC    HA22208   4.752   2.665   6.805  2.6438  1.1977 -0.7228
  192SLPC    HB22209   4.784   2.507   6.728 -1.1030  1.7308 -0.9612
  192SLPC    C222210   4.802   2.493   6.940  0.0533  0.0200  0.4013
  192SLPC    HS22211   4.704   2.440   6.941  0.4787 -0.8535  2.8965
  192SLPC   O2122212   4.830   2.580   7.055  0.3820  0.4702  0.3289
  192SLPC   C2122213   4.748   2.678   7.077  0.8617  1.2578  0.0620
  192SLPC   O2222214   4.650   2.700   7.008 -0.4024 -0.0951 -0.1243
  192SLPC   C2222215   4.787   2.759   7.200  0.0150 -0.0667 -0.7157
  192SLPC   H2R22216   4.895   2.786   7.198  0.0555 -0.2329 -2.6855
  192SLPC   H2S22217   4.726   2.850   7.183  0.4396  0.7191  1.5362
  192SLPC    C322218   4.915   2.381   6.952  0.3891  0.1496 -0.0895
  192SLPC    HX22219   5.008   2.440   6.932  0.5881 -0.4974 -1.1064
  192SLPC    HY22220   4.894   2.315   6.865 -1.6747 -0.4500  0.8158
  192SLPC   O3122221   4.924   2.310   7.078  0.3421  0.1257  0.1444
  192SLPC   C3122222   4.818   2.237   7.102 -0.1169 -0.1755  0.4383
  192SLPC   O3222223   4.741   2.193   7.014 -0.0166 -0.3911 -0.0603
  192SLPC   C3222224   4.811   2.188   7.248 -0.4202 -0.1900 -0.8504
  192SLPC   H2X22225   4.888   2.247   7.302 -0.5022 -0.3742 -0.5261
  192SLPC   H2Y22226   4.848   2.084   7.265 -0.1762 -0.3292 -2.1782
  192SLPC   C2322227   4.753   2.700   7.342  0.0307  0.3092  0.2081
  192SLPC   H3R22228   4.835   2.637   7.385 -0.4814  0.3387  1.2615
  192SLPC   H3S22229   4.668   2.630   7.335  0.9595 -0.7041 -1.9819
  192SLPC   C2422230   4.722   2.815   7.440  0.1566  0.4233  0.0101
  192SLPC   H4R22231   4.629   2.871   7.416  0.4975  1.1657  0.3948
  192SLPC   H4S22232   4.816   2.875   7.446  0.4702 -0.0930  0.3026
  192SLPC   C2522233   4.704   2.759   7.583 -0.1788  0.5025  0.3519
  192SLPC   H5R22234   4.764   2.669   7.608 -1.6765 -0.2634  1.3331
  192SLPC   H5S22235   4.597   2.730   7.590  0.1037 -0.5151  0.6641
  192SLPC   C2622236   4.728   2.857   7.692  0.4335 -0.0964 -0.3710
  192SLPC   H6R22237   4.677   2.956   7.679  0.4069 -0.0627 -0.0042
  192SLPC   H6S22238   4.834   2.883   7.710  0.3177  1.5289 -1.7164
  192SLPC   C2722239   4.675   2.801   7.826  0.4993 -0.2309 -0.2190
  192SLPC   H7R22240   4.734   2.716   7.864  1.8112  0.4453 -0.7035
  192SLPC   H7S22241   4.564   2.790   7.820 -0.0095  1.5168  3.1802
  192SLPC   C2822242   4.690   2.908   7.934  0.5182 -0.3583 -0.1973
  192SLPC   H8R22243   4.627   2.999   7.923 -0.4919 -0.9943  0.2249
  192SLPC   H8S22244   4.799   2.930   7.937  0.6899 -1.1750 -0.1681
  192SLPC   C2922245   4.643   2.859   8.070 -0.6214 -0.0902 -0.4341
  192SLPC   H9R22246   4.546   2.904   8.097 -0.4223 -0.8567  1.7590
  192SLPC  C21022247   4.712   2.781   8.161  0.4053 -0.7287 -0.1005
  192SLPC  H10R22248   4.663   2.732   8.246  2.2770 -1.9296  0.3550
  192SLPC  C21122249   4.852   2.724   8.139 -0.2933 -0.2624 -1.2909
  192SLPC  H11R22250   4.934   2.799   8.147  0.4305 -1.1809  0.2409
  192SLPC  H11S22251   4.845   2.682   8.036  0.0500  1.8201 -2.2089
  192SLPC  C21222252   4.887   2.606   8.224  0.1280  0.0255  0.5866
  192SLPC  H12R22253   4.906   2.514   8.166 -2.5500 -0.4953  0.4177
  192SLPC  C21322254   4.899   2.609   8.361  0.0313 -0.4498  0.1718
  192SLPC  H13R22255   4.919   2.514   8.411 -0.0905  0.3941  1.9128
  192SLPC  C21422256   4.890   2.733   8.445  1.2599  0.2364  0.8915
  192SLPC  H14R22257   4.784   2.766   8.443  1.0595 -0.3744  1.1653
  192SLPC  H14S22258   4.946   2.820   8.405  0.8382  0.6410  1.1661
  192SLPC  C21522259   4.931   2.705   8.592  0.1715  0.0085 -0.1542
  192SLPC  H15R22260   4.857   2.637   8.639  0.7673  2.4910  4.9707
  192SLPC  H15S22261   4.929   2.802   8.645 -0.0152 -0.0036 -0.1406
  192SLPC  C21622262   5.067   2.638   8.610  0.5299 -0.3930 -0.1036
  192SLPC  H16R22263   5.063   2.528   8.597  1.6390 -0.4628  0.1044
  192SLPC  H16S22264   5.103   2.649   8.715 -0.9836  0.5214  0.3694
  192SLPC  C21722265   5.182   2.710   8.531  0.1488 -0.2757  0.2625
  192SLPC  H17R22266   5.183   2.675   8.425  0.7112  1.0051 -0.1832
  192SLPC  H17S22267   5.164   2.820   8.534 -1.4683 -0.5456  1.2901
  192SLPC  C21822268   5.316   2.685   8.595 -0.8958 -0.2700 -0.0773
  192SLPC  H18R22269   5.387   2.691   8.510 -1.2822 -0.3809 -0.4078
  192SLPC  H18S22270   5.328   2.582   8.635  0.7590 -0.7690 -1.7229
  192SLPC  H18T22271   5.346   2.758   8.674  2.3624 -2.0253  0.4769
  192SLPC   C3322272   4.678   2.216   7.322  0.0495  0.7039  0.1466
  192SLPC   H3X22273   4.618   2.124   7.305  0.6303  0.6748 -2.1393
  192SLPC   H3Y22274   4.624   2.301   7.275  0.6302  0.3415 -1.2485
  192SLPC   C3422275   4.705   2.237   7.476  0.2398  0.5107  0.2369
  192SLPC   H4X22276   4.805   2.191   7.488 -0.1062 -0.8572 -1.6526
  192SLPC   H4Y22277   4.624   2.188   7.535 -1.2213  1.3605 -0.9854
  192SLPC   C3522278   4.709   2.390   7.513 -0.9193  0.4834 -0.1458
  192SLPC   H5X22279   4.649   2.449   7.440 -0.5455  0.3798 -0.5316
  192SLPC   H5Y22280   4.814   2.425   7.503 -0.2683 -0.1143  3.3439
  192SLPC   C3622281   4.668   2.410   7.659  0.8153  0.3976 -0.1563
  192SLPC   H6X22282   4.559   2.389   7.667  0.7322 -0.0226 -1.8555
  192SLPC   H6Y22283   4.671   2.515   7.695  1.3310  0.3241  0.0156
  192SLPC   C3722284   4.750   2.331   7.756 -0.1148  0.6729 -0.2035
  192SLPC   H7X22285   4.858   2.322   7.731 -0.4187  1.3110 -1.9006
  192SLPC   H7Y22286   4.712   2.226   7.760  2.4580 -0.3194 -0.2030
  192SLPC   C3822287   4.746   2.393   7.900 -0.0658  0.7168  0.4988
  192SLPC   H8X22288   4.760   2.503   7.889 -0.5679  1.0987  3.0938
  192SLPC   H8Y22289   4.837   2.358   7.953  0.4442  2.5079  0.8680
  192SLPC   C3922290   4.616   2.353   7.972 -0.7339 -0.1362  0.6867
  192SLPC   H9X22291   4.606   2.243   7.987  1.1897 -0.2420  1.5076
  192SLPC   H9Y22292   4.534   2.374   7.899  1.1130  0.0602 -1.4257
  192SLPC  C31022293   4.592   2.432   8.094  0.7017  0.5164  0.6580
  192SLPC  H10X22294   4.614   2.540   8.079  0.7526  0.2909 -0.9900
  192SLPC  H10Y22295   4.670   2.394   8.163 -0.3826 -0.0976  1.5792
  192SLPC  C31122296   4.448   2.411   8.146  0.6109  0.0548 -0.6171
  192SLPC  H11X22297   4.445   2.309   8.190  1.0649  0.8276  1.3116
  192SLPC  H11Y22298   4.366   2.435   8.075 -1.3985 -1.1785  1.1600
  192SLPC  C31222299   4.430   2.503   8.264  0.0518  0.0977 -1.1169
  192SLPC  H12X22300   4.323   2.521   8.285 -0.3448 -0.8046 -2.2692
  192SLPC  H12Y22301   4.459   2.604   8.229 -0.5804  0.4689 -0.6001
  192SLPC  C31322302   4.498   2.470   8.395 -0.0807 -0.3881  0.4141
  192SLPC  H13X22303   4.608   2.458   8.380  0.0728 -1.0825  1.9354
  192SLPC  H13Y22304   4.452   2.378   8.436  2.3326 -2.0894 -0.4543
  192SLPC  C31422305   4.500   2.584   8.498 -0.1023 -0.0842  0.2156
  192SLPC  H14X22306   4.398   2.602   8.536  0.4945  0.3950  1.6654
  192SLPC  H14Y22307   4.541   2.674   8.446 -0.6960 -0.0425 -0.1917
  192SLPC  C31522308   4.569   2.545   8.628  0.3218 -0.2878 -0.2103
  192SLPC  H15X22309   4.673   2.508   8.614  0.6127  0.3309  0.2599
  192SLPC  H15Y22310   4.510   2.467   8.681  0.2870 -0.4685 -0.5161
  192SLPC  C31622311   4.593   2.660   8.734  0.3963  0.5501  0.1598
  192SLPC  H16X22312   4.496   2.695   8.773 -0.2433  0.4204 -1.2308
  192SLPC  H16Y22313   4.645   2.744   8.684  0.2970  0.9280  0.6934
  192SLPC  C31722314   4.677   2.614   8.852 -0.1784  0.2908 -0.0020
  192SLPC  H17X22315   4.729   2.698   8.903  0.8357 -1.0367  1.2353
  192SLPC  H17Y22316   4.768   2.565   8.810 -1.2096 -1.6060 -0.1495
  192SLPC  C31822317   4.596   2.524   8.945  0.8656 -0.4658  0.5750
  192SLPC  H18X22318   4.639   2.520   9.047  0.5702 -2.1740  0.6557
  192SLPC  H18Y22319   4.589   2.420   8.906  0.7453  0.4404 -2.0333
  192SLPC  H18Z22320   4.493   2.565   8.947  0.7451 -0.4573 -2.2134
  193SOD    SOD22321   0.161   5.433  11.843 -0.0082  0.1901 -0.3760
  194SOD    SOD22322   4.816   0.543  15.535  0.3063  0.6564 -0.3997
  195SOD    SOD22323   6.286   2.762  15.161 -0.3534  0.4668 -0.3945
  196SOD    SOD22324   5.021   0.224  11.120  0.2237  0.1963  0.1669
  197SOD    SOD22325   1.501   4.568  13.036 -0.4260 -0.5978 -0.1311
  198SOD    SOD22326   6.638   0.259  11.624  0.6810 -0.0554 -0.3239
  199SOD    SOD22327   4.799   0.382  13.039  0.2814  0.3662  0.0397
  200SOD    SOD22328   5.847   2.437   0.723  0.6047 -0.2467 -0.2946
  201SOD    SOD22329   3.379   6.033  16.622 -0.5349  0.5153 -0.4135
  202SOD    SOD22330   3.772   5.832  16.706  0.0540  0.8412  0.3701
  203SOD    SOD22331   2.847   1.083   5.795  0.5427  0.1212  0.4519
  204SOD    SOD22332   2.487   1.692   1.934 -0.3331  0.2223 -0.6261
  205SOD    SOD22333   0.804   2.985  10.430 -0.1118 -0.2230  0.1032
  206SOD    SOD22334   4.332   4.480   6.608 -0.2338  0.1565 -0.4127
  207SOD    SOD22335   5.703   2.982   4.013  0.7185  0.2763  0.1607
  208SOD    SOD22336   5.156   6.645   2.781 -0.2044  0.0363 -0.1462
  209SOD    SOD22337   1.400   3.501  12.355  0.0518 -0.2328 -0.1919
  210SOD    SOD22338   5.104   3.335  11.261  0.3764  0.1421 -0.0060
  211SOD    SOD22339   4.262   6.307  11.528 -0.5937 -0.2315 -0.0546
  212SOD    SOD22340   0.256   0.710   1.402  0.4620  0.2042 -0.3431
  213SOD    SOD22341   0.944   3.814   1.875  0.1442  0.3486 -0.0859
  214SOD    SOD22342   0.588   3.512  11.779 -0.1173  0.1585  0.0261
  215SOD    SOD22343   0.939   1.289   5.305 -0.4982  0.3669  0.1474
  216SOD    SOD22344   3.561   5.873   3.505  0.2375 -0.1917 -0.2671
  217SOD    SOD22345   2.496   4.544  14.217 -0.3536 -0.0784  0.0746
  218SOD    SOD22346   2.261   0.416   5.558 -0.0443 -0.1111  0.6140
  219SOD    SOD22347   0.849   1.634  15.792 -0.1545 -0.2109  0.3613
  220SOD    SOD22348   2.752   1.259   0.892  0.0130  0.0362  0.1445
  221SOD    SOD22349   1.304   5.575  11.394  0.6742 -0.1721 -0.3799
  222SOD    SOD22350   1.526   3.797  16.989  0.3506 -0.2404  0.9199
  223SOD    SOD22351   3.854   5.696  11.322  0.4110 -0.0600  0.2647
  224SOD    SOD22352   5.475   2.795   4.695 -0.4455 -0.0312 -0.0335
  225SOD    SOD22353   1.479   3.472   0.086  0.2324  0.1853  0.0497
  226SOD    SOD22354   3.648   5.939   5.923  0.1836  0.3221  0.0243
  227SOD    SOD22355   5.934   4.546   2.202 -0.3045 -0.3646 -0.5189
  228SOD    SOD22356   0.252   3.087   4.514  0.4537  0.1416  0.0441
  229SOD    SOD22357   5.643   6.172   0.246  0.0442 -0.2284  0.1805
  230SOD    SOD22358   4.924   1.010   4.509  0.3775  0.3225 -0.2807
  231SOD    SOD22359   5.400   2.494   2.074  0.4188  0.3438 -0.4448
  232SOD    SOD22360   1.717   5.517  12.990  0.0403  0.3492  0.0259
  233SOD    SOD22361   5.535   1.878   5.155 -0.1093  0.0312  0.3543
  234SOD    SOD22362   4.742   3.816   2.467  0.0906  0.4452 -0.0346
  235SOD    SOD22363   4.861   6.413  10.479  0.4405  0.3371  0.1718
  236SOD    SOD22364   3.810   4.135   1.670  0.2215 -0.6197 -0.2748
  237SOD    SOD22365   2.940   0.706  16.499 -0.1024  0.0311 -0.9202
  238SOD    SOD22366   3.509   1.462  14.055 -0.1290 -0.2740 -0.1198
  239SOD    SOD22367   2.784   0.177  11.959  0.9687 -0.4619 -0.0263
  240SOD    SOD22368   1.339   5.340   6.149 -0.2204 -0.3159  0.1708
  241SOD    SOD22369   0.172   3.669   5.819  0.0642 -0.5926  0.4981
  242SOD    SOD22370   0.148   6.578  12.565 -0.3943  0.0808 -0.9165
  243SOD    SOD22371   2.395   4.313   3.070 -0.1968  0.7848 -0.5371
  244SOD    SOD22372   3.023   1.066   0.153  0.1091 -0.0487 -0.4243
  245SOD    SOD22373   5.868   4.530   6.356 -0.5311 -0.6370  0.4340
  246SOD    SOD22374   4.914   5.029  13.218 -0.1440  0.0729 -0.1584
  247SOD    SOD22375   3.407   6.677  14.208 -0.3794 -0.6066 -0.4389
  248SOD    SOD22376   3.591   2.917   5.402  0.1874 -0.6713 -0.2718
  249SOD    SOD22377   6.124   5.561  13.305  0.2680 -0.3514  0.1952
  250SOD    SOD22378   6.041   4.754   0.528 -0.4706 -0.4877  0.3014
  251SOD    SOD22379   4.044   4.117   4.202 -0.1934 -0.3504  0.0661
  252SOD    SOD22380   4.401   6.439   1.274 -0.6450 -0.3095 -0.0884
  253SOD    SOD22381   6.443   0.452   5.928 -0.0772  0.2696  0.4887
  254SOD    SOD22382   1.752   6.120  16.691  0.3889 -0.2675  0.3395
  255SOD    SOD22383   6.693   3.433  13.064  0.1715 -0.0872 -0.5957
  256SOD    SOD22384   5.078   5.165  14.789 -0.3299 -0.1298  0.2903
  257SOD    SOD22385   2.949   2.251   3.748 -0.2219  0.1268 -0.9955
  258SOD    SOD22386   0.378   4.771  15.214 -0.0891  0.2350  0.1887
  259SOD    SOD22387   2.368   6.011  14.260 -0.4841 -0.0425  0.4134
  260SOD    SOD22388   0.075   4.237   0.469 -0.2147 -0.2837  0.2102
  261SOD    SOD22389   5.446   1.190   3.085 -0.2727 -0.1491 -0.3775
  262SOD    SOD22390   2.901   4.487   0.364 -0.4864 -0.3790  0.4847
  263SOD    SOD22391   2.446   4.557  11.332 -0.0450 -0.0238  0.1580
  264SOD    SOD22392   5.308   0.933   5.325  0.3288  0.2810 -0.1449
  265SOD    SOD22393   4.344   4.833  15.328  0.0094  0.8902 -0.0922
  266CLA    CLA22394   3.414   3.677  12.384 -0.1177  0.3276 -0.2705
  267CLA    CLA22395   0.890   3.381   5.967 -0.0866 -0.1358 -0.4138
  268CLA    CLA22396   6.258   4.580  15.003  0.1849 -0.0850 -0.2136
  269CLA    CLA22397   3.385   4.715  11.174 -0.2634 -0.4288  0.3984
  270CLA    CLA22398   1.391   3.717   0.924 -0.2632  0.1153 -0.2175
  271CLA    CLA22399   3.662   6.199  15.273  0.1838  0.1486  0.1010
  272CLA    CLA22400   0.924   3.392   0.759 -0.0195 -0.0725 -0.0462
  273CLA    CLA22401   1.981   6.573  15.319 -0.3750  0.2024  1.0452
  274CLA    CLA22402   3.369   1.003  16.383 -0.4899 -0.1733 -0.3105
  275CLA    CLA22403   0.396   6.229   4.811  0.2693 -0.0473 -0.1258
  276CLA    CLA22404   4.253   6.121  13.405  0.2371 -0.2652 -0.0987
  277CLA    CLA22405   0.487   0.484   2.591  0.0913  0.2081 -0.1517
  278CLA    CLA22406   2.310   4.210   3.711  0.2773  0.2661 -0.0285
  279CLA    CLA22407   3.294   2.851  13.810 -0.4261  0.0415  0.2717
  280CLA    CLA22408   3.684   0.226   4.054  0.2114  0.0154  0.3458
  281CLA    CLA22409   0.736   5.368  12.528  0.4547  0.5225  0.0746
  282CLA    CLA22410   2.738   3.622   2.866 -0.0485  0.1035  0.2546
  283CLA    CLA22411   2.761   4.760  13.605  0.2944 -0.1928  0.1790
  284CLA    CLA22412   3.419   6.255  12.307 -0.0077  0.0904 -0.3579
  285CLA    CLA22413   2.052   6.211   3.878  0.2085  0.2735 -0.1588
  286CLA    CLA22414   4.370   6.647  12.197  0.2182  0.5183 -0.2621
  287CLA    CLA22415   4.025   0.322   2.737  0.1080 -0.3331  0.0498
  288CLA    CLA22416   3.640   6.150  11.572  0.1790 -0.1244  0.5057
  289CLA    CLA22417   5.526   1.879  12.470 -0.1401 -0.2905  0.3371
  290CLA    CLA22418   4.374   5.403  17.002  0.0969  0.0971  0.3663
  291CLA    CLA22419   5.135   1.631   4.918  0.3473  0.4757 -0.1402
  292CLA    CLA22420   6.138   4.605  11.851  0.0757  0.2595  0.4876
  293CLA    CLA22421   0.086   0.698   4.447  0.2284 -0.2097  0.3518
  294CLA    CLA22422   4.484   3.754   2.517  0.3345  0.1007  0.2316
  295CLA    CLA22423   6.583   6.036  11.461  0.2501  0.5829  0.4988
  296CLA    CLA22424   2.012   3.433  15.386 -0.1014 -0.6814  0.1558
  297CLA    CLA22425   1.125   3.143  17.224 -0.1832 -0.0933 -0.0609
  298CLA    CLA22426   3.866   6.463   2.435 -0.0755 -0.3147  0.1915
  299CLA    CLA22427   3.768   0.821   1.462  0.2422 -0.6190  0.2085
  300CLA    CLA22428   6.082   1.500   2.345 -0.0208  0.0526 -0.1172
  301CLA    CLA22429   0.768   1.961  16.198 -0.3130  0.1530  0.1260
  302CLA    CLA22430   6.259   5.203   0.792  0.6295  0.3501 -0.0214
  303CLA    CLA22431   6.179   0.781   3.966 -0.1819  0.2558  0.1596
  304CLA    CLA22432   5.877   3.068   4.782 -0.1123 -0.7079  0.5909
  305CLA    CLA22433   4.649   3.861  13.210  0.6095  0.2888 -0.2006
  306CLA    CLA22434   0.323   2.411  15.893  0.5322  0.6114  0.2747
  307CLA    CLA22435   3.323   2.762   1.855 -0.2872 -0.0833 -0.4303
  308CLA    CLA22436   2.859   1.112   5.241  0.1449  0.0970 -0.4139
  309CLA    CLA22437   1.239   6.730  16.774  0.1244  0.0049  0.1681
  310CLA    CLA22438   5.268   2.919  16.798 -0.6036 -0.1211  0.2345
  311CLA    CLA22439   1.012   6.208   2.086  0.3268  0.4587  0.1479
  312CLA    CLA22440   4.081   2.794  16.282  0.6149 -0.1734  0.3497
  313CLA    CLA22441   0.263   2.561   2.137  0.2192 -0.0540 -0.0424
  314CLA    CLA22442   5.843   0.534   1.731  0.3275 -0.2756  0.3717
  315CLA    CLA22443   0.112   5.224  13.015 -0.0331  0.4212  0.2395
  316CLA    CLA22444   2.928   0.895  15.783  0.1030  0.2097  0.2810
  317CLA    CLA22445   6.139   6.535  14.470  0.0398 -0.1837 -0.1762
  318CLA    CLA22446   2.472   5.005   3.320 -0.3636  0.3236 -0.4593
  319TIP3   OH222447   6.435   4.930   4.218 -0.0484 -0.3133  0.4900
  319TIP3    H122448   6.496   4.986   4.170 -0.6004 -0.7987 -0.8362
  319TIP3    H222449   6.468   4.929   4.307  0.2602  1.7168  0.4360
  320TIP3   OH222450   0.452   5.645   2.499 -0.5256 -0.7946 -0.1074
  320TIP3    H122451   0.395   5.601   2.563 -0.4330 -1.6702 -0.6135
  320TIP3    H222452   0.534   5.595   2.502  1.1307  1.7490  2.2427
  321TIP3   OH222453   2.378   2.288   5.556 -0.1778 -0.1846 -0.0647
  321TIP3    H122454   2.467   2.313   5.582 -0.5543  1.4113 -0.2215
  321TIP3    H222455   2.349   2.227   5.624 -0.4029  2.2927  2.1852
  322TIP3   OH222456   1.862   4.537  14.325 -0.4912  0.0746 -0.0766
  322TIP3    H122457   1.842   4.479  14.251 -0.4381 -0.6012  0.4295
  322TIP3    H222458   1.776   4.567  14.355 -0.8967 -2.7125  2.0016
  323TIP3   OH222459   1.080   2.662  16.010 -0.6383  0.6100  0.1208
  323TIP3    H122460   1.000   2.613  15.993  0.4686 -1.4321  0.4683
  323TIP3    H222461   1.104   2.639  16.100  1.0028  0.1001 -0.4000
  324TIP3   OH222462   1.445   0.131   4.822 -0.6229  0.2359 -0.5676
  324TIP3    H122463   1.364   0.100   4.862 -0.8757 -0.4293 -1.5465
  324TIP3    H222464   1.459   0.072   4.748  0.9532  0.1097 -0.2027
  325TIP3   OH222465   5.655   0.601  13.757 -0.3037  0.1831  0.2755
  325TIP3    H122466   5.600   0.536  13.802 -0.0677  1.5000  2.6353
  325TIP3    H222467   5.603   0.628  13.682 -1.9592 -0.1801  1.2323
  326TIP3   OH222468   6.808   0.108   0.777 -0.7500 -0.5171  0.2875
  326TIP3    H122469   6.894   0.148   0.764 -2.1658  2.2664 -1.3926
  326TIP3    H222470   6.828   0.016   0.799  2.6040  0.0826  0.3526
  327TIP3   OH222471   1.796   0.042  12.558  0.1102  0.2586  0.1237
  327TIP3    H122472   1.835   0.115  12.606 -0.0438  0.3189  0.1571
  327TIP3    H222473   1.829   0.052  12.468 -0.2233  0.6006  0.0368
  328TIP3   OH222474   1.443   4.232   2.636 -0.2157  0.0023  0.6023
  328TIP3    H122475   1.384   4.297   2.596 -0.0504 -0.3815 -0.2831
  328TIP3    H222476   1.530   4.258   2.607 -0.1852 -0.8395 -0.0771
  329TIP3   OH222477   2.329   1.105   4.190 -0.1445  0.5652  0.2086
  329TIP3    H122478   2.392   1.149   4.247 -0.2330  1.0376 -0.0548
  329TIP3    H222479   2.276   1.176   4.153  0.7485  0.4046 -1.4928
  330TIP3   OH222480   3.805   1.575   0.236 -0.0444  0.3770  0.0369
  330TIP3    H122481   3.834   1.659   0.271  0.6862 -0.1593  0.7757
  330TIP3    H222482   3.886   1.530   0.211 -0.5134  0.6417 -2.2005
  331TIP3   OH222483   3.523   1.500   4.568  0.5628 -0.3463 -0.1158
  331TIP3    H122484   3.464   1.542   4.506  1.0114  0.0828 -0.2621
  331TIP3    H222485   3.573   1.438   4.515 -0.0654 -1.0369  0.0913
  332TIP3   OH222486   5.532   5.154  15.005 -0.1085  0.2285  0.1192
  332TIP3    H122487   5.557   5.081  15.061 -2.2306 -0.3490  0.3856
  332TIP3    H222488   5.550   5.232  15.059  0.1670 -0.1996  0.6580
  333TIP3   OH222489   1.423   0.073   0.792  0.7970  0.4106  0.0403
  333TIP3    H122490   1.416   0.141   0.859  0.6435  0.6472 -0.2104
  333TIP3    H222491   1.332   0.046   0.777  0.7269  1.0329 -0.7479
  334TIP3   OH222492   3.095   1.849  16.357  0.3061 -0.2384 -0.0746
  334TIP3    H122493   3.186   1.840  16.328  0.6082  2.5900 -0.2663
  334TIP3    H222494   3.044   1.813  16.284  1.2235 -2.0762  0.1305
  335TIP3   OH222495   1.447   1.056   1.315 -0.1061 -0.3735 -0.2170
  335TIP3    H122496   1.472   1.148   1.316  0.8258 -0.5960  1.1111
  335TIP3    H222497   1.529   1.009   1.335 -0.3788 -1.5529 -1.6651
  336TIP3   OH222498   5.936   2.216   0.898  0.2524 -0.2268 -0.6476
  336TIP3    H122499   5.999   2.275   0.941  0.3870 -0.3302 -0.7051
  336TIP3    H222500   5.874   2.193   0.967  0.1430  0.0599 -0.6470
  337TIP3   OH222501   4.009   3.764   5.176 -0.0635 -0.2471  0.3422
  337TIP3    H122502   3.915   3.755   5.156 -0.5318  2.4823  0.8698
  337TIP3    H222503   4.051   3.766   5.090 -0.5466 -0.9046  0.0789
  338TIP3   OH222504   4.732   2.401  14.977 -0.1889  0.1569 -0.0489
  338TIP3    H122505   4.683   2.470  15.021  1.8589  2.6616 -1.3632
  338TIP3    H222506   4.807   2.385  15.035 -0.0223 -0.0629 -0.3226
  339TIP3   OH222507   4.726   2.114  15.937  0.2226  0.8672 -0.1600
  339TIP3    H122508   4.795   2.131  16.001  0.4354  3.0563 -0.8874
  339TIP3    H222509   4.766   2.052  15.876  0.9557  0.8030  0.3647
  340TIP3   OH222510   0.161   2.134   2.402  0.2605  0.3606  0.4123
  340TIP3    H122511   0.194   2.196   2.466  1.7220  1.7529 -1.5578
  340TIP3    H222512   0.234   2.075   2.385  0.3274  0.7655 -0.8209
  341TIP3   OH222513   6.805   2.995   2.548  0.3683 -0.4268 -0.3468
  341TIP3    H122514   6.885   2.945   2.567  0.0345 -0.5510  0.8136
  341TIP3    H222515   6.837   3.078   2.513  1.0388 -0.2356  0.6855
  342TIP3   OH222516   1.224   6.587  14.170  0.7564  0.7094 -0.1085
  342TIP3    H122517   1.182   6.576  14.256 -0.1189  0.5331 -0.5487
  342TIP3    H222518   1.274   6.668  14.177  1.1131  0.4290  0.7318
  343TIP3   OH222519   5.648   1.524  11.487 -0.5539 -0.0505  0.0813
  343TIP3    H122520   5.637   1.607  11.532 -1.7740 -0.6461  0.9426
  343TIP3    H222521   5.571   1.517  11.430 -0.5127 -0.6220  0.0841
  344TIP3   OH222522   2.095   4.625   5.255 -0.1009 -0.6569  0.0101
  344TIP3    H122523   2.062   4.712   5.281 -0.5255 -0.3079 -1.5606
  344TIP3    H222524   2.187   4.626   5.279  0.2730  0.8355 -1.3014
  345TIP3   OH222525   3.940   4.190  12.626 -0.0774 -0.1130  0.7644
  345TIP3    H122526   3.923   4.134  12.550 -1.0265 -0.9826  1.5740
  345TIP3    H222527   3.929   4.131  12.701  0.3091  0.8471  1.5882
  346TIP3   OH222528   1.488   6.533   3.113 -0.1376 -0.0268  0.0247
  346TIP3    H122529   1.560   6.567   3.061  0.0180 -0.6054 -0.1481
  346TIP3    H222530   1.482   6.441   3.087 -0.9087  0.0075  0.0667
  347TIP3   OH222531   1.221   2.489  14.668 -0.5671 -0.7337  0.3201
  347TIP3    H122532   1.130   2.512  14.649 -1.3911 -2.1941  2.2733
  347TIP3    H222533   1.227   2.488  14.763  1.5863 -0.4297  0.2482
  348TIP3   OH222534   0.471   4.770   5.165 -0.4367 -0.0070  0.0372
  348TIP3    H122535   0.458   4.677   5.182 -1.1546  0.1251  0.2590
  348TIP3    H222536   0.520   4.802   5.241  1.3622 -0.5359 -0.8559
  349TIP3   OH222537   0.543   0.763   0.973  0.1833 -0.3156  0.2729
  349TIP3    H122538   0.582   0.849   0.988  0.5213 -0.6365  1.3839
  349TIP3    H222539   0.619   0.704   0.966 -0.0611 -0.6269  0.2561
  350TIP3   OH222540   4.510   2.453   3.840 -0.6977  0.5262  0.5054
  350TIP3    H122541   4.546   2.520   3.898  0.3285  2.2513 -1.9019
  350TIP3    H222542   4.538   2.370   3.877  2.4386  1.6539  0.9311
  351TIP3   OH222543   5.284   1.067  11.588 -0.3478  0.5514  0.2784
  351TIP3    H122544   5.370   1.108  11.576  0.5981 -0.6777  2.3095
  351TIP3    H222545   5.291   1.021  11.672 -2.1782 -1.6316 -0.6697
  352TIP3   OH222546   4.066   4.024  12.938  0.4354 -0.7044  0.1556
  352TIP3    H122547   4.010   4.098  12.961  2.3827  0.6194  0.9893
  352TIP3    H222548   4.007   3.950  12.929 -1.6773  1.0441 -1.2986
  353TIP3   OH222549   4.127   5.092   5.173  0.0895 -0.4694  0.7787
  353TIP3    H122550   4.124   5.187   5.187 -1.4161 -0.2778 -0.6395
  353TIP3    H222551   4.036   5.066   5.159  0.7853 -1.0759 -5.0825
  354TIP3   OH222552   6.365   5.211   5.762 -1.1921  0.0237 -0.0924
  354TIP3    H122553   6.458   5.233   5.747 -0.4641 -2.7139 -0.1670
  354TIP3    H222554   6.352   5.225   5.855  0.2252 -2.3308  0.5467
  355TIP3   OH222555   3.613   2.922   5.639  0.4448 -0.3246 -0.3284
  355TIP3    H122556   3.647   2.903   5.727 -1.6193  0.8539  0.8138
  355TIP3    H222557   3.525   2.957   5.655  0.7152  1.7313 -2.7333
  356TIP3   OH222558   4.098   4.104   4.430 -0.1062  0.1646 -0.5503
  356TIP3    H122559   4.177   4.111   4.483  0.4785 -3.1009 -0.7649
  356TIP3    H222560   4.028   4.137   4.487  1.0427  0.6364  0.6439
  357TIP3   OH222561   3.687   5.521   0.005 -0.6768 -1.0350 -0.8133
  357TIP3    H122562   3.676   5.608  -0.034  3.0194 -0.5986 -1.2748
  357TIP3    H222563   3.707   5.464  -0.070 -1.0622 -1.8627 -0.3009
  358TIP3   OH222564   3.211   5.354   0.351 -0.2588 -0.2531 -0.5171
  358TIP3    H122565   3.296   5.398   0.356 -0.6131  0.9762 -3.2561
  358TIP3    H222566   3.150   5.413   0.394  0.1445 -0.8545  0.9206
  359TIP3   OH222567   3.981   2.472  15.558 -0.3971 -0.3159 -1.2843
  359TIP3    H122568   4.069   2.436  15.571  0.5622  0.6528 -4.3172
  359TIP3    H222569   3.925   2.420  15.617  1.9753 -1.7947 -0.1815
  360TIP3   OH222570   5.568   6.049  11.423  0.6169 -0.1159 -0.1494
  360TIP3    H122571   5.516   6.080  11.349  1.8834  0.0260 -1.0050
  360TIP3    H222572   5.506   5.998  11.476 -0.2570 -0.4172 -1.4192
  361TIP3   OH222573   3.588   2.150   4.955  0.1152 -0.1679 -0.3290
  361TIP3    H122574   3.664   2.091   4.962  0.4967  0.3503 -0.0401
  361TIP3    H222575   3.621   2.225   4.907 -0.1794  0.1196 -0.0852
  362TIP3   OH222576   6.019   0.909  17.229  0.3887  0.3429 -0.2649
  362TIP3    H122577   5.928   0.879  17.225  0.2371  0.9340 -1.8641
  362TIP3    H222578   6.040   0.908  17.322 -1.4197  0.6872  0.1866
  363TIP3   OH222579   4.663   5.393   2.348  0.4488 -0.2708  0.4816
  363TIP3    H122580   4.626   5.306   2.335 -1.7758  0.6957 -0.0315
  363TIP3    H222581   4.697   5.392   2.438  0.1988 -1.5700  0.5715
  364TIP3   OH222582   3.701   3.439  13.388 -0.4120  0.0459 -0.7271
  364TIP3    H122583   3.742   3.472  13.308 -0.6150  2.2378  0.0161
  364TIP3    H222584   3.611   3.472  13.385 -0.7379 -0.7544 -0.0977
  365TIP3   OH222585   2.808   3.821   4.264  0.2942  0.0094 -0.2148
  365TIP3    H122586   2.746   3.828   4.337  0.2330  2.1549 -0.4284
  365TIP3    H222587   2.799   3.730   4.234  0.0651 -0.8397  2.1954
  366TIP3   OH222588   3.385   4.442   0.774  0.0281 -0.5040  0.0909
  366TIP3    H122589   3.406   4.349   0.780 -0.3651 -0.6339 -0.4871
  366TIP3    H222590   3.290   4.446   0.789 -0.5445 -0.5542 -2.9686
  367TIP3   OH222591   4.737   3.820   1.104  0.3377  0.0939 -0.2053
  367TIP3    H122592   4.816   3.830   1.052  0.4988 -0.1966 -0.0222
  367TIP3    H222593   4.665   3.828   1.041  0.5325 -0.3152 -0.4823
  368TIP3   OH222594   2.787   6.688   3.578 -0.4011  0.2289 -0.5682
  368TIP3    H122595   2.870   6.703   3.623 -1.4626  0.6448  1.3528
  368TIP3    H222596   2.810   6.685   3.485  1.9847 -1.3245 -0.0016
  369TIP3   OH222597   1.036   6.802  16.326  0.6220  0.2289 -0.2309
  369TIP3    H122598   0.963   6.763  16.280  1.1995 -0.1862 -0.8170
  369TIP3    H222599   0.996   6.852  16.397 -0.1755 -0.7211  0.0091
  370TIP3   OH222600   4.386   1.498  14.369 -0.0080  0.1220  0.0913
  370TIP3    H122601   4.310   1.440  14.363  1.3730 -1.6553 -3.2313
  370TIP3    H222602   4.370   1.564  14.302  1.2876 -0.2417 -0.6076
  371TIP3   OH222603   4.087   1.758  12.395  0.0605  0.3026  0.0314
  371TIP3    H122604   4.044   1.819  12.335 -0.9672 -0.3107  0.1248
  371TIP3    H222605   4.080   1.673  12.351 -0.1200 -0.0439  0.7234
  372TIP3   OH222606   4.285   6.061  12.071 -0.3551  0.4957  0.0809
  372TIP3    H122607   4.297   5.982  12.125 -0.6447  1.4522  1.6177
  372TIP3    H222608   4.331   6.042  11.990 -1.8530 -1.9254 -0.2973
  373TIP3   OH222609   1.940   0.303   2.031 -0.4888 -0.2986  0.0070
  373TIP3    H122610   1.867   0.259   2.075 -0.2461  0.9617  1.7896
  373TIP3    H222611   2.018   0.256   2.059 -0.4005 -0.0064  0.2544
  374TIP3   OH222612   5.999   1.898  17.214 -0.4189  0.0499  0.2119
  374TIP3    H122613   5.951   1.976  17.186 -1.8379 -0.4699  1.0768
  374TIP3    H222614   6.055   1.929  17.285 -1.0548  0.2704  0.6217
  375TIP3   OH222615   2.044   0.536  12.516  0.2299 -0.2334  0.3548
  375TIP3    H122616   2.036   0.586  12.597  0.8339 -0.3290  0.4757
  375TIP3    H222617   2.138   0.521  12.505  0.1891  0.0624 -0.5374
  376TIP3   OH222618   5.695   4.981   2.376 -0.2949  0.6393  0.4232
  376TIP3    H122619   5.620   5.038   2.360 -2.2915 -1.8915  0.0179
  376TIP3    H222620   5.731   5.012   2.459 -1.9711  1.7877  0.7855
  377TIP3   OH222621   6.600   5.291   3.712 -0.2111  0.0258 -0.3436
  377TIP3    H122622   6.618   5.205   3.675 -0.1437 -0.4438  0.7468
  377TIP3    H222623   6.509   5.288   3.739 -0.0113  0.0329  0.3626
  378TIP3   OH222624   6.643   3.381   5.958  0.0829 -0.2646 -0.1166
  378TIP3    H122625   6.635   3.427   5.875  0.8156  1.5564  0.7628
  378TIP3    H222626   6.570   3.413   6.011  3.3157  4.1467  2.3225
  379TIP3   OH222627   2.425   2.929   1.344  0.2344  0.0358  0.1193
  379TIP3    H122628   2.449   2.937   1.252  2.3878  1.2386  0.7230
  379TIP3    H222629   2.339   2.971   1.350  0.3775  0.5645 -1.2003
  380TIP3   OH222630   0.339   0.263  14.080  0.0077  0.7772  0.3634
  380TIP3    H122631   0.279   0.303  14.016 -2.0805 -1.0531  1.0391
  380TIP3    H222632   0.395   0.205  14.028  0.1955  1.3769 -0.1114
  381TIP3   OH222633   0.207   1.149   5.219 -0.0085  0.5242 -0.0095
  381TIP3    H122634   0.144   1.099   5.168  0.5430 -0.2812  0.0714
  381TIP3    H222635   0.292   1.124   5.183  0.3533  0.3571  0.9227
  382TIP3   OH222636   2.130   2.059  15.825  0.0745  0.4036 -0.4729
  382TIP3    H122637   2.096   1.970  15.816  0.9940 -0.0584  0.4451
  382TIP3    H222638   2.110   2.083  15.915  3.6096 -0.5714  0.7426
  383TIP3   OH222639   0.833   0.007   0.836  0.3776  0.0163  0.3210
  383TIP3    H122640   0.894   0.063   0.884 -0.8527  2.6481 -0.9867
  383TIP3    H222641   0.748   0.025   0.875 -0.1066 -0.5821 -0.4405
  384TIP3   OH222642   0.552   0.007   1.396 -0.4578  0.3623 -0.2039
  384TIP3    H122643   0.533  -0.084   1.375  2.3121 -0.2594 -0.4272
  384TIP3    H222644   0.547   0.011   1.491  0.3061 -0.2982 -0.1216
  385TIP3   OH222645   6.607   5.887  10.857 -0.3117  0.4192  0.1807
  385TIP3    H122646   6.562   5.934  10.787 -1.9440 -1.1920  0.0503
  385TIP3    H222647   6.536   5.861  10.917  0.7456 -0.3178  1.1589
  386TIP3   OH222648   4.836   2.512   1.511  0.3598 -0.2837 -0.2055
  386TIP3    H122649   4.743   2.506   1.490  0.2695 -0.4425  0.2242
  386TIP3    H222650   4.860   2.423   1.539  0.9546 -0.5704 -1.5656
  387TIP3   OH222651   5.292   4.970   2.224  0.7051 -0.4831  0.0771
  387TIP3    H122652   5.344   4.907   2.174 -0.4021 -0.6297 -0.9438
  387TIP3    H222653   5.325   5.055   2.198 -1.2429 -0.4379 -2.6567
  388TIP3   OH222654   3.513   3.148  10.648 -0.4115 -0.4656 -0.2644
  388TIP3    H122655   3.579   3.109  10.591  3.4341  1.8115  2.2694
  388TIP3    H222656   3.483   3.075  10.703 -0.2638 -1.5719 -1.5825
  389TIP3   OH222657   4.707   5.374   4.288  0.3203  0.3840  0.3088
  389TIP3    H122658   4.710   5.469   4.298  0.7193  0.7401 -2.4583
  389TIP3    H222659   4.625   5.349   4.332  0.2417  1.9549  1.1534
  390TIP3   OH222660   3.634   1.273  14.001 -0.9484  0.2297  0.4790
  390TIP3    H122661   3.647   1.298  13.909 -2.3759 -2.2528 -0.5184
  390TIP3    H222662   3.721   1.247  14.031 -0.4936  0.8952 -0.2224
  391TIP3   OH222663   0.468   4.482   0.424  0.5997  0.3803  0.0327
  391TIP3    H122664   0.538   4.531   0.379  0.5376 -0.8491 -1.4812
  391TIP3    H222665   0.448   4.535   0.501  2.3600  1.3861 -0.1377
  392TIP3   OH222666   1.867   3.755   1.126  0.3979  0.3748 -0.1675
  392TIP3    H122667   1.857   3.725   1.217  1.9686 -0.4146 -0.2263
  392TIP3    H222668   1.777   3.774   1.097 -0.2549 -0.5509  1.1454
  393TIP3   OH222669   4.808   1.580   3.582  0.6604  0.2470  0.6395
  393TIP3    H122670   4.817   1.670   3.551 -1.2176  0.8338  1.6448
  393TIP3    H222671   4.714   1.560   3.574  0.9309 -1.3931  1.0471
  394TIP3   OH222672   6.168   5.916  12.330 -0.1940 -0.4547 -0.1016
  394TIP3    H122673   6.185   5.998  12.285 -0.7406 -0.3364 -0.0994
  394TIP3    H222674   6.091   5.933  12.384  0.7525 -0.4345  1.3007
  395TIP3   OH222675   0.905   2.252  12.241  0.1171 -0.1729  0.2510
  395TIP3    H122676   0.963   2.177  12.254  1.7129  0.7034 -1.4282
  395TIP3    H222677   0.949   2.306  12.176 -2.2630  0.9085 -0.5789
  396TIP3   OH222678   5.630   0.245  13.310  0.3751  0.2859 -0.3562
  396TIP3    H122679   5.684   0.292  13.375  0.3350  0.0983 -0.1859
  396TIP3    H222680   5.579   0.183  13.362 -0.1371  0.5834 -0.4996
  397TIP3   OH222681   2.241   5.449  10.370 -0.4390  0.2800  0.0790
  397TIP3    H122682   2.145   5.457  10.368 -0.5091 -0.5596 -1.1798
  397TIP3    H222683   2.265   5.424  10.281  0.9502  0.2973  0.4187
  398TIP3   OH222684   1.597   3.209  13.933  0.2635 -0.4620  0.3375
  398TIP3    H122685   1.669   3.250  13.885  1.6737 -0.4166  2.3577
  398TIP3    H222686   1.522   3.267  13.918  1.6721  1.8127  1.3975
  399TIP3   OH222687   3.311   0.796  13.169 -0.7296  0.3685  0.9421
  399TIP3    H122688   3.305   0.855  13.094  2.6177  1.0419  1.0648
  399TIP3    H222689   3.306   0.853  13.245  3.4996  0.9124  1.0643
  400TIP3   OH222690   0.535   5.045   1.985 -0.0957 -0.1622 -0.1232
  400TIP3    H122691   0.617   5.064   1.940 -0.9787 -0.8246 -2.1449
  400TIP3    H222692   0.473   5.109   1.949 -0.7456 -0.4469  0.4675
  401TIP3   OH222693   3.483   0.479   4.088  0.2216  0.1547  0.1961
  401TIP3    H122694   3.563   0.446   4.046  0.9414  1.0343  0.8476
  401TIP3    H222695   3.412   0.443   4.034  1.0798  0.3531 -1.1283
  402TIP3   OH222696   0.197   3.055  13.592 -0.2200 -0.0945  0.2115
  402TIP3    H122697   0.163   3.041  13.680  0.1625 -0.3933  0.3110
  402TIP3    H222698   0.206   3.150  13.585 -0.9068 -0.0189  0.2439
  403TIP3   OH222699   2.101   1.157   1.285 -0.6032 -0.0053 -0.3699
  403TIP3    H122700   2.052   1.186   1.363 -0.9665  0.6493 -0.8353
  403TIP3    H222701   2.033   1.141   1.219 -0.2415  0.1296 -0.7755
  404TIP3   OH222702   0.674   4.156   0.263  0.0153 -0.1687  0.4196
  404TIP3    H122703   0.740   4.167   0.331  0.0583  0.3600  0.2989
  404TIP3    H222704   0.724   4.143   0.183 -0.0285  0.0214  0.3615
  405TIP3   OH222705   3.013   0.321   4.998  0.1848  0.5700 -0.4685
  405TIP3    H122706   3.083   0.379   4.968  1.0544 -0.1049  0.1851
  405TIP3    H222707   3.052   0.234   4.999 -0.0231  0.4332  1.7719
  406TIP3   OH222708   6.202   4.805   5.205 -0.2292  0.3844 -0.0327
  406TIP3    H122709   6.149   4.753   5.265  1.8449 -2.1629 -0.1806
  406TIP3    H222710   6.149   4.813   5.126 -0.9186 -0.9572  0.2591
  407TIP3   OH222711   2.050   1.766  12.156 -0.5983  0.2255  0.1648
  407TIP3    H122712   1.979   1.741  12.097 -0.5844 -0.7099  0.5277
  407TIP3    H222713   2.021   1.848  12.196 -0.6350  0.8413 -1.0875
  408TIP3   OH222714   3.048   0.697   5.595  0.8894 -0.4372  0.2241
  408TIP3    H122715   3.070   0.788   5.578 -2.2733  0.5250  0.5607
  408TIP3    H222716   3.090   0.677   5.678  0.4337  1.2442  0.9041
  409TIP3   OH222717   0.133   5.346  12.704  0.2494  0.2415  0.0147
  409TIP3    H122718   0.084   5.294  12.640 -0.0441  0.3034  0.1861
  409TIP3    H222719   0.097   5.319  12.788 -0.2987  1.1264  0.0741
  410TIP3   OH222720   2.281   1.378  14.003  0.0777 -0.2825 -0.0355
  410TIP3    H122721   2.364   1.420  13.981  0.0717 -0.4129 -0.3115
  410TIP3    H222722   2.262   1.409  14.092  1.5285 -1.9769  0.9392
  411TIP3   OH222723   2.019   6.657  12.774 -0.2782  0.5949 -0.5779
  411TIP3    H122724   2.012   6.749  12.800 -1.4199  0.0040  1.4644
  411TIP3    H222725   1.977   6.609  12.845  0.0806 -1.5113 -1.7019
  412TIP3   OH222726   0.205   4.387   0.641  0.2981  0.2441  0.4719
  412TIP3    H122727   0.117   4.424   0.646  0.0968 -0.1179 -0.2686
  412TIP3    H222728   0.241   4.398   0.729 -0.9408 -0.6923  1.1196
  413TIP3   OH222729   1.827   0.422   1.801 -0.0420  0.4335 -0.0554
  413TIP3    H122730   1.733   0.404   1.802 -0.2670  1.4994  0.6469
  413TIP3    H222731   1.862   0.370   1.873 -0.6282  2.3502  1.7322
  414TIP3   OH222732   3.708   3.426  11.369  0.5474 -0.0155  0.2439
  414TIP3    H122733   3.694   3.482  11.445 -0.7624 -0.8333  0.6334
  414TIP3    H222734   3.687   3.482  11.294  0.8429  0.4891  0.5348
  415TIP3   OH222735   6.091   3.991   5.544 -0.2490 -0.3448 -0.4291
  415TIP3    H122736   6.051   3.937   5.476  0.0040 -0.6356 -0.3501
  415TIP3    H222737   6.080   3.941   5.624  0.3820 -0.4950 -0.4241
  416TIP3   OH222738   2.227   4.642   2.890  0.2073  0.2500 -0.5695
  416TIP3    H122739   2.174   4.620   2.966 -0.3915  0.9161 -0.7824
  416TIP3    H222740   2.309   4.676   2.926  0.6027 -1.0013 -0.2391
  417TIP3   OH222741   2.160   3.025  13.164 -0.3940 -0.2011  0.4759
  417TIP3    H122742   2.256   3.015  13.170 -0.4601 -0.7784  0.7030
  417TIP3    H222743   2.147   3.105  13.113  0.2129  0.3859  1.2157
  418TIP3   OH222744   1.103   0.379  15.700  0.1845  0.1833 -0.3166
  418TIP3    H122745   1.055   0.458  15.679  1.3699  1.0317  0.0579
  418TIP3    H222746   1.164   0.368  15.627 -0.2714 -0.6429 -0.5847
  419TIP3   OH222747   0.882   2.701  14.235  0.1278 -0.0861 -0.1288
  419TIP3    H122748   0.893   2.698  14.330 -0.9845  2.7313  0.2121
  419TIP3    H222749   0.944   2.768  14.206 -0.0356 -0.4159 -1.2757
  420TIP3   OH222750   0.532   6.349  14.073 -0.1001  0.3516  0.4872
  420TIP3    H122751   0.507   6.305  14.154 -0.4049 -0.1366  0.1282
  420TIP3    H222752   0.503   6.439  14.085 -0.2994  0.2385  0.8519
  421TIP3   OH222753   1.612   1.311   1.263  0.2451  0.6741  0.3722
  421TIP3    H122754   1.594   1.405   1.267  0.0800  0.7004 -0.6767
  421TIP3    H222755   1.628   1.294   1.170 -1.8769 -0.7167  0.2080
  422TIP3   OH222756   2.952   1.630  15.187  0.6299 -0.2884 -0.1752
  422TIP3    H122757   2.944   1.723  15.166  2.7278 -0.1201 -0.4919
  422TIP3    H222758   2.889   1.587  15.131 -1.8703  1.0684  1.4200
  423TIP3   OH222759   3.728   6.191  14.642 -0.3874  0.2544 -0.5017
  423TIP3    H122760   3.739   6.111  14.692  4.0093  1.2918  0.6433
  423TIP3    H222761   3.714   6.259  14.707  0.0670  0.9297 -1.0870
  424TIP3   OH222762   6.201   3.137  15.791  0.5364 -0.0543 -0.3304
  424TIP3    H122763   6.118   3.153  15.834  0.1335 -0.8291 -0.7939
  424TIP3    H222764   6.181   3.073  15.722  1.9211 -2.0755  1.0303
  425TIP3   OH222765   5.245   0.298  15.591  0.7147  0.9288 -0.2076
  425TIP3    H122766   5.319   0.250  15.553 -0.2443 -0.8894  0.1255
  425TIP3    H222767   5.168   0.248  15.565 -0.3639  2.3490  0.1191
  426TIP3   OH222768   4.204   2.266  13.048 -0.2803 -0.2833 -0.2586
  426TIP3    H122769   4.212   2.275  12.953 -0.5432  0.3611 -0.2264
  426TIP3    H222770   4.293   2.247  13.077 -0.2260 -0.6357 -0.6496
  427TIP3   OH222771   5.102   0.850   2.319  0.1001 -0.4883  0.1259
  427TIP3    H122772   5.081   0.789   2.248 -0.4795 -0.0925 -0.0433
  427TIP3    H222773   5.022   0.899   2.333  0.3186 -0.3234  0.8256
  428TIP3   OH222774   4.208   0.668   3.858 -0.4217 -0.5431 -0.0860
  428TIP3    H122775   4.182   0.670   3.950  0.7795  0.5683  0.2514
  428TIP3    H222776   4.149   0.730   3.815  0.8773  1.1570  0.4855
  429TIP3   OH222777   6.098   6.169   2.610  0.4972  0.1235 -0.4730
  429TIP3    H122778   6.175   6.132   2.653  0.9770  1.7571  0.1662
  429TIP3    H222779   6.107   6.264   2.623 -1.3575  0.3852 -0.8244
  430TIP3   OH222780   6.158   6.629   0.454  0.0313 -0.5974  0.5424
  430TIP3    H122781   6.249   6.612   0.432  0.2414  0.5373  0.4734
  430TIP3    H222782   6.118   6.656   0.371  0.1114  0.8056  0.9366
  431TIP3   OH222783   3.740   3.484  15.518  0.1551  0.3251  0.1531
  431TIP3    H122784   3.751   3.565  15.467  0.0553  0.1556 -0.1354
  431TIP3    H222785   3.652   3.454  15.498  0.0141  0.4008  0.6360
  432TIP3   OH222786   2.803   4.285  17.150 -0.1557 -0.3664 -0.3241
  432TIP3    H122787   2.843   4.221  17.090 -0.6051  0.2089 -1.2629
  432TIP3    H222788   2.795   4.238  17.233  1.2094 -0.9288 -0.4861
  433TIP3   OH222789   3.699   4.975  16.423 -0.5065  0.8666  0.7287
  433TIP3    H122790   3.710   5.054  16.477  1.5861  0.8917  0.3411
  433TIP3    H222791   3.685   4.905  16.487 -0.5545  1.2798  1.1804
  434TIP3   OH222792   0.351   5.512  12.562  0.2800 -0.6656 -0.1128
  434TIP3    H122793   0.421   5.550  12.614 -0.2256  0.8900 -0.5261
  434TIP3    H222794   0.395   5.472  12.487  0.7052  0.7717 -0.6508
  435TIP3   OH222795   1.408   0.132   4.177  0.1474  0.0466  0.6623
  435TIP3    H122796   1.500   0.157   4.175  0.2762 -0.3293  1.3459
  435TIP3    H222797   1.409   0.037   4.164 -0.1920  0.1273  0.0238
  436TIP3   OH222798   1.698   2.144   5.406 -0.1559  0.2247 -0.0211
  436TIP3    H122799   1.767   2.117   5.466  0.2376  1.8504  0.2996
  436TIP3    H222800   1.743   2.191   5.336 -0.6945 -0.9191 -1.1951
  437TIP3   OH222801   0.996   4.274  11.416 -0.9744 -0.2279 -0.2522
  437TIP3    H122802   0.919   4.257  11.470 -0.5748 -0.3211  0.2893
  437TIP3    H222803   1.044   4.342  11.463 -0.7253 -0.1670 -0.5914
  438TIP3   OH222804   4.341   5.579  13.429 -0.0112 -0.4728  0.0714
  438TIP3    H122805   4.334   5.665  13.469 -0.1195 -0.3332 -0.2512
  438TIP3    H222806   4.266   5.573  13.370  0.2489 -0.6061 -0.2498
  439TIP3   OH222807   6.322   4.950   0.629  0.4392  0.1158  0.4442
  439TIP3    H122808   6.296   5.013   0.696  0.5843 -1.0868  1.6774
  439TIP3    H222809   6.369   5.002   0.564 -0.0383  1.3785  1.0748
  440TIP3   OH222810   4.009   0.350   1.784 -0.0420 -0.0036 -0.0401
  440TIP3    H122811   4.048   0.430   1.822  2.2275  0.2898 -2.6713
  440TIP3    H222812   4.051   0.279   1.832  1.7426  0.3691 -0.9820
  441TIP3   OH222813   6.780   0.069  13.472 -0.2262  0.1416 -0.2157
  441TIP3    H122814   6.751   0.159  13.461 -0.4505  0.2205  0.9117
  441TIP3    H222815   6.875   0.075  13.483 -0.2716  0.2756  0.1260
  442TIP3   OH222816   1.454   1.194  13.294  0.6485 -0.4021 -0.2173
  442TIP3    H122817   1.395   1.187  13.369 -0.8603  0.8825 -1.2206
  442TIP3    H222818   1.401   1.165  13.220  1.6474 -0.2911 -0.9858
  443TIP3   OH222819   4.005   2.206  15.275  0.4225 -0.0508  0.1018
  443TIP3    H122820   4.004   2.146  15.349  1.9127  2.1563  2.0973
  443TIP3    H222821   3.915   2.235  15.266  0.0190 -1.2033  0.2997
  444TIP3   OH222822   5.717   5.584   3.783 -0.1645  0.8223 -0.1018
  444TIP3    H122823   5.783   5.548   3.725 -0.4740 -0.5149  0.3419
  444TIP3    H222824   5.763   5.651   3.834  0.9653 -0.3477  0.4630
  445TIP3   OH222825   1.859   0.985  12.146  0.3926  0.1738 -0.3898
  445TIP3    H122826   1.948   0.951  12.150  0.5002  0.4131 -0.7082
  445TIP3    H222827   1.823   0.949  12.065  0.2208  0.1319 -0.2971
  446TIP3   OH222828   1.077   5.086  13.341  0.2789 -0.3878 -0.3139
  446TIP3    H122829   1.001   5.106  13.286 -0.7410 -1.5162  0.6267
  446TIP3    H222830   1.146   5.060  13.279 -1.2798 -3.0980 -1.0758
  447TIP3   OH222831   1.234   4.163  14.344  0.4037  0.1980  0.5022
  447TIP3    H122832   1.204   4.254  14.345  1.1325  0.4464  0.3769
  447TIP3    H222833   1.166   4.114  14.390 -0.4111  0.6735 -0.1790
  448TIP3   OH222834   3.396   1.184   3.531 -0.0684 -0.1060  0.1384
  448TIP3    H122835   3.339   1.109   3.548  0.3030 -0.3338  0.4038
  448TIP3    H222836   3.409   1.224   3.617  0.3119 -0.1584  0.1070
  449TIP3   OH222837   5.868   4.811   1.275  0.3228 -0.4316  1.0899
  449TIP3    H122838   5.915   4.875   1.329  1.8474  0.4851 -1.1431
  449TIP3    H222839   5.858   4.855   1.191  0.3881 -2.7165 -0.1845
  450TIP3   OH222840   0.694   0.825  13.057 -0.2537  0.5494  0.1887
  450TIP3    H122841   0.634   0.866  13.120  0.8422  0.6757  1.1888
  450TIP3    H222842   0.753   0.896  13.030  0.0648  0.2131 -0.0221
  451TIP3   OH222843   6.069   6.584  12.076  0.2373  0.0741  0.3161
  451TIP3    H122844   5.974   6.590  12.089  0.0894 -1.1686 -0.0944
  451TIP3    H222845   6.091   6.664  12.028 -0.5107  0.6280  0.8670
  452TIP3   OH222846   0.255   2.706   4.046 -0.2106 -0.4801 -0.2976
  452TIP3    H122847   0.262   2.653   4.126 -1.1955 -0.4589 -0.1868
  452TIP3    H222848   0.297   2.652   3.978 -0.9855 -1.3079 -0.1382
  453TIP3   OH222849   5.582   3.004   4.668 -0.2899  0.1239  0.5779
  453TIP3    H122850   5.654   3.046   4.715  0.0900 -1.3155  1.3223
  453TIP3    H222851   5.586   3.041   4.580 -0.0787  1.7501  1.2290
  454TIP3   OH222852   2.161   5.212   3.476 -0.2490  0.3926 -1.0291
  454TIP3    H122853   2.234   5.154   3.498 -1.0132 -0.4408 -0.6063
  454TIP3    H222854   2.100   5.156   3.428 -1.8688  0.2961  1.0141
  455TIP3   OH222855   5.014   0.299   3.114  0.4491  0.1144  0.1904
  455TIP3    H122856   4.945   0.359   3.143  0.4713  0.3047 -0.1456
  455TIP3    H222857   4.970   0.214   3.106  0.3643  0.1336  0.4369
  456TIP3   OH222858   3.514   2.671   0.016  0.2154 -0.4507 -0.0279
  456TIP3    H122859   3.423   2.669   0.046 -0.1278  0.0626 -1.0152
  456TIP3    H222860   3.558   2.607   0.072 -0.1536  1.2264  2.3501
  457TIP3   OH222861   0.514   4.485  13.514 -0.0399  0.2507 -0.2595
  457TIP3    H122862   0.585   4.533  13.556  0.3526 -1.2426  0.8638
  457TIP3    H222863   0.551   4.457  13.430  0.3382  0.3881 -0.1419
  458TIP3   OH222864   0.582   1.931  13.573  0.2832  0.4017 -0.0049
  458TIP3    H122865   0.585   1.880  13.654 -0.4376 -0.0297 -0.2301
  458TIP3    H222866   0.528   2.007  13.594 -0.8742 -0.2861 -0.3603
  459TIP3   OH222867   2.723   5.671   3.130 -0.8488 -0.0984  0.1861
  459TIP3    H122868   2.738   5.622   3.050 -2.7761  0.8638 -0.8497
  459TIP3    H222869   2.791   5.642   3.190  1.0383 -0.4148 -1.9779
  460TIP3   OH222870   5.431   1.559   4.102 -0.6249 -0.5281 -0.9404
  460TIP3    H122871   5.351   1.610   4.112  0.3028  1.2844 -2.2285
  460TIP3    H222872   5.458   1.573   4.011  1.3919 -0.7277 -0.4224
  461TIP3   OH222873   1.932   5.624  14.412  0.6283  0.0073  0.4666
  461TIP3    H122874   1.914   5.580  14.329 -2.0147  1.1251  0.3454
  461TIP3    H222875   1.906   5.560  14.479  2.6579 -0.8529  0.4977
  462TIP3   OH222876   6.727   1.541  13.212  0.6302  0.0199 -0.0324
  462TIP3    H122877   6.737   1.469  13.149  1.6736 -1.1546  1.3972
  462TIP3    H222878   6.643   1.523  13.255  0.7930 -0.2445  0.1805
  463TIP3   OH222879   1.145   6.795   5.765  0.3291  0.6601 -0.2955
  463TIP3    H122880   1.115   6.795   5.856 -0.2797  0.7119 -0.4912
  463TIP3    H222881   1.087   6.733   5.721  2.2038 -1.3335 -0.1552
  464TIP3   OH222882   5.171   1.792   2.425 -0.2552  0.3211  0.0818
  464TIP3    H122883   5.189   1.880   2.393 -2.4379  0.7273 -0.2358
  464TIP3    H222884   5.147   1.742   2.347  0.8119 -0.5413  0.2785
  465TIP3   OH222885   2.839   6.758  12.627  0.4294 -0.7023  0.1702
  465TIP3    H122886   2.917   6.770  12.573  0.6107  0.5417  0.6554
  465TIP3    H222887   2.851   6.820  12.700 -0.7541 -0.8818  0.5410
  466TIP3   OH222888   5.268   6.677  13.961 -0.3273  0.7948 -0.1438
  466TIP3    H122889   5.324   6.604  13.989 -0.0900  0.6893 -0.8677
  466TIP3    H222890   5.252   6.660  13.868  0.8324  2.3743 -0.6802
  467TIP3   OH222891   0.185   0.284  16.145 -0.6621 -0.3704  0.4891
  467TIP3    H122892   0.129   0.216  16.183 -1.9421  0.0547 -0.5503
  467TIP3    H222893   0.215   0.247  16.062  0.3043 -0.4391  0.8563
  468TIP3   OH222894   4.545   4.086   6.007 -0.1965  0.4326  0.1483
  468TIP3    H122895   4.516   4.155   6.067 -0.7735 -0.4499  0.9135
  468TIP3    H222896   4.640   4.098   6.001 -0.3110  1.4110  0.1033
  469TIP3   OH222897   6.161   3.213   0.551 -0.3575 -0.0618  0.8960
  469TIP3    H122898   6.090   3.250   0.500 -1.5388 -0.1275  2.4045
  469TIP3    H222899   6.150   3.250   0.639  1.3957 -0.1881  1.2173
  470TIP3   OH222900   1.103   0.270   2.589 -0.2698  0.0279  0.3682
  470TIP3    H122901   1.079   0.287   2.498 -0.7697 -2.4522 -0.0359
  470TIP3    H222902   1.179   0.212   2.583  2.7070  3.3516  1.6321
  471TIP3   OH222903   4.229   4.606  16.651 -0.1985 -0.0929  0.4737
  471TIP3    H122904   4.301   4.544  16.646  0.2865  0.5551 -1.5880
  471TIP3    H222905   4.264   4.680  16.701 -0.0892 -0.5935  1.1403
  472TIP3   OH222906   2.410   3.176  16.107  0.1877  0.4841  0.1779
  472TIP3    H122907   2.387   3.084  16.118  0.7397  0.1405 -1.3250
  472TIP3    H222908   2.467   3.196  16.181 -0.3561 -0.2247  0.8061
  473TIP3   OH222909   2.048   4.929  11.736  0.0779 -0.6369 -0.0481
  473TIP3    H122910   2.101   4.861  11.778  1.3349  1.8177  2.6651
  473TIP3    H222911   2.103   4.960  11.663  0.7339 -0.6389  0.4349
  474TIP3   OH222912   1.853   1.021   2.048  0.0103 -0.4517 -0.1374
  474TIP3    H122913   1.782   1.015   2.112  1.9523  0.3550  2.2620
  474TIP3    H222914   1.858   0.933   2.010 -3.2762 -0.1125 -1.7056
  475TIP3   OH222915   4.821   2.626  12.600  0.3475  0.4202  0.0189
  475TIP3    H122916   4.774   2.625  12.684 -1.8028 -3.1852 -1.0192
  475TIP3    H222917   4.766   2.679  12.543  1.0226  1.5977  0.4214
  476TIP3   OH222918   1.642   2.430   6.471  0.4666 -0.2088  0.3271
  476TIP3    H122919   1.570   2.370   6.450  0.6995 -0.5888  0.5962
  476TIP3    H222920   1.722   2.379   6.453  0.6700 -0.2502  1.2813
  477TIP3   OH222921   0.884   3.820  15.853 -0.0950 -0.3697  0.0793
  477TIP3    H122922   0.870   3.761  15.779  0.9092  0.6660 -0.9831
  477TIP3    H222923   0.976   3.847  15.844 -0.8294  2.2711 -0.1971
  478TIP3   OH222924   3.845   5.211   4.762  0.0864  0.1044  0.3884
  478TIP3    H122925   3.793   5.150   4.710  3.0942 -0.7631 -1.9276
  478TIP3    H222926   3.822   5.298   4.729  3.0901 -0.4657 -4.0292
  479TIP3   OH222927   5.118   2.431   4.743 -0.2143 -0.2054  0.5429
  479TIP3    H122928   5.099   2.352   4.693 -0.1090 -0.2099  0.5100
  479TIP3    H222929   5.039   2.446   4.795 -0.1878 -0.3977  0.6393
  480TIP3   OH222930   1.396   1.351   5.810 -0.0461 -0.1640 -0.3037
  480TIP3    H122931   1.390   1.256   5.820 -2.3899  0.1104  1.8473
  480TIP3    H222932   1.308   1.378   5.782  0.5239  1.4094 -0.7071
  481TIP3   OH222933   1.896   3.517  13.420  0.3043  0.4653 -0.3500
  481TIP3    H122934   1.897   3.609  13.448  1.8894  0.7471 -1.1933
  481TIP3    H222935   1.868   3.468  13.498  0.4105  1.5756  0.4063
  482TIP3   OH222936   3.230   3.824  15.820 -0.4522  0.1830  0.7313
  482TIP3    H122937   3.143   3.789  15.840  0.0790 -0.3183  2.2692
  482TIP3    H222938   3.260   3.772  15.746 -1.2316 -0.0058  0.5397
  483TIP3   OH222939   6.494   4.975   2.468 -0.0661 -0.5410 -0.1987
  483TIP3    H122940   6.494   4.922   2.548 -0.5710 -0.5318 -0.1876
  483TIP3    H222941   6.542   5.054   2.492 -2.1540  0.5132  0.8390
  484TIP3   OH222942   0.030   0.138   6.846 -0.7262 -0.4286  0.4354
  484TIP3    H122943  -0.023   0.218   6.841 -0.6654 -0.4379 -0.5240
  484TIP3    H222944   0.116   0.165   6.814 -0.4489 -0.6684  0.9729
  485TIP3   OH222945   0.506   0.246  16.134  0.7717  0.1810  0.4595
  485TIP3    H122946   0.504   0.339  16.113  0.9886 -0.1416 -1.0966
  485TIP3    H222947   0.507   0.202  16.049 -0.6350 -1.2799  1.1539
  486TIP3   OH222948   5.980   6.693  15.760  0.3632 -0.0135 -0.5627
  486TIP3    H122949   5.984   6.741  15.677  0.8221 -1.0698 -1.1696
  486TIP3    H222950   5.996   6.602  15.736  2.1859 -0.1321  0.8871
  487TIP3   OH222951   6.825   3.446   2.046 -0.5198  0.3299 -0.2115
  487TIP3    H122952   6.749   3.433   1.990 -0.6218  0.3164 -0.0706
  487TIP3    H222953   6.823   3.371   2.107  1.3253 -1.4393 -2.1452
  488TIP3   OH222954   6.812   5.593  15.438 -0.0405  0.2262  0.1812
  488TIP3    H122955   6.739   5.592  15.500 -0.2735  0.6917 -0.0764
  488TIP3    H222956   6.814   5.504  15.402 -1.6929  0.6920 -1.1979
  489TIP3   OH222957   1.458   0.455  12.027  0.0821  0.6672  0.0855
  489TIP3    H122958   1.473   0.528  11.967  2.6006 -0.8860 -1.3127
  489TIP3    H222959   1.413   0.389  11.973  0.5533  0.0382  0.4525
  490TIP3   OH222960   5.644   6.013  14.274 -0.3527  0.2238 -0.0935
  490TIP3    H122961   5.548   6.014  14.282 -0.3392 -0.6567  0.2478
  490TIP3    H222962   5.674   6.064  14.349 -0.4603 -2.4719  1.8993
  491TIP3   OH222963   2.778   3.044   4.726 -0.2565 -0.1142  0.7844
  491TIP3    H122964   2.750   2.978   4.662 -1.8764  0.1937  1.1188
  491TIP3    H222965   2.696   3.074   4.765  0.6097  0.6884  2.0297
  492TIP3   OH222966   5.560   5.163   1.618 -0.5298 -0.0395  0.3633
  492TIP3    H122967   5.491   5.180   1.553  0.9968  0.9708 -1.0664
  492TIP3    H222968   5.572   5.068   1.615 -1.0112 -0.0901 -0.2840
  493TIP3   OH222969   6.188   4.161  16.161 -0.3929  0.0543  0.0975
  493TIP3    H122970   6.153   4.072  16.155  0.0271 -0.0885 -0.3020
  493TIP3    H222971   6.280   4.153  16.135 -0.3598  0.6096  0.0165
  494TIP3   OH222972   4.733   4.081  11.502  0.0039 -0.5429  0.2956
  494TIP3    H122973   4.645   4.066  11.536 -0.0682 -0.9545 -0.0724
  494TIP3    H222974   4.722   4.096  11.408  0.2244  0.4198  0.4137
  495TIP3   OH222975   1.322   4.782  16.185  0.1966 -0.0637  0.4964
  495TIP3    H122976   1.317   4.696  16.228 -0.9595 -0.9363 -1.2419
  495TIP3    H222977   1.350   4.762  16.095  2.1246  1.6482  0.6548
  496TIP3   OH222978   2.187   2.073  16.588  0.4852  0.4365  0.3171
  496TIP3    H122979   2.258   2.034  16.639 -1.1428  0.1315  2.4377
  496TIP3    H222980   2.149   1.999  16.540  0.7928  0.3867  0.1445
  497TIP3   OH222981   6.116   4.109  11.661 -0.3683 -0.5873  0.1902
  497TIP3    H122982   6.078   4.092  11.748 -0.5942 -0.5998  0.0896
  497TIP3    H222983   6.079   4.193  11.635 -1.3894 -1.2248 -0.4888
  498TIP3   OH222984   5.402   1.298  16.815 -0.3039 -0.6419  0.4917
  498TIP3    H122985   5.313   1.265  16.804 -0.6487  0.5442 -0.4453
  498TIP3    H222986   5.422   1.342  16.733  0.7436  0.0494  1.0958
  499TIP3   OH222987   3.068   3.214   3.027 -0.8032 -0.0378  0.1674
  499TIP3    H122988   3.083   3.218   2.933 -0.5549 -2.3779  0.0501
  499TIP3    H222989   3.023   3.296   3.048 -0.4246  0.7472 -1.8819
  500TIP3   OH222990   2.197   0.230   2.200 -0.2360  0.0802 -0.3537
  500TIP3    H122991   2.173   0.175   2.274  0.7020 -0.6940 -0.6135
  500TIP3    H222992   2.196   0.319   2.236 -2.8745  0.0661 -0.2133
  501TIP3   OH222993   5.611   4.769  16.220 -0.0996 -0.3276  0.0767
  501TIP3    H122994   5.650   4.857  16.220  2.3039 -1.3038  1.4038
  501TIP3    H222995   5.680   4.713  16.184 -1.3118 -1.7887 -0.0150
  502TIP3   OH222996   2.546   5.040   0.148 -0.1511 -0.0906 -0.0413
  502TIP3    H122997   2.609   5.092   0.198 -0.0923 -0.9999  0.8775
  502TIP3    H222998   2.485   5.104   0.112  0.6716  0.7115 -0.0453
  503TIP3   OH222999   6.206   1.558   3.035 -0.1078  0.2180  0.0620
  503TIP3    H123000   6.280   1.516   3.078  1.2445 -0.6081 -2.7908
  503TIP3    H223001   6.232   1.650   3.027  0.7799 -0.1023 -1.0881
  504TIP3   OH223002   6.134   4.827  15.328 -0.2247  0.2522  0.0921
  504TIP3    H123003   6.086   4.749  15.302  1.0334 -0.6761  0.4204
  504TIP3    H223004   6.090   4.858  15.407 -0.7768 -0.0802 -0.0826
  505TIP3   OH223005   4.453   3.167  11.154  0.2334  0.2049 -0.2149
  505TIP3    H123006   4.435   3.103  11.223  1.5413  0.6480  0.5797
  505TIP3    H223007   4.417   3.249  11.188 -0.5372  0.1103 -0.7816
  506TIP3   OH223008   1.009   2.662   1.057  0.7842 -0.1030  0.2038
  506TIP3    H123009   1.028   2.672   1.150 -0.0840  0.5818  0.3184
  506TIP3    H223010   0.924   2.616   1.055 -1.1113  3.1458 -0.1426
  507TIP3   OH223011   5.673   5.073  10.928 -0.3388  0.4309 -0.0801
  507TIP3    H123012   5.732   5.098  10.856 -1.5302  0.4959 -1.0637
  507TIP3    H223013   5.652   4.981  10.911 -2.5646  1.0700 -1.3051
  508TIP3   OH223014   0.415   0.571   0.299 -0.2739 -0.5921  0.3025
  508TIP3    H123015   0.383   0.481   0.311  0.0347 -1.0536 -1.9308
  508TIP3    H223016   0.385   0.596   0.212 -2.8214  2.6066  1.8730
  509TIP3   OH223017   4.147   6.674  13.369 -0.6958  0.1710 -0.3887
  509TIP3    H123018   4.054   6.677  13.394 -0.7417 -0.1941 -0.5139
  509TIP3    H223019   4.194   6.689  13.451 -0.8660  0.5431 -0.3553
  510TIP3   OH223020   3.469   6.084  13.823  0.4782 -0.0839  0.2194
  510TIP3    H123021   3.396   6.077  13.761  0.4653  0.3761  0.1730
  510TIP3    H223022   3.525   6.009  13.804 -0.2545 -0.7525  0.6204
  511TIP3   OH223023   0.260   5.917   4.836  0.1954  0.1455 -0.7333
  511TIP3    H123024   0.322   5.990   4.836 -0.3857  0.7175 -3.0013
  511TIP3    H223025   0.308   5.845   4.796 -0.1026  0.1072 -1.0223
  512TIP3   OH223026   0.337   5.398   6.042 -0.3372  0.3175  0.3520
  512TIP3    H123027   0.277   5.434   5.976  0.0998  1.9826  0.8100
  512TIP3    H223028   0.285   5.394   6.122 -0.4493 -0.3280  0.2530
  513TIP3   OH223029   2.216   2.933  12.330 -0.2779  0.4825 -0.3282
  513TIP3    H123030   2.229   2.878  12.408 -1.4761  0.2132 -0.2991
  513TIP3    H223031   2.265   3.013  12.349  2.9693 -1.1725 -1.0905
  514TIP3   OH223032   1.084   3.922   5.960  0.6175  0.7757  0.2599
  514TIP3    H123033   1.070   3.968   6.043  2.1344  2.0226 -0.1397
  514TIP3    H223034   1.151   3.973   5.915  0.5019 -0.4130 -1.3368
  515TIP3   OH223035   3.476   3.278  15.952 -0.0400  0.7006 -0.1462
  515TIP3    H123036   3.562   3.276  15.994 -0.1774 -0.5908  0.1267
  515TIP3    H223037   3.452   3.370  15.949  2.3016  1.3636 -2.1767
  516TIP3   OH223038   4.636   4.601  15.159  1.0190  0.8485  0.0512
  516TIP3    H123039   4.706   4.539  15.182  0.0936 -0.5611 -0.7484
  516TIP3    H223040   4.567   4.546  15.123  0.7579  2.4887 -2.1738
  517TIP3   OH223041   0.040   3.848  13.138 -0.5167 -0.4396  0.0009
  517TIP3    H123042  -0.025   3.844  13.208 -1.2038  0.5404 -0.5595
  517TIP3    H223043   0.059   3.941  13.128 -0.0095 -0.6163 -0.7467
  518TIP3   OH223044   0.061   5.848  14.019 -0.1516 -0.3210  0.3167
  518TIP3    H123045   0.057   5.776  13.956 -2.3968  0.7262 -0.8777
  518TIP3    H223046   0.040   5.925  13.967  1.9393  1.2188  1.6111
  519TIP3   OH223047   5.997   4.390   5.317 -0.6660  0.4229  0.0184
  519TIP3    H123048   5.962   4.312   5.358 -1.6088  0.5097 -0.5824
  519TIP3    H223049   5.919   4.443   5.296 -0.1523  0.8267 -0.9341
  520TIP3   OH223050   2.564   3.956   4.881  0.2070  0.4905  0.4015
  520TIP3    H123051   2.566   3.906   4.962  1.8298  0.9161  0.6641
  520TIP3    H223052   2.490   3.920   4.832  0.6333 -1.3861  1.0511
  521TIP3   OH223053   5.678   2.766   0.053  0.5171 -0.2312 -0.2325
  521TIP3    H123054   5.754   2.766  -0.005  1.3107 -0.0639  0.7797
  521TIP3    H223055   5.627   2.690   0.024  0.0798  0.7264 -2.1467
  522TIP3   OH223056   0.538   0.607   5.092  0.2186  0.3860 -0.6880
  522TIP3    H123057   0.532   0.512   5.082 -0.3923  0.0745  1.8653
  522TIP3    H223058   0.631   0.623   5.107  0.3688  0.2471 -1.4232
  523TIP3   OH223059   3.327   6.079  10.795 -0.2697  0.0218 -0.4425
  523TIP3    H123060   3.367   6.164  10.814  1.5463 -0.5883 -1.2686
  523TIP3    H223061   3.268   6.097  10.721  0.7872  0.4353 -1.2189
  524TIP3   OH223062   6.290   6.570  11.247 -0.5995  0.9202 -0.2125
  524TIP3    H123063   6.265   6.525  11.328 -1.7311 -0.8853 -1.4883
  524TIP3    H223064   6.378   6.539  11.229  0.0948  2.1723  0.8470
  525TIP3   OH223065   3.770   5.788  16.434 -0.1186 -0.1989  0.1102
  525TIP3    H123066   3.706   5.846  16.394  0.1743  0.0978  0.0645
  525TIP3    H223067   3.780   5.716  16.371 -0.4662 -0.2906  0.1593
  526TIP3   OH223068   1.851   4.320  12.150 -0.5287  0.1105 -0.3672
  526TIP3    H123069   1.878   4.262  12.079 -3.0332 -1.0674 -0.4949
  526TIP3    H223070   1.912   4.393  12.147  0.6644 -0.8872 -2.4237
  527TIP3   OH223071   6.383   5.574  16.821 -0.0347 -0.2685 -0.2070
  527TIP3    H123072   6.340   5.530  16.748  0.7817 -2.5467  0.5765
  527TIP3    H223073   6.471   5.594  16.789 -0.0919 -0.0821 -0.2504
  528TIP3   OH223074   0.302   2.323   1.391  0.4616 -0.1280 -0.3198
  528TIP3    H123075   0.337   2.356   1.308  0.2055 -0.2780 -0.4887
  528TIP3    H223076   0.261   2.400   1.431  0.5126 -0.0742 -0.3700
  529TIP3   OH223077   2.572   4.593   4.266  0.2242  0.4782 -0.4738
  529TIP3    H123078   2.572   4.542   4.185  0.5689 -0.3763  0.0541
  529TIP3    H223079   2.652   4.645   4.262  0.1153  0.6254 -0.7901
  530TIP3   OH223080   0.300   0.085   2.739 -0.3053  0.0660 -0.0034
  530TIP3    H123081   0.394   0.100   2.727 -0.0042  0.7850  2.5422
  530TIP3    H223082   0.264   0.172   2.757 -1.5243 -0.1672 -1.1885
  531TIP3   OH223083   4.326   6.101   3.888 -0.5505  0.8261  0.2381
  531TIP3    H123084   4.401   6.102   3.948 -0.5205  0.2168  0.2244
  531TIP3    H223085   4.270   6.031   3.922 -1.2893  1.5093  0.4554
  532TIP3   OH223086   2.688   2.674   2.390 -0.1550  0.1646 -0.3007
  532TIP3    H123087   2.746   2.739   2.430 -0.8557 -0.3025  1.5993
  532TIP3    H223088   2.626   2.726   2.339  0.2260  0.8821 -0.0517
  533TIP3   OH223089   5.280   3.244  15.500 -0.6316 -0.0200  0.3629
  533TIP3    H123090   5.232   3.302  15.442 -1.7981 -0.6412  0.6718
  533TIP3    H223091   5.213   3.205  15.557 -0.0647 -2.3739 -0.4449
  534TIP3   OH223092   3.848   4.516   0.233  0.5317  0.9692  0.2299
  534TIP3    H123093   3.874   4.555   0.150 -1.7377  0.3714 -0.8315
  534TIP3    H223094   3.842   4.422   0.215  0.9411  0.7046  1.3547
  535TIP3   OH223095   1.138   1.357   5.708  0.3103  0.5268 -0.1172
  535TIP3    H123096   1.156   1.266   5.684  1.5670  0.5653  0.6206
  535TIP3    H223097   1.083   1.390   5.637 -1.1140 -1.1273  0.1657
  536TIP3   OH223098   3.824   4.546  12.429 -0.2409  0.3261  0.1194
  536TIP3    H123099   3.910   4.565  12.392 -0.1138 -0.5497 -0.0625
  536TIP3    H223100   3.796   4.466  12.385 -0.6013 -0.0863  1.0529
  537TIP3   OH223101   6.009   0.469  15.674  0.3025  0.2009 -0.3576
  537TIP3    H123102   6.039   0.379  15.682  1.4523  0.4966 -1.1004
  537TIP3    H223103   6.028   0.508  15.759 -0.7217 -0.3746  0.1647
  538TIP3   OH223104   0.801   4.949  11.907  0.4836  0.5760  0.3793
  538TIP3    H123105   0.767   5.036  11.890 -0.8082  0.0740  0.2651
  538TIP3    H223106   0.844   4.924  11.825 -0.6739  0.4403 -0.2151
  539TIP3   OH223107   1.178   4.878   5.573 -0.3173  0.4619 -0.3040
  539TIP3    H123108   1.262   4.838   5.550  0.7406  1.1458  1.9980
  539TIP3    H223109   1.118   4.851   5.504  1.2385 -1.9696 -0.8320
  540TIP3   OH223110   0.578   1.306   0.277  0.2506  0.1282 -0.2996
  540TIP3    H123111   0.631   1.279   0.202 -0.0465  1.5639 -1.0660
  540TIP3    H223112   0.618   1.388   0.306 -0.4495  0.2765  0.2804
  541TIP3   OH223113   0.397   0.691  13.563  0.1505  0.7422  0.0153
  541TIP3    H123114   0.449   0.769  13.544  0.3531  0.4746 -0.5249
  541TIP3    H223115   0.433   0.623  13.507  0.1985  0.1598  0.7369
  542TIP3   OH223116   1.496   4.765  13.534 -0.2798 -0.6830  0.2306
  542TIP3    H123117   1.520   4.858  13.540  0.8648 -0.8821 -0.8669
  542TIP3    H223118   1.428   4.763  13.467  0.2093 -0.7111 -0.2727
  543TIP3   OH223119   4.461   4.020   1.044  0.2297  0.2684  0.0587
  543TIP3    H123120   4.479   3.982   0.958  0.8128  0.0545  0.2679
  543TIP3    H223121   4.451   3.944   1.102  1.1758  0.4127  0.4335
  544TIP3   OH223122   6.096   3.393  13.596 -0.0166  0.6464  0.1765
  544TIP3    H123123   6.020   3.415  13.650  0.8263  1.5532  1.0091
  544TIP3    H223124   6.154   3.345  13.654  1.1360  2.0788  0.2577
  545TIP3   OH223125   1.198   0.078   4.912  0.3872 -0.4547  0.7018
  545TIP3    H123126   1.158   0.053   4.995  0.8439 -2.0870  0.4675
  545TIP3    H223127   1.153   0.025   4.847 -0.2519  1.1095 -0.1758
  546TIP3   OH223128   2.050   5.135   5.207  0.2698  0.3745  0.0924
  546TIP3    H123129   2.113   5.065   5.188 -0.7396 -0.8727  1.1034
  546TIP3    H223130   2.096   5.191   5.269  1.8729  1.8847 -2.3028
  547TIP3   OH223131   3.308   5.131  16.974  0.3376 -0.3636  0.1391
  547TIP3    H123132   3.239   5.098  17.031 -0.5213 -0.6189 -1.0031
  547TIP3    H223133   3.344   5.054  16.931  1.0136 -0.1816  0.3576
  548TIP3   OH223134   3.295   5.567   3.753  0.3734  0.1997 -0.1045
  548TIP3    H123135   3.378   5.576   3.800 -0.3645  0.0437  1.3046
  548TIP3    H223136   3.240   5.636   3.790 -0.4543 -0.3637 -0.2690
  549TIP3   OH223137   0.543   4.426   1.179  0.2959 -0.0071 -0.0038
  549TIP3    H123138   0.518   4.410   1.270 -0.4157  0.2369 -0.1556
  549TIP3    H223139   0.637   4.448   1.184  0.2488  0.0688  0.6745
  550TIP3   OH223140   6.717   4.241   3.961 -0.8169  0.7043 -0.1238
  550TIP3    H123141   6.655   4.208   3.896 -0.1320  1.1725 -1.0430
  550TIP3    H223142   6.664   4.258   4.039 -1.7563  0.6703 -0.7450
  551TIP3   OH223143   6.399   1.574  10.823 -0.5914  0.3126  0.5435
  551TIP3    H123144   6.336   1.646  10.829 -0.0823  1.5469 -4.2303
  551TIP3    H223145   6.347   1.498  10.799 -0.5870  1.0479 -2.1453
  552TIP3   OH223146   0.839   0.548   4.229  0.3007  0.1419  0.0746
  552TIP3    H123147   0.814   0.621   4.172  1.0580  0.8419  0.6099
  552TIP3    H223148   0.813   0.576   4.317 -0.4612 -0.7400  0.1421
  553TIP3   OH223149   3.136   0.169  12.222  0.2892  0.6812 -0.5553
  553TIP3    H123150   3.231   0.166  12.231  0.2019  1.6763  1.1431
  553TIP3    H223151   3.119   0.253  12.179  0.1873  0.5514 -0.7654
  554TIP3   OH223152   4.608   2.548   5.580  0.9435  0.8773  0.4648
  554TIP3    H123153   4.581   2.635   5.609  0.1771  0.4951  0.9294
  554TIP3    H223154   4.528   2.494   5.587  1.0725  0.4416 -1.0333
  555TIP3   OH223155   1.713   6.295   5.355 -0.0493 -0.3903  0.0332
  555TIP3    H123156   1.645   6.253   5.303 -0.8124 -1.3466  1.7325
  555TIP3    H223157   1.735   6.374   5.306 -0.6988 -1.2502 -1.7271
  556TIP3   OH223158   1.742   4.967   3.014 -0.1477  0.0395  0.1190
  556TIP3    H123159   1.820   4.923   2.982  0.5778  1.8590 -0.7847
  556TIP3    H223160   1.775   5.036   3.072 -1.1442  0.2696  0.4474
  557TIP3   OH223161   4.301   2.542   2.467 -0.7028  0.3559 -0.4670
  557TIP3    H123162   4.309   2.600   2.392 -1.7855 -0.6306 -1.3908
  557TIP3    H223163   4.327   2.595   2.542 -2.1930  2.2223 -1.1928
  558TIP3   OH223164   1.034   3.013   2.216 -0.0441 -0.3936 -0.0525
  558TIP3    H123165   1.046   2.947   2.284  1.0248  0.7209  0.9081
  558TIP3    H223166   1.100   2.991   2.150 -0.6738 -1.1172 -0.4622
  559TIP3   OH223167   4.609   1.140  12.110  0.2015  0.3710 -0.1287
  559TIP3    H123168   4.698   1.128  12.077 -0.5138 -1.1284 -1.6477
  559TIP3    H223169   4.558   1.167  12.033 -0.8991 -0.0230  0.4383
  560TIP3   OH223170   5.176   1.015  17.116 -0.3491 -0.1754 -0.1848
  560TIP3    H123171   5.262   1.044  17.085 -0.4154 -1.1174 -1.3005
  560TIP3    H223172   5.150   1.081  17.181  1.7175 -0.4810  1.0371
  561TIP3   OH223173   0.546   3.682  15.177  0.5590 -0.3778 -0.0756
  561TIP3    H123174   0.504   3.645  15.099  1.4876 -2.1581  0.2206
  561TIP3    H223175   0.608   3.615  15.206  1.4589  0.9354  1.2339
  562TIP3   OH223176   2.666   5.668  14.750  0.0080 -0.3280 -0.0776
  562TIP3    H123177   2.680   5.756  14.785  0.8899  0.0895 -1.4113
  562TIP3    H223178   2.602   5.628  14.809  0.5427  0.7608  1.2709
  563TIP3   OH223179   2.956   4.679   1.818 -0.1595  0.2231 -0.1048
  563TIP3    H123180   2.946   4.639   1.905 -1.0446 -0.7074 -0.6148
  563TIP3    H223181   3.041   4.723   1.822  0.6146 -1.2576  0.6709
  564TIP3   OH223182   5.859   2.933  16.295  0.1209  0.3240  0.1638
  564TIP3    H123183   5.788   2.960  16.238  0.7516 -1.5354 -1.6000
  564TIP3    H223184   5.935   2.923  16.237  0.7405 -1.8717  1.2420
  565TIP3   OH223185   3.888   5.343  13.711 -0.0405 -0.5342  0.4815
  565TIP3    H123186   3.902   5.433  13.682  1.1930 -0.4464  1.2435
  565TIP3    H223187   3.969   5.297  13.687 -0.0389 -1.0617  1.4248
  566TIP3   OH223188   3.692   0.056  13.622  0.1747 -0.6492  0.4880
  566TIP3    H123189   3.739   0.015  13.695 -0.6474 -0.2761  1.2392
  566TIP3    H223190   3.759   0.066  13.555  1.2073 -0.0503  1.5619
  567TIP3   OH223191   1.294   2.748   0.387  0.0545  0.0239  0.4601
  567TIP3    H123192   1.267   2.673   0.334  0.0187  0.1616  0.2848
  567TIP3    H223193   1.218   2.807   0.386 -0.0208 -0.0621  0.8282
  568TIP3   OH223194   6.449   3.292   6.452  0.0118  0.0382 -0.7297
  568TIP3    H123195   6.493   3.332   6.527 -0.0065 -0.2867 -0.5423
  568TIP3    H223196   6.356   3.307   6.469  0.0682  1.7451 -1.7015
  569TIP3   OH223197   1.092   0.081   3.325 -0.6057 -0.6240  0.4840
  569TIP3    H123198   1.094  -0.007   3.364  0.8079 -0.9593 -0.2789
  569TIP3    H223199   1.184   0.107   3.321 -0.7451 -0.3249 -2.0100
  570TIP3   OH223200   3.497   3.845  12.137 -0.3510  0.5694 -0.1414
  570TIP3    H123201   3.420   3.870  12.086  0.0070 -1.6060 -1.9071
  570TIP3    H223202   3.461   3.809  12.219 -1.1323  0.8556 -0.3515
  571TIP3   OH223203   2.802   6.523  16.035  0.1160  0.0511  0.1563
  571TIP3    H123204   2.787   6.614  16.061 -1.6357 -0.2888  0.4236
  571TIP3    H223205   2.747   6.472  16.095  1.7267 -1.2683  0.5860
  572TIP3   OH223206   2.784   1.332  12.226 -0.3867  0.2113  0.8707
  572TIP3    H123207   2.691   1.313  12.234 -0.8698  1.6911 -0.7853
  572TIP3    H223208   2.790   1.427  12.227  0.5951  0.3782 -3.0130
  573TIP3   OH223209   6.459   1.312  14.993 -0.5816 -0.0780  0.2237
  573TIP3    H123210   6.383   1.299  15.049 -0.3142 -2.7626  0.0618
  573TIP3    H223211   6.534   1.304  15.052 -0.3505 -1.0781 -0.1913
  574TIP3   OH223212   4.482   3.439   0.165 -0.3035  0.2374 -0.7929
  574TIP3    H123213   4.461   3.369   0.228 -0.3626 -0.3392 -1.4382
  574TIP3    H223214   4.576   3.454   0.177 -0.1072 -0.5595 -1.2313
  575TIP3   OH223215   3.841   2.649  11.655 -0.1649  0.1674  0.3578
  575TIP3    H123216   3.812   2.578  11.712 -1.7736  1.0043  0.6301
  575TIP3    H223217   3.816   2.729  11.702  0.4256  0.9025 -0.5466
  576TIP3   OH223218   1.775   6.604   2.492  0.3500  0.1831 -0.5802
  576TIP3    H123219   1.842   6.546   2.456  0.8599  0.4157 -0.0152
  576TIP3    H223220   1.777   6.681   2.435 -1.0060 -0.7305 -1.9330
  577TIP3   OH223221   6.308   6.473  11.999  0.2429 -0.0421  0.3258
  577TIP3    H123222   6.304   6.385  11.960  0.3118 -0.3995  1.1084
  577TIP3    H223223   6.219   6.490  12.030  0.1695  0.2761 -0.0450
  578TIP3   OH223224   1.475   2.978  11.800  0.1582  0.1243  0.0102
  578TIP3    H123225   1.548   2.918  11.786 -0.5024 -1.0561  1.3267
  578TIP3    H223226   1.514   3.053  11.844  0.8602  0.2886 -0.8829
  579TIP3   OH223227   4.043   4.152   0.488 -0.1528  0.1660  0.2142
  579TIP3    H123228   4.096   4.209   0.432 -1.7924  1.3660 -0.1738
  579TIP3    H223229   4.078   4.167   0.576  0.7193  0.2474 -0.1310
  580TIP3   OH223230   4.942   3.522  11.247 -0.3292  0.2129  0.2204
  580TIP3    H123231   4.945   3.618  11.244 -0.4266  0.2270  0.5226
  580TIP3    H223232   4.854   3.502  11.279 -1.1789 -0.0348 -2.0771
  581TIP3   OH223233   6.217   2.834  11.589  0.8306  0.0511  0.0613
  581TIP3    H123234   6.275   2.888  11.536  0.0886  1.9505  1.0946
  581TIP3    H223235   6.140   2.888  11.603  0.4468 -0.8991  1.9476
  582TIP3   OH223236   2.290   5.473   3.402 -0.6994 -0.3924  0.4980
  582TIP3    H123237   2.229   5.543   3.380  0.0863 -0.0813 -0.7884
  582TIP3    H223238   2.234   5.400   3.430 -1.7207 -0.4113 -1.4581
  583TIP3   OH223239   1.436   5.549  14.256  0.7341  0.0377 -0.0767
  583TIP3    H123240   1.509   5.487  14.259  0.4497 -0.3013 -0.0480
  583TIP3    H223241   1.437   5.591  14.342  2.2616  1.6487 -0.8242
  584TIP3   OH223242   1.797   3.164   1.441  0.7407  0.4136  0.6445
  584TIP3    H123243   1.755   3.241   1.479 -1.6202 -0.8646  0.7606
  584TIP3    H223244   1.759   3.090   1.487  1.3610 -0.9549 -0.9370
  585TIP3   OH223245   3.405   4.719   4.114  0.0848  0.7800 -0.3233
  585TIP3    H123246   3.436   4.665   4.187  0.4925  1.2475 -0.1422
  585TIP3    H223247   3.382   4.802   4.154 -1.3646  0.4834 -0.4672
  586TIP3   OH223248   5.197   6.245   0.015  0.4922  0.6549  0.0964
  586TIP3    H123249   5.198   6.163   0.066 -0.4449 -0.4201 -1.5151
  586TIP3    H223250   5.275   6.292   0.044 -0.0171  0.1358  2.5316
  587TIP3   OH223251   3.674   6.535  13.126  0.3689  0.2659 -0.3775
  587TIP3    H123252   3.674   6.472  13.054  1.1939  1.0254 -1.0750
  587TIP3    H223253   3.620   6.607  13.095  1.4047  0.9696 -0.6054
  588TIP3   OH223254   3.373   3.985   6.050 -0.1762 -0.3913 -0.5067
  588TIP3    H123255   3.335   3.958   6.134  0.2118 -1.8912 -0.7844
  588TIP3    H223256   3.407   4.073   6.066 -0.9784 -0.2655  0.6224
  589TIP3   OH223257   6.635   5.443  13.872 -0.0817  0.2523 -0.5264
  589TIP3    H123258   6.596   5.369  13.918 -0.8710  0.9190 -0.1042
  589TIP3    H223259   6.664   5.406  13.789  0.4900 -0.7579  0.0945
  590TIP3   OH223260   1.257   1.298   4.306  0.0590 -0.8774 -0.3144
  590TIP3    H123261   1.326   1.311   4.242  1.2509 -0.4844  1.0039
  590TIP3    H223262   1.265   1.206   4.332  1.9780 -0.1839  1.8616
  591TIP3   OH223263   2.405   3.700  14.946  0.2886 -0.4542 -0.1757
  591TIP3    H123264   2.416   3.709  14.851  0.2682  0.1600 -0.1229
  591TIP3    H223265   2.403   3.790  14.979  1.7521 -0.6637  0.5766
  592TIP3   OH223266   5.690   0.233   6.618 -0.5441  0.4145 -0.2981
  592TIP3    H123267   5.706   0.153   6.568  0.7106 -0.0702  0.8099
  592TIP3    H223268   5.621   0.210   6.680 -0.1862  0.1706  0.0181
  593TIP3   OH223269   6.103   3.251  11.797 -0.2853 -0.2627 -0.4555
  593TIP3    H123270   6.125   3.198  11.721  0.0753 -0.3817 -0.2707
  593TIP3    H223271   6.024   3.299  11.771  0.7462  0.9314 -1.4909
  594TIP3   OH223272   1.642   1.385   6.001  0.0240 -0.2012 -0.1896
  594TIP3    H123273   1.702   1.342   6.062  0.8198 -1.1679 -1.5909
  594TIP3    H223274   1.561   1.334   6.005  0.4959 -1.0172 -0.8234
  595TIP3   OH223275   2.324   1.400  13.573 -0.2810 -0.3204 -0.5604
  595TIP3    H123276   2.289   1.376  13.488  0.2768  0.0462 -0.8975
  595TIP3    H223277   2.280   1.482  13.595 -0.0346 -0.1421 -0.7353
  596TIP3   OH223278   5.310   2.837   0.421  0.5465  0.0657  0.2110
  596TIP3    H123279   5.318   2.878   0.335 -0.7855  1.0442  0.5236
  596TIP3    H223280   5.401   2.825   0.450  1.0129 -0.2909 -1.3188
  597TIP3   OH223281   5.037   3.976   1.158 -0.4602 -0.5410  0.4128
  597TIP3    H123282   5.119   4.024   1.160 -1.1664  0.7734 -0.8334
  597TIP3    H223283   5.004   3.987   1.069 -0.1776 -4.2122 -0.3035
  598TIP3   OH223284   5.720   6.675  15.168  0.0854  0.6196  0.2408
  598TIP3    H123285   5.765   6.752  15.204  0.5911 -0.6335  2.4892
  598TIP3    H223286   5.677   6.635  15.244  1.8452 -2.6516 -0.2876
  599TIP3   OH223287   0.270   4.230  11.501  0.3595  0.6315 -0.0105
  599TIP3    H123288   0.258   4.292  11.573 -0.3944 -1.0910  1.4378
  599TIP3    H223289   0.190   4.238  11.449  0.1517  0.7093  0.3165
  600TIP3   OH223290   2.022   4.872   2.236  0.3987 -0.6403 -0.5457
  600TIP3    H123291   2.064   4.955   2.212  1.2286 -0.7007  0.6006
  600TIP3    H223292   2.095   4.815   2.261 -0.0890 -2.0089 -2.0662
  601TIP3   OH223293   2.264   1.317  13.295  0.0318  0.0226  0.3510
  601TIP3    H123294   2.179   1.280  13.318 -0.1897  0.3991  0.1453
  601TIP3    H223295   2.317   1.241  13.269 -0.0209 -0.2946  1.1367
  602TIP3   OH223296   0.903   6.360  16.420  0.3237  0.3319 -0.2954
  602TIP3    H123297   0.905   6.396  16.331  3.3800  1.7026  0.1874
  602TIP3    H223298   0.945   6.428  16.474 -0.0435 -1.1151  1.9213
  603TIP3   OH223299   3.416   3.123   5.730  0.5465 -0.2935  0.1725
  603TIP3    H123300   3.421   3.109   5.635 -0.5281 -0.8465  0.1837
  603TIP3    H223301   3.448   3.212   5.743  0.1791 -0.0118 -0.7752
  604TIP3   OH223302   2.513   4.444   1.141  0.2387 -0.5332 -0.8246
  604TIP3    H123303   2.535   4.354   1.117  0.4492 -0.9451  0.7942
  604TIP3    H223304   2.422   4.439   1.171  0.4830 -0.3662 -0.0314
  605TIP3   OH223305   4.602   3.408   0.847  0.2860 -0.7231  1.0796
  605TIP3    H123306   4.567   3.495   0.827  1.0153 -0.6227  0.1822
  605TIP3    H223307   4.524   3.353   0.857 -0.1872 -0.6238 -1.4593
  606TIP3   OH223308   4.184   5.009   1.297  0.0221  0.0196 -0.3342
  606TIP3    H123309   4.126   5.027   1.371  2.0364 -0.6908  1.5390
  606TIP3    H223310   4.250   5.078   1.302 -0.0005  0.1557 -1.7085
  607TIP3   OH223311   0.014   4.897  11.563  0.0481 -0.2060  0.3932
  607TIP3    H123312   0.059   4.957  11.503  0.1063  0.3441  0.9852
  607TIP3    H223313  -0.012   4.952  11.637 -0.4149 -0.7961  0.6705
  608TIP3   OH223314   0.235   2.064  10.992  0.0637 -0.4574 -0.0148
  608TIP3    H123315   0.324   2.076  11.026  0.3598 -1.6357 -0.3176
  608TIP3    H223316   0.188   2.018  11.061  0.4636 -2.2053 -0.8467
  609TIP3   OH223317   3.679   1.606  13.597  0.5158 -0.4723  0.2048
  609TIP3    H123318   3.741   1.581  13.529 -1.8441 -0.9296 -1.9137
  609TIP3    H223319   3.642   1.690  13.567 -1.3714 -1.2286  0.2695
  610TIP3   OH223320   2.498   4.428  15.134 -0.3831  0.5255 -0.7468
  610TIP3    H123321   2.565   4.496  15.142  0.4263 -0.3578  0.3769
  610TIP3    H223322   2.430   4.468  15.080 -0.4331  2.6069  0.7204
  611TIP3   OH223323   1.966   0.213   3.323  0.1967  0.7090 -0.1779
  611TIP3    H123324   1.978   0.245   3.233 -1.9271  0.7161 -0.5053
  611TIP3    H223325   1.993   0.121   3.320  1.6038  1.1083 -0.4244
  612TIP3   OH223326   4.116   0.697   2.433  0.0466 -0.0716  0.6091
  612TIP3    H123327   4.146   0.686   2.523 -0.1249  3.5471  1.2373
  612TIP3    H223328   4.022   0.715   2.440 -0.2015 -0.8013 -0.4337
  613TIP3   OH223329   3.211   1.977  14.411  0.4439 -0.0668  0.2086
  613TIP3    H123330   3.173   2.051  14.458  1.0584  0.0074  0.6128
  613TIP3    H223331   3.195   1.902  14.469 -1.0379 -0.4492 -0.6407
  614TIP3   OH223332   5.577   6.641   4.822  0.0306 -0.3741  0.1168
  614TIP3    H123333   5.605   6.565   4.772 -1.2941 -1.0719  0.3911
  614TIP3    H223334   5.519   6.690   4.763  1.0498  0.5571 -0.1365
  615TIP3   OH223335   2.902   0.868   5.773 -0.0614  0.1942  0.1392
  615TIP3    H123336   2.845   0.792   5.767 -1.0563  0.8243  1.1088
  615TIP3    H223337   2.980   0.836   5.817  1.3563 -1.1859 -3.0682
  616TIP3   OH223338   5.743   3.516   3.215 -0.2048  0.2256  0.7688
  616TIP3    H123339   5.681   3.536   3.145  0.1380  0.8552  0.6378
  616TIP3    H223340   5.707   3.561   3.292 -1.5716 -1.9470  1.4948
  617TIP3   OH223341   5.675   4.967   4.726  0.1868  0.2683  0.4367
  617TIP3    H123342   5.747   4.904   4.718 -0.1124  0.0936 -1.4018
  617TIP3    H223343   5.711   5.038   4.779  1.1019 -0.6492  1.0780
  618TIP3   OH223344   3.530   5.279   0.102  0.0127 -0.0231 -0.1211
  618TIP3    H123345   3.454   5.300   0.047 -0.0058  1.6867  0.4935
  618TIP3    H223346   3.505   5.197   0.147 -0.9743 -0.1138 -0.8023
  619TIP3   OH223347   4.884   5.352  12.441 -0.6666  0.6070 -0.2893
  619TIP3    H123348   4.890   5.439  12.479 -0.8953  0.1871  0.7484
  619TIP3    H223349   4.796   5.322  12.461  0.2098 -0.8569  1.6674
  620TIP3   OH223350   2.351   1.741   6.315  0.1067  0.1144  0.2141
  620TIP3    H123351   2.402   1.695   6.249 -0.6874  0.4399 -0.6519
  620TIP3    H223352   2.260   1.725   6.291 -0.2107 -0.0124  1.4164
  621TIP3   OH223353   0.246   3.480   3.171  0.2705 -0.0107  0.1908
  621TIP3    H123354   0.228   3.484   3.077  0.3206 -0.3912  0.1638
  621TIP3    H223355   0.172   3.430   3.207  1.2890 -1.6630  0.0667
  622TIP3   OH223356   3.067   6.663  16.573 -0.0541 -0.7252 -0.4300
  622TIP3    H123357   3.156   6.699  16.580  0.3665 -1.7855  0.0084
  622TIP3    H223358   3.011   6.739  16.559  1.0200 -0.1034 -1.5757
  623TIP3   OH223359   5.895   3.420  14.653 -0.4828  0.6632  0.9399
  623TIP3    H123360   5.846   3.352  14.607  1.3728  0.7575 -1.4270
  623TIP3    H223361   5.938   3.374  14.725 -0.2522 -0.4422  0.1305
  624TIP3   OH223362   6.172   5.833  13.926  0.2893 -0.0054  0.1615
  624TIP3    H123363   6.087   5.876  13.937  0.5809  0.1206  2.5785
  624TIP3    H223364   6.183   5.783  14.007  1.7729 -1.3803 -0.8546
  625TIP3   OH223365   4.112   0.108  12.420 -0.6684 -0.3495 -0.1715
  625TIP3    H123366   4.198   0.124  12.460 -1.1330  1.3132  0.2229
  625TIP3    H223367   4.050   0.122  12.491 -1.3515 -0.1370 -0.8043
  626TIP3   OH223368   2.246   4.384   5.288 -0.1430  0.3053  0.5428
  626TIP3    H123369   2.170   4.437   5.263  0.3683 -0.0560 -2.1272
  626TIP3    H223370   2.231   4.363   5.380 -2.1787  2.0341  0.6915
  627TIP3   OH223371   6.227   3.286  13.317  0.2938  0.3040 -0.3129
  627TIP3    H123372   6.264   3.374  13.319 -1.4596  1.0718  1.1535
  627TIP3    H223373   6.258   3.246  13.398 -0.7559  0.4093  0.1558
  628TIP3   OH223374   3.231   1.959  12.653  0.5572 -0.2009 -0.1737
  628TIP3    H123375   3.171   1.884  12.658  0.4759 -0.0585  3.1256
  628TIP3    H223376   3.174   2.035  12.649  0.5595 -0.1822  0.1217
  629TIP3   OH223377   5.317   0.424  12.060 -0.0808  0.2112 -0.2029
  629TIP3    H123378   5.338   0.382  11.977 -1.4634 -0.7118 -0.1168
  629TIP3    H223379   5.264   0.499  12.036  0.6592  0.7426 -0.2201
  630TIP3   OH223380   0.456   2.813   5.957 -0.1143 -0.3399 -0.0846
  630TIP3    H123381   0.436   2.897   5.999 -3.2421 -2.1651  2.6118
  630TIP3    H223382   0.380   2.797   5.901 -1.0580 -2.4971  1.6437
  631TIP3   OH223383   1.221   4.300  16.586  0.1776 -0.1060 -0.5379
  631TIP3    H123384   1.241   4.228  16.527  0.4183 -0.9875  0.5714
  631TIP3    H223385   1.149   4.348  16.545  0.2200 -0.8065 -1.4273
  632TIP3   OH223386   2.520   4.282   5.596  0.4051 -0.2146 -0.4166
  632TIP3    H123387   2.611   4.253   5.605  1.1848  1.9321 -0.9505
  632TIP3    H223388   2.499   4.323   5.679  0.1307 -0.1163 -0.5333
  633TIP3   OH223389   3.785   2.422  13.307 -0.5681 -0.1125 -0.3389
  633TIP3    H123390   3.845   2.410  13.234 -0.2246 -0.5356  0.0094
  633TIP3    H223391   3.698   2.406  13.270 -0.3861 -0.4554 -0.6221
  634TIP3   OH223392   2.745   1.628  13.815 -0.1895  0.5021  0.0615
  634TIP3    H123393   2.701   1.674  13.743 -0.0265 -1.7763 -1.6031
  634TIP3    H223394   2.757   1.539  13.783  1.8646 -0.0578  2.1161
  635TIP3   OH223395   4.376   3.026   5.131  0.5239 -0.3050 -0.5855
  635TIP3    H123396   4.300   2.991   5.176  0.7415  0.0167  0.0354
  635TIP3    H223397   4.429   2.949   5.109 -0.0744 -0.5522 -1.2180
  636TIP3   OH223398   1.746   4.805  16.280  0.0293  0.0783  0.2340
  636TIP3    H123399   1.678   4.852  16.328 -1.4829  0.5964 -2.2234
  636TIP3    H223400   1.731   4.713  16.302 -2.2082  0.0730 -1.0095
  637TIP3   OH223401   1.192   3.439  13.240 -0.0888  0.2142 -0.2921
  637TIP3    H123402   1.164   3.398  13.158 -0.6842 -0.4454  0.2176
  637TIP3    H223403   1.114   3.483  13.272  0.6771  2.2383 -1.0823
  638TIP3   OH223404   0.947   2.323  10.972 -0.1047 -0.5584  0.4946
  638TIP3    H123405   0.976   2.341  10.883 -0.2475  1.1723  0.7630
  638TIP3    H223406   0.942   2.227  10.977 -0.8535 -0.6754 -1.5772
  639TIP3   OH223407   0.737   1.514  15.093 -0.1551 -0.0670 -0.4049
  639TIP3    H123408   0.783   1.471  15.021  0.5692  2.9243 -1.9060
  639TIP3    H223409   0.647   1.524  15.062  0.5173  2.6967 -1.7801
  640TIP3   OH223410   2.366   1.703   2.736  0.0713  0.0266  0.1983
  640TIP3    H123411   2.368   1.781   2.681  4.3945  0.6141  0.8658
  640TIP3    H223412   2.370   1.630   2.673 -0.5605  0.4633 -0.3614
  641TIP3   OH223413   3.441   0.508  14.864  0.5713  0.1950  0.1808
  641TIP3    H123414   3.499   0.450  14.913 -1.1050 -2.6483 -0.9518
  641TIP3    H223415   3.369   0.527  14.924  1.4749  1.8178  0.8040
  642TIP3   OH223416   5.376   4.127  14.198 -0.4468  0.0935 -0.2057
  642TIP3    H123417   5.453   4.086  14.159 -1.3691 -0.8609 -1.0699
  642TIP3    H223418   5.384   4.220  14.176  0.5853  0.0462 -0.0476
  643TIP3   OH223419   2.989   3.070   1.526  0.2072  0.1940  0.3495
  643TIP3    H123420   2.941   2.990   1.546  0.8461 -0.3632 -0.2816
  643TIP3    H223421   2.935   3.141   1.563 -0.4232 -0.5095  0.8060
  644TIP3   OH223422   0.216   2.843  11.456 -0.5889 -0.1777 -0.5976
  644TIP3    H123423   0.205   2.750  11.474  0.2432 -0.1247  0.2525
  644TIP3    H223424   0.210   2.885  11.542 -0.1267  0.4580 -0.8676
  645TIP3   OH223425   3.847   0.690  14.397  0.0538  0.1734  0.3433
  645TIP3    H123426   3.817   0.730  14.478 -0.7130  2.0298 -0.7659
  645TIP3    H223427   3.770   0.644  14.363  0.7506 -1.7932  1.2848
  646TIP3   OH223428   0.389   6.140   3.443 -0.6318  0.0904 -0.5585
  646TIP3    H123429   0.332   6.066   3.421 -0.7760  0.5514 -1.8066
  646TIP3    H223430   0.347   6.216   3.402 -0.0006  0.7215 -0.0712
  647TIP3   OH223431   3.117   1.440  14.907 -0.6333  0.2451 -0.1269
  647TIP3    H123432   3.029   1.413  14.879  0.3276 -0.5584 -2.6158
  647TIP3    H223433   3.176   1.383  14.859  1.3057  0.9624  1.2711
  648TIP3   OH223434   0.649   0.941   1.738  0.1496 -0.1452  0.4075
  648TIP3    H123435   0.587   1.002   1.777  0.8436  0.1989  0.9954
  648TIP3    H223436   0.660   0.872   1.804  0.9673  0.1949  0.6380
  649TIP3   OH223437   4.588   0.359   2.238 -0.6938  0.6296  0.0416
  649TIP3    H123438   4.502   0.384   2.206 -1.1516 -0.2900  0.5006
  649TIP3    H223439   4.571   0.316   2.322  0.1081 -0.4486 -0.3240
  650TIP3   OH223440   2.714   6.404  14.895 -0.1507  0.3088 -0.1964
  650TIP3    H123441   2.658   6.482  14.897 -0.6447 -0.0375 -0.3026
  650TIP3    H223442   2.778   6.419  14.965  0.6650  1.4673 -1.1705
  651TIP3   OH223443   1.607   1.285  15.771  0.9377 -0.0470  0.4549
  651TIP3    H123444   1.538   1.257  15.833  1.0934 -0.6536  0.3647
  651TIP3    H223445   1.688   1.278  15.822  1.0187 -0.1316  0.3141
  652TIP3   OH223446   5.815   5.094  11.987 -0.1131  0.2271 -0.1818
  652TIP3    H123447   5.838   5.027  11.923 -0.6656  0.6932 -0.8720
  652TIP3    H223448   5.772   5.046  12.058 -0.4173 -0.1598 -0.6276
  653TIP3   OH223449   1.801   0.919   3.814  0.3780 -0.4687  0.1323
  653TIP3    H123450   1.722   0.890   3.859  0.2808 -0.6005 -0.1192
  653TIP3    H223451   1.803   1.014   3.828 -0.3522 -0.3236 -0.6787
  654TIP3   OH223452   1.844   1.374   0.056 -0.0676 -0.2857 -0.2245
  654TIP3    H123453   1.860   1.297   0.111 -2.8062  0.7636  2.2963
  654TIP3    H223454   1.842   1.447   0.117  1.9828  1.8618 -2.4954
  655TIP3   OH223455   3.600   0.902   3.317  0.0587 -0.2828  0.4854
  655TIP3    H123456   3.506   0.884   3.315 -0.2017  0.8888  1.2184
  655TIP3    H223457   3.627   0.880   3.406 -0.1178  2.0074  1.1631
  656TIP3   OH223458   4.928   1.362  17.073  0.3691 -0.4738  0.3791
  656TIP3    H123459   4.898   1.272  17.060  0.6969 -1.0940  3.2196
  656TIP3    H223460   5.021   1.360  17.053  0.6883 -1.1571  1.8569
  657TIP3   OH223461   3.504   0.792   5.710 -0.9252  0.4008  0.1759
  657TIP3    H123462   3.412   0.805   5.736 -0.9823  2.2644 -0.7789
  657TIP3    H223463   3.554   0.826   5.784 -1.0455  1.4400 -0.2053
  658TIP3   OH223464   4.312   4.309  12.324 -0.2288  0.1028  0.2683
  658TIP3    H123465   4.373   4.250  12.280  1.7074  1.7346  0.6155
  658TIP3    H223466   4.298   4.270  12.410  0.8643  0.0141  0.4197
  659TIP3   OH223467   6.087   1.856   4.551  0.1664  0.4501  0.0089
  659TIP3    H123468   6.153   1.787   4.546 -0.7690 -0.3644 -2.5869
  659TIP3    H223469   6.132   1.935   4.523  0.7345  0.5337  1.0900
  660TIP3   OH223470   5.295   0.166  15.321 -0.4072  0.4244 -0.6371
  660TIP3    H123471   5.263   0.081  15.353 -2.1931  1.3571  0.2231
  660TIP3    H223472   5.322   0.149  15.231 -1.5139 -0.8853 -0.7569
  661TIP3   OH223473   5.311   2.324   5.883  0.1727 -0.2135  0.1184
  661TIP3    H123474   5.371   2.387   5.842  0.1850  0.1226  0.6482
  661TIP3    H223475   5.362   2.285   5.954 -0.0254 -0.4053  0.1565
  662TIP3   OH223476   2.931   3.742  16.168 -0.0553  0.7785  0.2186
  662TIP3    H123477   2.839   3.747  16.192 -0.2617  2.1107 -0.7016
  662TIP3    H223478   2.976   3.795  16.234  0.2871 -1.1169  1.5694
  663TIP3   OH223479   5.008   4.497   4.883 -0.2664 -0.6377  0.2579
  663TIP3    H123480   5.040   4.587   4.884 -0.8058 -0.3708 -1.7465
  663TIP3    H223481   4.926   4.500   4.933  0.4719 -0.3635  1.4903
  664TIP3   OH223482   5.260   6.261  13.416 -0.3303  0.1782 -0.1584
  664TIP3    H123483   5.332   6.201  13.401  0.5906  0.6905  1.9199
  664TIP3    H223484   5.276   6.334  13.356  1.1769  0.5120  0.6166
  665TIP3   OH223485   1.193   5.150  11.052  0.5156 -0.1951  0.2865
  665TIP3    H123486   1.224   5.221  10.996  0.5478 -0.1403  0.3740
  665TIP3    H223487   1.271   5.121  11.100  0.5502 -0.4445  0.0804
  666TIP3   OH223488   5.388   0.598  13.975  0.4166  0.0756  0.1521
  666TIP3    H123489   5.313   0.551  14.010  0.2750 -0.4490 -0.8117
  666TIP3    H223490   5.385   0.582  13.881  1.9827 -0.3404  0.1334
  667TIP3   OH223491   6.099   1.262   1.340  0.0961  0.2659 -0.3530
  667TIP3    H123492   6.188   1.249   1.307  0.3768  0.4002  0.3470
  667TIP3    H223493   6.101   1.228   1.430 -1.0527 -1.4947 -0.9310
  668TIP3   OH223494   2.279   3.761  11.491  0.1363  0.2727  0.4360
  668TIP3    H123495   2.346   3.827  11.508  0.8629  0.0832 -1.4651
  668TIP3    H223496   2.328   3.684  11.463 -0.7200 -1.0183  2.2802
  669TIP3   OH223497   5.329   3.200  10.938  0.4685 -0.0029 -0.0906
  669TIP3    H123498   5.398   3.260  10.910  1.2103 -0.3315  0.9674
  669TIP3    H223499   5.358   3.169  11.024  0.1097 -1.8788 -0.6018
  670TIP3   OH223500   5.576   2.345  15.469  0.1956 -0.1806 -0.3548
  670TIP3    H123501   5.624   2.279  15.419 -0.6892 -1.3339  0.2440
  670TIP3    H223502   5.642   2.405  15.501  1.1814 -1.3721 -0.0693
  671TIP3   OH223503   6.464   1.702  16.614 -1.2103  0.0235  0.1729
  671TIP3    H123504   6.378   1.724  16.650 -0.7609  0.7711  0.8285
  671TIP3    H223505   6.519   1.688  16.692  0.2141  3.2834 -0.0686
  672TIP3   OH223506   2.078   5.657  11.551  0.1130 -0.2314  0.5241
  672TIP3    H123507   2.128   5.623  11.478  1.1661 -1.3795  1.7410
  672TIP3    H223508   2.018   5.721  11.511  1.9955  0.6504 -1.0775
  673TIP3   OH223509   0.801   2.356   6.649 -0.6324 -0.2994 -0.1636
  673TIP3    H123510   0.895   2.339   6.663 -0.8203 -1.4953 -0.2099
  673TIP3    H223511   0.758   2.306   6.718 -1.1752  2.1620  1.3610
  674TIP3   OH223512   3.368   0.360   5.909 -0.3489  0.1927  0.5097
  674TIP3    H123513   3.321   0.351   5.826 -0.6535  1.7711  0.4861
  674TIP3    H223514   3.444   0.301   5.900 -0.5391  0.1201 -0.7576
  675TIP3   OH223515   3.135   1.618   6.186 -0.2914  0.0924 -0.1440
  675TIP3    H123516   3.159   1.573   6.267 -3.7322  0.9960  1.5501
  675TIP3    H223517   3.218   1.648   6.150  1.5163 -1.7714  2.1348
  676TIP3   OH223518   5.736   0.114  13.066  0.0193  0.0657  0.5431
  676TIP3    H123519   5.727   0.167  13.146  0.3017  0.0587  0.5821
  676TIP3    H223520   5.824   0.077  13.072 -0.0849 -0.2068  0.3914
  677TIP3   OH223521   4.721   1.372   1.183  0.0671  0.4362 -0.0389
  677TIP3    H123522   4.639   1.381   1.135  0.2849  1.5351 -0.2455
  677TIP3    H223523   4.754   1.285   1.161 -0.7861  0.1933 -0.3604
  678TIP3   OH223524   3.435   1.356   3.765  0.0280  0.0064  0.0104
  678TIP3    H123525   3.340   1.347   3.768 -0.1403  1.5319  0.4424
  678TIP3    H223526   3.469   1.285   3.819 -0.7407 -1.7450 -1.6998
  679TIP3   OH223527   1.352   2.621  10.413  0.2299 -0.3047  0.0250
  679TIP3    H123528   1.324   2.703  10.454  0.3465 -0.4272  0.3537
  679TIP3    H223529   1.422   2.648  10.352  1.1166 -0.2972  1.0160
  680TIP3   OH223530   6.537   4.739  11.433 -0.3288  0.2512 -0.0631
  680TIP3    H123531   6.445   4.748  11.458 -0.5237 -0.1634 -0.6131
  680TIP3    H223532   6.584   4.735  11.517 -1.1492 -2.9846  0.3978
  681TIP3   OH223533   0.303   2.538  11.230  0.0584 -0.2238 -0.1894
  681TIP3    H123534   0.254   2.560  11.151 -1.3290 -0.1662  0.6495
  681TIP3    H223535   0.273   2.451  11.254 -0.8014  0.4246  1.1862
  682TIP3   OH223536   0.804   2.151  13.648  0.4432  0.4059 -0.4217
  682TIP3    H123537   0.838   2.220  13.591 -1.5453  1.1477 -0.8012
  682TIP3    H223538   0.830   2.069  13.606  3.2132  0.8271  0.2535
  683TIP3   OH223539   6.486   1.395   3.983 -0.3186 -0.4067 -0.0135
  683TIP3    H123540   6.428   1.383   4.058 -0.4232 -0.0848 -0.0378
  683TIP3    H223541   6.518   1.308   3.962  0.2891 -0.4178  0.8644
  684TIP3   OH223542   0.910   5.630   2.990  0.6148 -0.1617 -0.0873
  684TIP3    H123543   0.877   5.693   2.926 -1.3169 -1.0963 -0.0875
  684TIP3    H223544   0.996   5.663   3.014  0.6149  1.2198 -1.7766
  685TIP3   OH223545   4.955   3.618  17.131  0.4785  0.3294  0.5693
  685TIP3    H123546   4.990   3.541  17.086  0.9530  0.5408  0.5713
  685TIP3    H223547   5.013   3.630  17.206  0.8480  1.1177  0.1709
  686TIP3   OH223548   1.102   4.416  14.059  0.2731 -0.1186 -0.2945
  686TIP3    H123549   1.034   4.483  14.051  1.0239  0.7499  0.3752
  686TIP3    H223550   1.172   4.445  14.001  1.1882  0.4506  1.0385
  687TIP3   OH223551   0.431   6.765  13.343  0.1791 -0.1284  0.2114
  687TIP3    H123552   0.520   6.780  13.313  0.9636 -1.5492  1.6827
  687TIP3    H223553   0.388   6.720  13.270  0.9546 -0.3271 -0.1288
  688TIP3   OH223554   0.162   4.741  16.380  0.0932  0.4751 -0.1866
  688TIP3    H123555   0.113   4.673  16.334  1.4727 -0.7327  0.0390
  688TIP3    H223556   0.220   4.778  16.313 -0.0814  0.8798 -0.1179
  689TIP3   OH223557   0.660   5.263   4.959 -0.7849 -0.5560 -0.1509
  689TIP3    H123558   0.699   5.273   4.873  1.9276 -0.5719  0.9680
  689TIP3    H223559   0.628   5.173   4.961  0.3636 -0.9923 -0.7182
  690TIP3   OH223560   3.645   4.272  15.721 -0.0772  0.1463  0.2603
  690TIP3    H123561   3.593   4.196  15.695 -0.4931  0.7533 -0.7405
  690TIP3    H223562   3.648   4.326  15.643  1.4483  0.4787  0.5247
  691TIP3   OH223563   1.114   1.851  12.065  0.3920  0.2133  0.2514
  691TIP3    H123564   1.118   1.801  12.146 -0.7148 -1.6856 -0.7683
  691TIP3    H223565   1.142   1.789  11.998 -0.0612  1.2825 -0.9694
  692TIP3   OH223566   3.418   4.574  13.178  0.0891  0.1533 -0.5191
  692TIP3    H123567   3.471   4.555  13.256 -0.5353  0.7175  0.0447
  692TIP3    H223568   3.457   4.519  13.110  1.8025  0.9907 -0.2816
  693TIP3   OH223569   3.219   1.187   2.308  0.2674  0.0334  0.2207
  693TIP3    H123570   3.143   1.204   2.363 -1.5224 -1.8286 -1.4992
  693TIP3    H223571   3.215   1.254   2.239  0.0220 -0.1888  0.0132
  694TIP3   OH223572   5.834   4.646  16.017 -0.5559  0.3782 -0.6578
  694TIP3    H123573   5.911   4.674  15.967  0.0280  0.9557  0.5200
  694TIP3    H223574   5.866   4.573  16.071 -0.5007  1.3367  0.6629
  695TIP3   OH223575   0.851   3.511   0.299  0.0827 -0.0520  0.5334
  695TIP3    H123576   0.910   3.458   0.351 -1.6011 -1.0598  1.5193
  695TIP3    H223577   0.879   3.497   0.209  1.7315  0.0437  1.0029
  696TIP3   OH223578   5.676   2.308  12.457 -0.2678  0.1361  0.1440
  696TIP3    H123579   5.604   2.270  12.507  2.1051 -2.6371  1.7796
  696TIP3    H223580   5.724   2.361  12.520  1.2665 -1.2569  0.2327
  697TIP3   OH223581   6.375   4.026   2.333 -0.2012  0.6410  0.6803
  697TIP3    H123582   6.451   4.047   2.278  0.3260 -0.6507  0.8950
  697TIP3    H223583   6.413   3.993   2.415 -0.9951  0.4319  0.9679
  698TIP3   OH223584   0.579   0.761   3.872  0.0244 -0.1717  0.1879
  698TIP3    H123585   0.509   0.825   3.884 -0.0722 -0.2509  0.0538
  698TIP3    H223586   0.562   0.723   3.786  0.8968  0.6502 -0.3828
  699TIP3   OH223587   1.478   0.491   5.348 -0.7382 -0.3930 -0.1271
  699TIP3    H123588   1.429   0.455   5.273  0.3789  0.2793 -1.2134
  699TIP3    H223589   1.568   0.498   5.317 -0.0456 -0.9814  1.6200
  700TIP3   OH223590   5.584   6.707   1.621 -0.2310  0.4126  0.3432
  700TIP3    H123591   5.558   6.618   1.643 -0.9045  0.3625 -0.5665
  700TIP3    H223592   5.633   6.698   1.539  1.0457  0.7214  1.0419
  701TIP3   OH223593   5.268   5.587  14.793 -0.0137  0.0511  0.4730
  701TIP3    H123594   5.213   5.601  14.716 -0.4472 -0.1508  0.7438
  701TIP3    H223595   5.280   5.493  14.797 -1.7263 -0.1429  1.8377
  702TIP3   OH223596   3.786   2.256  12.807  0.4467  0.1825 -0.2232
  702TIP3    H123597   3.705   2.207  12.817  0.0925  0.4885 -1.3945
  702TIP3    H223598   3.759   2.340  12.768  0.9924  1.5054  2.0795
  703TIP3   OH223599   4.529   0.434  14.726  0.2491  0.0556 -0.4570
  703TIP3    H123600   4.586   0.421  14.650  0.6885 -0.3879 -0.0563
  703TIP3    H223601   4.498   0.525  14.717  1.5424  0.5264 -0.3274
  704TIP3   OH223602   2.797   1.356   5.041 -0.0566  0.6023 -0.1299
  704TIP3    H123603   2.720   1.323   4.995  0.1441 -0.2740  0.1557
  704TIP3    H223604   2.829   1.281   5.092 -0.1791  1.4897  1.3232
  705TIP3   OH223605   2.122   6.025   0.728  0.1339  0.5012  0.5708
  705TIP3    H123606   2.074   5.985   0.656  2.5827 -1.3557 -0.1646
  705TIP3    H223607   2.059   6.030   0.800 -0.8402 -3.1367  0.1241
  706TIP3   OH223608   0.718   1.227   0.037 -0.1420 -0.0445  0.0396
  706TIP3    H123609   0.699   1.133   0.029  0.9620 -0.1858 -1.4522
  706TIP3    H223610   0.721   1.258  -0.053  0.0886  1.3038  0.4952
  707TIP3   OH223611   6.053   2.010  12.317 -0.2292 -0.0903 -0.3016
  707TIP3    H123612   5.992   1.970  12.379  2.1069  2.1895  3.9426
  707TIP3    H223613   6.042   2.104  12.330  2.0437  0.4336 -1.6506
  708TIP3   OH223614   5.487   1.852  10.798  0.4831  0.0825 -0.1945
  708TIP3    H123615   5.454   1.786  10.858 -0.1736 -0.2446 -0.9055
  708TIP3    H223616   5.445   1.832  10.714 -1.4659  2.6683  0.0359
  709TIP3   OH223617   6.586   6.268   4.208  0.2803 -0.0974 -0.1745
  709TIP3    H123618   6.636   6.333   4.258 -1.4532  1.6584 -0.6171
  709TIP3    H223619   6.606   6.185   4.251  0.9923  0.9775  1.7223
  710TIP3   OH223620   0.297   4.358   3.801  0.0781  0.1577 -0.3667
  710TIP3    H123621   0.347   4.389   3.877  0.6246 -1.2766 -0.1195
  710TIP3    H223622   0.343   4.280   3.771 -1.0103 -0.1844 -1.2376
  711TIP3   OH223623   3.433   2.325  11.333 -0.0752  0.4917 -0.5817
  711TIP3    H123624   3.413   2.248  11.279 -0.5778  1.0772 -1.2526
  711TIP3    H223625   3.433   2.398  11.271 -1.2006  1.2612  0.2905
  712TIP3   OH223626   0.338   0.080  11.789  0.2741 -0.2379 -0.2462
  712TIP3    H123627   0.305   0.040  11.869 -0.6001  0.1062 -0.4205
  712TIP3    H223628   0.262   0.083  11.731  0.5388  0.8216 -0.5622
  713TIP3   OH223629   5.507   3.393  11.352  0.3703  0.4822  0.3011
  713TIP3    H123630   5.504   3.350  11.438  0.1655  0.3874  0.2474
  713TIP3    H223631   5.588   3.361  11.312  1.0531  1.4052  0.9124
  714TIP3   OH223632   5.513   5.899  11.661  0.2095  0.1634  0.3818
  714TIP3    H123633   5.486   5.916  11.751  1.2511  0.0894  0.7104
  714TIP3    H223634   5.458   5.826  11.633  0.2733 -0.1773  1.1397
  715TIP3   OH223635   6.578   1.180   3.254  0.4183  0.1455 -0.3083
  715TIP3    H123636   6.595   1.174   3.160  0.1678 -1.0949 -0.2858
  715TIP3    H223637   6.650   1.234   3.287  1.5059 -0.8499 -0.9674
  716TIP3   OH223638   5.498   2.361  16.590 -0.5558 -0.1513 -0.3166
  716TIP3    H123639   5.582   2.377  16.634 -0.9254  0.1332  0.3167
  716TIP3    H223640   5.434   2.361  16.662 -1.1471  0.0719 -0.8368
  717TIP3   OH223641   3.550   3.704  10.612 -0.3516  0.2180 -0.5659
  717TIP3    H123642   3.556   3.677  10.703 -1.4919 -0.9084 -0.8027
  717TIP3    H223643   3.575   3.627  10.562  2.1590  1.3619 -1.2395
  718TIP3   OH223644   5.480   3.092   0.364  0.0260 -0.4041 -0.6427
  718TIP3    H123645   5.518   3.012   0.328  2.2979  1.1361 -1.8562
  718TIP3    H223646   5.478   3.154   0.291  0.0166  1.2323  0.6828
  719TIP3   OH223647   2.970   6.580   0.417 -0.2068  0.2557 -0.3689
  719TIP3    H123648   2.896   6.540   0.463  0.9799 -0.8747  0.6247
  719TIP3    H223649   2.954   6.563   0.324 -0.6854 -0.8745 -0.0873
  720TIP3   OH223650   4.329   4.613  13.971 -0.1314  0.4133  0.2415
  720TIP3    H123651   4.251   4.585  13.924  0.8841 -1.0523 -0.6484
  720TIP3    H223652   4.383   4.656  13.904  0.8920 -0.8100  0.2440
  721TIP3   OH223653   1.883   2.205  12.475  0.5038  0.9134 -0.0689
  721TIP3    H123654   1.882   2.233  12.566  1.4985 -2.2204  1.0078
  721TIP3    H223655   1.799   2.161  12.462 -0.2925  2.6484 -1.2028
  722TIP3   OH223656   4.232   4.333   5.930  0.3521  0.0228  0.0444
  722TIP3    H123657   4.274   4.390   5.994  0.7730 -0.4760  0.2159
  722TIP3    H223658   4.300   4.271   5.904 -0.4144 -1.1591  0.7463
  723TIP3   OH223659   0.515   1.970   0.347 -0.4944  0.1891  0.5057
  723TIP3    H123660   0.444   2.033   0.349 -1.7439 -1.0740 -0.9824
  723TIP3    H223661   0.548   1.974   0.257 -1.2188 -1.8464  0.0936
  724TIP3   OH223662   2.839   6.480   5.868 -0.3926 -0.0771 -0.2398
  724TIP3    H123663   2.864   6.488   5.776  1.6515  0.4694  0.3070
  724TIP3    H223664   2.828   6.571   5.897  0.2194 -0.1787  0.3450
  725TIP3   OH223665   4.680   4.620  14.116  0.0254  0.3055  0.3658
  725TIP3    H123666   4.644   4.685  14.055  2.5138  0.7189 -0.8018
  725TIP3    H223667   4.700   4.544  14.061 -0.3366 -0.4274  1.2249
  726TIP3   OH223668   1.820   2.824  12.632  0.2581 -0.3889 -0.1860
  726TIP3    H123669   1.785   2.869  12.555  0.7952  2.3273  1.0317
  726TIP3    H223670   1.813   2.731  12.611 -1.7149  0.1967 -2.5595
  727TIP3   OH223671   6.438   5.933  15.129 -0.0848  0.1510  0.0108
  727TIP3    H123672   6.446   5.840  15.109  0.7978  0.5751 -1.8981
  727TIP3    H223673   6.374   5.938  15.199 -0.4948 -1.8606 -0.1716
  728TIP3   OH223674   3.753   0.259  16.127  0.1764  0.0311  0.2884
  728TIP3    H123675   3.775   0.352  16.122  0.4699  0.0809  1.8030
  728TIP3    H223676   3.831   0.218  16.165 -0.0719 -0.7755 -0.0650
  729TIP3   OH223677   4.350   2.091  16.442  0.4417  0.0701 -0.5167
  729TIP3    H123678   4.320   2.001  16.454 -0.0738  0.3445  0.3424
  729TIP3    H223679   4.282   2.145  16.482  1.0509  0.8115 -0.4520
  730TIP3   OH223680   0.535   6.798   2.924  0.0640 -0.4435  0.3595
  730TIP3    H123681   0.501   6.876   2.968 -0.9200 -1.2811  1.1618
  730TIP3    H223682   0.627   6.794   2.950 -0.1831 -0.2127  1.3261
  731TIP3   OH223683   4.000   0.180  11.676 -0.1711 -0.6346  0.1721
  731TIP3    H123684   4.075   0.124  11.695 -0.1097 -0.2356  1.1414
  731TIP3    H223685   4.027   0.267  11.705 -0.0244  0.0492 -1.8723
  732TIP3   OH223686   4.688   0.925   2.203 -0.2385 -0.5554 -0.2468
  732TIP3    H123687   4.714   0.859   2.267  1.0089 -0.1746 -0.3243
  732TIP3    H223688   4.632   0.878   2.142  1.7958 -1.9686 -1.1435
  733TIP3   OH223689   3.110   6.525   5.443  1.3940 -0.0075  0.6636
  733TIP3    H123690   3.181   6.588   5.457 -0.3653  2.5325 -1.0835
  733TIP3    H223691   3.055   6.533   5.521  1.7847 -0.2741  0.9706
  734TIP3   OH223692   1.371   6.083  13.885  0.0968 -0.1973 -0.7613
  734TIP3    H123693   1.335   6.138  13.956 -0.3983 -0.4146 -0.8371
  734TIP3    H223694   1.463   6.107  13.881  0.6988 -1.7834  1.4776
  735TIP3   OH223695   0.362   0.200   4.583 -0.2854 -0.3777  0.2791
  735TIP3    H123696   0.354   0.295   4.597  2.0391  0.1023 -1.1199
  735TIP3    H223697   0.301   0.181   4.512 -0.5338  0.1155  0.3515
  736TIP3   OH223698   3.765   5.254  12.615  0.0242 -0.1861  0.0363
  736TIP3    H123699   3.831   5.321  12.633  0.6383 -1.3310  2.5438
  736TIP3    H223700   3.805   5.199  12.547  0.8318  0.2202  0.1669
  737TIP3   OH223701   3.623   4.009  13.790  0.0171  0.7114  0.1309
  737TIP3    H123702   3.698   4.056  13.827  0.1610 -0.9752  2.2262
  737TIP3    H223703   3.621   3.926  13.838 -2.9750  0.5352 -0.0686
  738TIP3   OH223704   3.853   4.916  17.148  0.7721 -0.0539 -0.0538
  738TIP3    H123705   3.771   4.877  17.177  1.0919  0.7825  2.1858
  738TIP3    H223706   3.839   4.936  17.055 -1.4489 -0.1620  0.2049
  739TIP3   OH223707   4.068   2.775   4.148 -0.0358 -0.4449  0.1786
  739TIP3    H123708   4.142   2.726   4.184 -0.4326  0.1663  1.9179
  739TIP3    H223709   4.034   2.719   4.078  1.2812 -1.3163  0.1944
  740TIP3   OH223710   5.438   1.413  16.541  0.4185 -0.1660  0.5458
  740TIP3    H123711   5.428   1.333  16.489  1.2184  0.0980 -0.0299
  740TIP3    H223712   5.360   1.465  16.520  0.0926 -0.6187  0.6146
  741TIP3   OH223713   2.394   1.056  17.004  0.0380  0.1900  0.0758
  741TIP3    H123714   2.457   1.074  17.074  0.6851  0.8854 -0.6585
  741TIP3    H223715   2.427   1.106  16.929 -0.6394 -0.5345 -0.7242
  742TIP3   OH223716   5.645   1.104  13.730 -0.0786 -0.5336  0.6475
  742TIP3    H123717   5.632   1.023  13.778 -0.1655 -0.9745 -0.1039
  742TIP3    H223718   5.564   1.154  13.745 -0.4032 -0.9705  0.3845
  743TIP3   OH223719   4.654   0.381   0.499 -0.1907  0.0871  0.1034
  743TIP3    H123720   4.668   0.295   0.538  1.0772  0.5292  0.6714
  743TIP3    H223721   4.710   0.382   0.422 -1.2345 -0.0742 -0.6860
  744TIP3   OH223722   6.129   1.064   5.619  0.2442  0.0528 -0.0930
  744TIP3    H123723   6.040   1.085   5.593  1.3318  0.3659 -4.4181
  744TIP3    H223724   6.123   0.977   5.658 -1.7835 -0.7869 -2.0665
  745TIP3   OH223725   0.656   3.590  11.330  0.9221 -0.2939  0.0591
  745TIP3    H123726   0.593   3.535  11.377 -0.0015  1.2477  0.7059
  745TIP3    H223727   0.741   3.551  11.350  0.2536 -2.2093 -0.5300
  746TIP3   OH223728   1.226   6.178   5.177  0.0406 -0.3126  0.3788
  746TIP3    H123729   1.158   6.182   5.109  0.1124  1.7179  0.3692
  746TIP3    H223730   1.180   6.144   5.254 -1.5660  2.7764  0.9318
  747TIP3   OH223731   3.736   6.407  11.402 -0.2283  0.3050  0.2742
  747TIP3    H123732   3.713   6.337  11.463 -0.2077  0.1015  0.0513
  747TIP3    H223733   3.810   6.451  11.443 -0.3316  0.2869  0.4843
  748TIP3   OH223734   4.653   2.162   1.659  0.2351  0.4348 -0.0171
  748TIP3    H123735   4.631   2.205   1.742 -1.4805  0.2335 -0.3265
  748TIP3    H223736   4.662   2.070   1.681 -2.7443 -0.0454 -0.3775
  749TIP3   OH223737   1.175   3.991   5.557 -0.4644 -0.0486 -0.4921
  749TIP3    H123738   1.236   3.974   5.628 -2.8861 -0.9557  1.5236
  749TIP3    H223739   1.159   4.085   5.561 -1.0722 -0.1846  0.6353
  750TIP3   OH223740   0.822   6.634   5.067  0.4555  0.0946 -0.2894
  750TIP3    H123741   0.878   6.578   5.121  0.4172  0.5206  0.1989
  750TIP3    H223742   0.786   6.575   5.001 -0.2061 -0.6327  0.6844
  751TIP3   OH223743   1.939   3.211   2.530 -0.2789 -0.6565  0.2404
  751TIP3    H123744   2.005   3.249   2.472  1.7930 -0.8840  2.2848
  751TIP3    H223745   1.860   3.203   2.476  1.6462 -1.4009 -2.6638
  752TIP3   OH223746   5.498   4.956  14.189 -0.0309 -0.7074  0.2254
  752TIP3    H123747   5.589   4.931  14.206 -0.3230 -1.5415  0.6118
  752TIP3    H223748   5.446   4.880  14.217 -0.8505 -0.2321  0.0399
  753TIP3   OH223749   0.047   1.844  14.577  0.1565 -0.2728 -0.0824
  753TIP3    H123750   0.136   1.823  14.547  0.2368 -0.8484  0.5532
  753TIP3    H223751  -0.010   1.805  14.511  0.3697  1.7544 -1.5829
  754TIP3   OH223752   1.554   5.509  11.342  0.0357  0.0142 -0.0149
  754TIP3    H123753   1.572   5.480  11.431 -2.4151  1.9407  1.2402
  754TIP3    H223754   1.630   5.561  11.317  1.1859 -1.3628  0.5295
  755TIP3   OH223755   1.176   6.566  11.392  0.3309  0.5033 -0.0464
  755TIP3    H123756   1.220   6.601  11.315  1.9178 -1.0491  0.0903
  755TIP3    H223757   1.156   6.643  11.445 -0.3983  1.5594 -1.7727
  756TIP3   OH223758   5.792   4.078   3.356 -0.1517  0.1201  0.1207
  756TIP3    H123759   5.794   4.050   3.264  0.1988  0.7742 -0.0772
  756TIP3    H223760   5.845   4.012   3.402 -0.5524 -0.3624 -0.0973
  757TIP3   OH223761   6.092   6.282   2.161  0.2048 -0.5293  0.1466
  757TIP3    H123762   6.128   6.370   2.148  1.6257 -1.0242  0.4438
  757TIP3    H223763   6.156   6.225   2.119 -0.5641 -1.4404  0.1994
  758TIP3   OH223764   5.344   3.510   0.098 -0.4309 -0.1990 -0.3138
  758TIP3    H123765   5.393   3.437   0.059  1.2716  0.6290  0.1364
  758TIP3    H223766   5.348   3.579   0.032  0.5320  0.4508  0.3903
  759TIP3   OH223767   0.547   0.418  14.357  0.1954  0.2899 -0.3280
  759TIP3    H123768   0.638   0.426  14.329 -0.5004  0.9251 -2.6563
  759TIP3    H223769   0.522   0.328  14.333  0.1579  0.1610  0.1799
  760TIP3   OH223770   1.654   0.652   5.018  0.0594 -0.0526  0.4733
  760TIP3    H123771   1.593   0.608   4.959  0.5078  0.1259 -0.1278
  760TIP3    H223772   1.717   0.694   4.961  1.0428 -0.6500  1.0896
  761TIP3   OH223773   2.096   5.793  15.350  0.5163 -0.1239 -0.7141
  761TIP3    H123774   2.138   5.713  15.320 -1.8372 -1.4893 -0.5701
  761TIP3    H223775   2.023   5.806  15.291  1.1844  2.3232 -1.1130
  762TIP3   OH223776   6.262   1.551  12.319  0.6750  0.1570 -0.4744
  762TIP3    H123777   6.281   1.466  12.360 -2.1355  0.1088  0.9934
  762TIP3    H223778   6.251   1.531  12.226  2.4030 -0.6162 -0.5460
  763TIP3   OH223779   5.135   1.483   2.849 -0.0883  1.2808 -0.4186
  763TIP3    H123780   5.123   1.494   2.755  0.1395 -2.9896 -1.1297
  763TIP3    H223781   5.215   1.432   2.858 -0.7558  0.4980  2.0053
  764TIP3   OH223782   6.798   5.641   0.868 -0.2132  0.0209 -0.2760
  764TIP3    H123783   6.826   5.728   0.841  2.4192 -1.3239 -2.3681
  764TIP3    H223784   6.729   5.618   0.806 -0.8686  0.5464  0.2410
  765TIP3   OH223785   6.187   2.653   0.730  0.8903  0.2888 -0.2084
  765TIP3    H123786   6.135   2.672   0.808 -0.2280  0.7354 -1.0402
  765TIP3    H223787   6.172   2.560   0.712 -1.9196  0.9654 -2.0088
  766TIP3   OH223788   5.293   6.787   2.675 -0.4612  0.2983 -0.2571
  766TIP3    H123789   5.278   6.818   2.585 -0.9145  1.2337  0.1286
  766TIP3    H223790   5.339   6.859   2.717 -2.8191  1.1044  1.0851
  767TIP3   OH223791   3.334   1.557  16.529 -0.0487  0.3249  0.1466
  767TIP3    H123792   3.238   1.556  16.536 -0.1890  3.8973  0.3465
  767TIP3    H223793   3.350   1.540  16.436 -1.0617  1.7234 -0.3319
  768TIP3   OH223794   1.974   5.033  16.229 -0.0534 -0.3928  0.1206
  768TIP3    H123795   1.901   5.060  16.284 -1.4599 -0.0804 -1.7847
  768TIP3    H223796   1.954   4.943  16.205 -0.0128 -0.2087 -0.6543
  769TIP3   OH223797   4.903   3.785   4.609  0.2346 -0.0157 -0.5383
  769TIP3    H123798   4.816   3.754   4.581 -1.4975  3.7856  0.0354
  769TIP3    H223799   4.906   3.764   4.702 -0.7617  1.1052 -0.2299
  770TIP3   OH223800   0.455   2.326   6.446 -0.4813  0.2496  0.6403
  770TIP3    H123801   0.402   2.254   6.412  0.8811 -0.8958  0.8703
  770TIP3    H223802   0.499   2.362   6.369  1.4688 -1.4005  0.9179
  771TIP3   OH223803   1.950   5.679  12.626  0.0430 -0.0934 -0.1520
  771TIP3    H123804   1.941   5.630  12.544 -0.3003  1.1355 -0.8762
  771TIP3    H223805   2.008   5.752  12.604 -1.8164  1.5259  0.0842
  772TIP3   OH223806   5.039   4.912   3.677 -0.2625  1.1839 -0.1627
  772TIP3    H123807   5.134   4.917   3.665 -0.0498  0.3237  0.9808
  772TIP3    H223808   5.015   4.999   3.709  0.1828  1.3229 -0.1981
  773TIP3   OH223809   3.791   1.805   1.597 -0.2427 -0.0181 -0.0510
  773TIP3    H123810   3.770   1.806   1.504  0.1053 -0.3388 -0.1349
  773TIP3    H223811   3.776   1.895   1.626  0.0106  0.1673 -0.4958
  774TIP3   OH223812   3.310   5.879  10.017  0.0075 -0.4552 -0.1688
  774TIP3    H123813   3.215   5.877  10.005 -0.1235  1.1008  0.4016
  774TIP3    H223814   3.333   5.788  10.037 -1.3577 -0.8604 -0.3330
  775TIP3   OH223815   5.811   3.955   6.109 -0.4349 -0.5827  0.2272
  775TIP3    H123816   5.783   3.955   6.200  0.7356  1.6765  0.6648
  775TIP3    H223817   5.873   3.882   6.103  1.4879  0.7767  2.0016
  776TIP3   OH223818   0.851   1.092   0.378  0.0306  0.2618  0.4065
  776TIP3    H123819   0.777   1.124   0.431  0.7112  0.0966  1.4930
  776TIP3    H223820   0.810   1.038   0.311 -0.8755  0.5450  0.7077
  777TIP3   OH223821   5.053   3.968  12.542  0.2151 -0.4337 -0.3515
  777TIP3    H123822   4.972   4.018  12.548  0.1932 -0.5559  0.6345
  777TIP3    H223823   5.115   4.016  12.597  0.5762 -0.7750 -0.4514
  778TIP3   OH223824   2.194   3.746  15.900 -0.0822  0.1795  0.4360
  778TIP3    H123825   2.100   3.748  15.922 -0.0100  0.2869  0.7461
  778TIP3    H223826   2.197   3.763  15.806 -0.7049 -4.2485 -0.6211
  779TIP3   OH223827   6.448   2.490   0.582 -0.0766 -0.4231  0.0283
  779TIP3    H123828   6.469   2.576   0.548 -0.7836 -0.5157 -0.6893
  779TIP3    H223829   6.477   2.429   0.513 -0.9864 -0.6525 -0.1628
  780TIP3   OH223830   6.786   3.898  13.921  0.6070 -0.1749  0.4280
  780TIP3    H123831   6.832   3.893  14.005  4.6892 -0.2909 -1.5760
  780TIP3    H223832   6.766   3.807  13.899 -1.1351 -0.0987  1.4733
  781TIP3   OH223833   4.845   3.551   2.559 -0.2774  0.3158 -0.1615
  781TIP3    H123834   4.899   3.551   2.480 -0.8505  1.1879 -0.5703
  781TIP3    H223835   4.892   3.607   2.620  0.4535 -0.8096  0.3392
  782TIP3   OH223836   0.893   3.270   3.734  0.6932  0.2809 -0.0339
  782TIP3    H123837   0.856   3.191   3.696 -1.3066  1.2340 -0.2235
  782TIP3    H223838   0.933   3.316   3.660  2.7331 -0.9493  0.2400
  783TIP3   OH223839   0.077   0.477   5.200 -0.1912 -0.3052 -0.0581
  783TIP3    H123840   0.000   0.420   5.190  1.8653 -3.4938  0.7371
  783TIP3    H223841   0.095   0.508   5.111 -1.2415 -1.1655 -0.5970
  784TIP3   OH223842   4.417   0.912  14.657  0.2666  0.0516  0.5440
  784TIP3    H123843   4.372   0.944  14.579  0.0385 -1.7113 -0.0923
  784TIP3    H223844   4.442   0.991  14.705 -0.8263  1.1271 -0.6060
  785TIP3   OH223845   2.009   5.642   0.922 -0.4383 -0.0839 -0.0994
  785TIP3    H123846   2.070   5.573   0.895 -0.5788 -0.0564 -0.4855
  785TIP3    H223847   2.058   5.694   0.985 -0.6354 -1.1028  0.9535
  786TIP3   OH223848   3.831   2.979   3.613 -0.2153  0.2371 -0.5671
  786TIP3    H123849   3.866   3.046   3.554  0.9491  0.2196  0.0706
  786TIP3    H223850   3.876   2.899   3.588 -0.7356 -0.0665 -0.5488
  787TIP3   OH223851   6.556   0.548   0.739  0.7166  0.2768 -0.3310
  787TIP3    H123852   6.577   0.586   0.825  0.0570  0.3077 -0.1776
  787TIP3    H223853   6.545   0.455   0.756  1.6150  0.1240 -0.5755
  788TIP3   OH223854   2.943   5.208   4.695 -0.4860 -0.0303 -0.1047
  788TIP3    H123855   3.010   5.256   4.742 -0.7764  0.8263 -0.5503
  788TIP3    H223856   2.967   5.217   4.603 -1.0828  0.0842 -0.2523
  789TIP3   OH223857   3.832   4.431   1.116  0.0287 -0.2426  0.3195
  789TIP3    H123858   3.862   4.410   1.027  5.6911 -0.0459  1.8180
  789TIP3    H223859   3.820   4.526   1.116  0.1193 -0.2277 -0.1778
  790TIP3   OH223860   6.248   4.630  14.706  0.2175  0.1859  0.3068
  790TIP3    H123861   6.251   4.622  14.802 -0.5174  2.5191  0.5844
  790TIP3    H223862   6.272   4.543  14.674  0.2945 -0.7077  2.6057
  791TIP3   OH223863   2.164   1.478   4.651 -0.2127  0.1067  0.2399
  791TIP3    H123864   2.134   1.387   4.654 -0.6131  0.0845 -2.0162
  791TIP3    H223865   2.244   1.480   4.703  0.4393 -1.8309 -0.5990
  792TIP3   OH223866   3.602   5.158  13.225  0.0953  0.0967  0.2150
  792TIP3    H123867   3.563   5.072  13.212  0.9164 -0.6285  2.1402
  792TIP3    H223868   3.568   5.211  13.153 -0.6832 -1.7331 -0.8378
  793TIP3   OH223869   0.009   2.545  12.581  0.5048 -0.5229 -0.2851
  793TIP3    H123870   0.038   2.454  12.574 -0.8533 -1.0422  0.3955
  793TIP3    H223871  -0.080   2.539  12.617 -0.3501  0.9927 -2.0079
  794TIP3   OH223872   5.359   0.518  15.705  0.1656  0.4791  0.7091
  794TIP3    H123873   5.339   0.426  15.686 -0.7188  0.4699  1.5870
  794TIP3    H223874   5.453   0.527  15.688  0.0666 -0.3227 -0.3797
  795TIP3   OH223875   5.159   0.436   1.563  0.1449  0.5397 -0.2015
  795TIP3    H123876   5.073   0.395   1.550  0.8624 -0.8692 -0.7857
  795TIP3    H223877   5.173   0.486   1.483  1.1115 -1.6701 -1.5117
  796TIP3   OH223878   2.879   3.557   3.669  0.0279 -0.2486 -0.2035
  796TIP3    H123879   2.796   3.552   3.716 -2.4074  0.3846 -4.0221
  796TIP3    H223880   2.889   3.472   3.627  1.9250 -0.6732  1.0022
  797TIP3   OH223881   6.311   1.201  13.204 -0.2982 -0.0970 -0.8755
  797TIP3    H123882   6.383   1.138  13.208 -1.2168 -1.2579 -1.8925
  797TIP3    H223883   6.320   1.253  13.284 -0.0457 -2.0947  0.4496
  798TIP3   OH223884   1.575   6.243   1.811 -0.6229  0.2033  0.4763
  798TIP3    H123885   1.651   6.236   1.870 -0.8262 -0.9749  0.6172
  798TIP3    H223886   1.584   6.330   1.772  0.8825  0.0359  0.3793
  799TIP3   OH223887   6.726   2.092   2.470 -0.1486 -0.1182  0.2011
  799TIP3    H123888   6.819   2.109   2.450 -0.2823  0.2412 -0.1388
  799TIP3    H223889   6.707   2.010   2.424 -0.5342  0.8589 -1.4728
  800TIP3   OH223890   0.799   3.376  16.619 -0.1127  0.0008  0.8342
  800TIP3    H123891   0.843   3.443  16.566  2.4324 -1.1036  1.3882
  800TIP3    H223892   0.768   3.423  16.697 -0.3881  0.9112  0.1980
  801TIP3   OH223893   0.019   6.645  11.121  0.0370 -0.5000 -0.8845
  801TIP3    H123894   0.005   6.665  11.213  0.6088  0.3969 -0.9813
  801TIP3    H223895  -0.022   6.717  11.074  0.5159 -0.4919 -1.3028
  802TIP3   OH223896   4.391   4.819   0.860 -0.3614 -0.4551 -0.3817
  802TIP3    H123897   4.303   4.815   0.822 -0.2377  0.2162 -0.7711
  802TIP3    H223898   4.450   4.823   0.784  0.1548 -2.6732 -0.1723
  803TIP3   OH223899   1.259   0.839  10.579 -0.3514 -0.9601 -0.2213
  803TIP3    H123900   1.278   0.923  10.536  0.0881  1.0763  3.5005
  803TIP3    H223901   1.172   0.816  10.549 -0.9043  1.3784 -0.6415
  804TIP3   OH223902   4.332   6.419   5.097  0.5981 -0.2822 -0.2700
  804TIP3    H123903   4.321   6.513   5.111  0.9687 -0.1796 -0.6428
  804TIP3    H223904   4.281   6.400   5.019  0.9091 -0.3002 -0.4704
  805TIP3   OH223905   2.033   3.799   0.034 -0.1004  0.3655 -0.1187
  805TIP3    H123906   1.998   3.878  -0.007 -0.9250 -0.3537 -0.8328
  805TIP3    H223907   1.962   3.767   0.090 -0.3755 -0.7555 -1.0807
  806TIP3   OH223908   6.437   2.701  15.573  0.2847 -0.0869 -0.0097
  806TIP3    H123909   6.412   2.625  15.627 -0.6495  0.9432  1.0746
  806TIP3    H223910   6.531   2.711  15.589  0.4664 -1.1138 -0.3233
  807TIP3   OH223911   5.162   5.010  14.623 -0.6562 -0.2869 -0.0353
  807TIP3    H123912   5.124   4.924  14.643 -1.6051  0.0663 -0.2638
  807TIP3    H223913   5.139   5.024  14.531  1.0042 -0.5470 -0.5082
  808TIP3   OH223914   2.252   2.973   4.099  0.3113  0.4785  0.0946
  808TIP3    H123915   2.246   2.892   4.151 -1.3822  1.2489  1.1786
  808TIP3    H223916   2.162   2.991   4.073  1.1433 -0.3061 -3.9405
  809TIP3   OH223917   0.805   1.689  12.920 -0.0893  0.4958  0.5270
  809TIP3    H123918   0.835   1.598  12.924  1.1271  0.8710  0.4747
  809TIP3    H223919   0.803   1.718  13.011 -1.8916  0.0009  0.6719
  810TIP3   OH223920   5.704   2.320  17.014 -0.2001 -0.3607  0.1947
  810TIP3    H123921   5.633   2.271  17.055  0.2848  1.3722  3.4509
  810TIP3    H223922   5.670   2.343  16.927 -1.6211 -3.6135 -0.2668
  811TIP3   OH223923   6.331   6.652   5.702 -0.2594 -0.5734 -0.3147
  811TIP3    H123924   6.241   6.684   5.702 -0.2107 -0.4347 -0.1814
  811TIP3    H223925   6.351   6.635   5.610 -0.0604  0.3974 -0.4579
  812TIP3   OH223926   6.633   0.565   4.918 -0.5147  0.1377  0.2413
  812TIP3    H123927   6.585   0.592   4.839 -0.5861  3.1203  1.1723
  812TIP3    H223928   6.567   0.520   4.971 -0.4096 -2.1217 -1.4187
  813TIP3   OH223929   3.972   2.951   0.816  0.2538  0.2269 -0.1178
  813TIP3    H123930   3.881   2.929   0.837  0.8698  0.3115  3.0434
  813TIP3    H223931   4.001   2.881   0.758 -0.8214 -1.7967  1.6710
  814TIP3   OH223932   1.916   3.853   3.076  0.5104 -0.1724 -0.0727
  814TIP3    H123933   1.921   3.840   2.981  1.4091  1.2090 -0.2378
  814TIP3    H223934   1.826   3.882   3.091  0.0740 -1.3341 -0.3643
  815TIP3   OH223935   0.655   1.368   4.979 -0.3117  0.0025 -0.3188
  815TIP3    H123936   0.675   1.431   4.910  2.2659 -0.3295  0.0085
  815TIP3    H223937   0.725   1.380   5.043 -0.3977 -2.3798  0.3226
  816TIP3   OH223938   3.551   1.578   3.597  0.0924  0.5165  0.5569
  816TIP3    H123939   3.500   1.513   3.645  0.2770  0.9303  1.3232
  816TIP3    H223940   3.486   1.643   3.570 -0.1632 -0.1830 -0.5826
  817TIP3   OH223941   1.407   2.409  15.502 -1.0381 -0.1571 -0.2520
  817TIP3    H123942   1.384   2.359  15.580 -1.5606  0.7096  0.1606
  817TIP3    H223943   1.422   2.498  15.534 -1.5715  0.2837 -1.1792
  818TIP3   OH223944   5.059   1.604   2.586  0.0941 -0.0733 -0.3274
  818TIP3    H123945   5.068   1.514   2.554 -0.4046 -0.5360  0.8105
  818TIP3    H223946   5.109   1.656   2.523  1.3990 -1.2804 -0.3441
  819TIP3   OH223947   0.527   1.674  15.456 -0.0763  0.1683 -0.1325
  819TIP3    H123948   0.469   1.700  15.385 -0.3756 -1.9467 -0.7368
  819TIP3    H223949   0.504   1.583  15.473  1.5080 -0.0242  1.1828
  820TIP3   OH223950   1.444   5.267   0.444  0.5143  0.2303  0.2984
  820TIP3    H123951   1.503   5.254   0.518 -1.0072 -0.0140  1.5223
  820TIP3    H223952   1.390   5.342   0.469  1.7182  1.9109 -1.7803
  821TIP3   OH223953   0.110   1.410  16.950  0.0835 -0.7165 -0.1047
  821TIP3    H123954   0.100   1.500  16.918 -0.5749 -1.5664 -2.4236
  821TIP3    H223955   0.020   1.379  16.963  0.3106 -0.9485  1.0949
  822TIP3   OH223956   3.842   4.619  14.880  0.1353 -0.3675  0.5027
  822TIP3    H123957   3.822   4.607  14.787 -0.8193 -2.4199  0.9157
  822TIP3    H223958   3.818   4.536  14.921 -1.6804  1.2088  2.9635
  823TIP3   OH223959   4.221   2.415   4.760  0.1150 -0.9306 -0.2314
  823TIP3    H123960   4.231   2.341   4.700  1.4474 -0.2272 -0.9016
  823TIP3    H223961   4.209   2.491   4.704 -2.8816 -0.7742  0.4486
  824TIP3   OH223962   4.530   0.956  10.841  0.5448 -0.3461  0.0472
  824TIP3    H123963   4.436   0.940  10.841  0.6558 -1.0630  0.7320
  824TIP3    H223964   4.569   0.871  10.819  1.0270 -0.0057 -0.4369
  825TIP3   OH223965   0.407   3.816  13.233 -0.4890 -0.2767  0.3240
  825TIP3    H123966   0.336   3.799  13.172  0.9496  3.6060 -2.8288
  825TIP3    H223967   0.486   3.785  13.188  0.4275  0.8614  1.0920
  826TIP3   OH223968   6.219   5.716  14.167 -0.4302  0.5653  0.4510
  826TIP3    H123969   6.215   5.800  14.212  3.7014  0.1184  2.1156
  826TIP3    H223970   6.216   5.651  14.237  0.4118 -0.4419 -0.4152
  827TIP3   OH223971   3.767   1.125  14.955 -0.4479 -0.1874 -0.5683
  827TIP3    H123972   3.732   1.131  15.044  0.8244 -2.6037  0.1857
  827TIP3    H223973   3.853   1.085  14.966 -0.9539 -2.2244 -2.9826
  828TIP3   OH223974   1.573   1.034  15.289  0.5714 -0.4248 -0.1644
  828TIP3    H123975   1.658   1.065  15.320  1.4393 -0.1786 -2.5375
  828TIP3    H223976   1.566   0.945  15.323  2.0055 -0.6138 -0.2907
  829TIP3   OH223977   0.992   6.652  13.154  0.1666 -0.2623  0.2692
  829TIP3    H123978   0.953   6.717  13.212  0.7796  1.7861 -1.4738
  829TIP3    H223979   1.079   6.637  13.190 -0.1448 -0.4923  0.9432
  830TIP3   OH223980   2.513   6.611  15.005 -0.2285  0.2295 -0.1961
  830TIP3    H123981   2.550   6.682  15.057 -0.5685  1.4885 -1.6047
  830TIP3    H223982   2.488   6.652  14.923 -1.4334 -1.3166 -0.6515
  831TIP3   OH223983   2.639   0.743   4.359 -0.5745  0.1302 -0.4467
  831TIP3    H123984   2.656   0.685   4.433  0.6919 -0.4968 -1.2052
  831TIP3    H223985   2.592   0.688   4.296 -1.6508  0.6635 -0.1487
  832TIP3   OH223986   6.353   2.955   3.390  0.1703  0.8159 -0.8642
  832TIP3    H123987   6.263   2.981   3.411  0.3357  1.8049 -1.2907
  832TIP3    H223988   6.398   3.038   3.372  1.4213  0.4298  0.2990
  833TIP3   OH223989   5.794   1.255  14.347 -0.2377 -0.6304 -0.3294
  833TIP3    H123990   5.714   1.294  14.383 -1.9033 -2.7026 -1.5786
  833TIP3    H223991   5.794   1.280  14.255  1.0504  0.0031 -0.1924
  834TIP3   OH223992   5.748   6.045   2.206 -0.1216 -0.1923  0.3428
  834TIP3    H123993   5.752   6.135   2.174  0.6036 -0.6788 -1.0620
  834TIP3    H223994   5.746   6.053   2.301  1.0205  1.2830  0.2799
  835TIP3   OH223995   0.014   4.091   1.519  0.3233 -0.0657  0.0542
  835TIP3    H123996   0.015   4.010   1.468 -2.3064 -0.5384  0.6216
  835TIP3    H223997   0.030   4.062   1.609  2.4469  0.4716 -0.1028
  836TIP3   OH223998   5.617   1.031   3.696 -0.4436  0.2694 -0.0676
  836TIP3    H123999   5.666   1.080   3.763  1.8484 -0.6886 -0.9352
  836TIP3    H224000   5.609   1.093   3.623  0.1691  0.2149 -0.1925
  837TIP3   OH224001   5.063   6.324  16.260 -0.3441  0.4029  0.0537
  837TIP3    H124002   5.064   6.309  16.354 -0.6154 -1.0204 -0.1521
  837TIP3    H224003   5.147   6.366  16.241 -1.0655  2.5042  1.1689
  838TIP3   OH224004   5.506   1.175   2.091 -0.1973 -0.0865 -0.5144
  838TIP3    H124005   5.550   1.097   2.058 -0.2131 -0.8541  1.1518
  838TIP3    H224006   5.429   1.142   2.137 -0.0551  0.8587  0.4604
  839TIP3   OH224007   6.670   0.801   5.288  0.3236 -0.1412  0.0803
  839TIP3    H124008   6.757   0.794   5.328  0.5622 -0.7955 -0.5257
  839TIP3    H224009   6.688   0.819   5.196 -0.0985 -2.4638 -0.5232
  840TIP3   OH224010   1.849   6.672  14.215 -0.7366 -0.5600 -0.6045
  840TIP3    H124011   1.804   6.751  14.186  1.1211  0.8484  0.1071
  840TIP3    H224012   1.850   6.678  14.311  2.4845  0.5061 -0.5767
  841TIP3   OH224013   3.041   2.958  12.326  0.1081 -0.1390  0.1438
  841TIP3    H124014   3.102   2.989  12.393 -0.2427 -1.7534  1.2514
  841TIP3    H224015   2.996   3.038  12.296  0.3677  0.6300  1.7265
  842TIP3   OH224016   5.570   5.898  13.087 -0.3842 -0.8013  0.0871
  842TIP3    H124017   5.481   5.934  13.085 -0.1649 -0.2412 -0.0907
  842TIP3    H224018   5.621   5.961  13.036  0.0484 -1.2985 -0.0987
  843TIP3   OH224019   2.445   0.704  12.027 -0.0062 -0.0456  0.1579
  843TIP3    H124020   2.447   0.800  12.031  0.4647 -0.1069  1.9771
  843TIP3    H224021   2.380   0.685  11.959  0.3723  1.5470 -0.7112
  844TIP3   OH224022   1.013   5.948  11.112  0.8266  0.0244  0.0659
  844TIP3    H124023   1.071   5.997  11.171  3.5726 -2.6878 -0.1504
  844TIP3    H224024   1.045   5.970  11.025 -1.2779  1.6826 -0.3642
  845TIP3   OH224025   4.738   0.708  14.850 -0.5437  0.3476  0.4119
  845TIP3    H124026   4.737   0.686  14.944  2.2896  1.3281  0.7703
  845TIP3    H224027   4.703   0.797  14.846 -0.3755  0.4263  0.6135
  846TIP3   OH224028   2.401   0.412   4.484 -0.2884 -0.6557  0.5122
  846TIP3    H124029   2.398   0.492   4.537  0.1288 -0.6619  0.5478
  846TIP3    H224030   2.380   0.442   4.395  1.6136 -0.1881  0.1770
  847TIP3   OH224031   6.615   6.000   4.281 -0.0598  0.0336 -0.1134
  847TIP3    H124032   6.702   5.962   4.269 -0.1767 -0.1949 -0.2349
  847TIP3    H224033   6.564   5.969   4.206 -1.2852 -2.7981  1.7256
  848TIP3   OH224034   1.505   5.751   6.109 -0.1739 -0.2001  0.2970
  848TIP3    H124035   1.465   5.823   6.061 -1.8670 -1.2017  0.1203
  848TIP3    H224036   1.529   5.687   6.042 -1.9647 -1.3227  0.6680
  849TIP3   OH224037   1.592   4.236   1.386 -0.0867  0.3146 -0.2545
  849TIP3    H124038   1.676   4.252   1.430 -0.0930  0.9506 -0.4653
  849TIP3    H224039   1.557   4.324   1.368 -0.4132  0.0614 -0.8991
  850TIP3   OH224040   6.645   6.741  14.999  0.0730  0.0895  0.1230
  850TIP3    H124041   6.685   6.738  15.086  1.2931 -2.0352 -0.4347
  850TIP3    H224042   6.681   6.820  14.959 -0.8251  1.3260  1.6324
  851TIP3   OH224043   6.497   5.840   5.828 -0.4178 -0.1353 -0.1755
  851TIP3    H124044   6.457   5.843   5.915 -0.1949  0.3193 -0.0816
  851TIP3    H224045   6.457   5.765   5.785 -0.5354 -0.3619  0.3199
  852TIP3   OH224046   4.580   2.750   0.286 -0.5727  0.4154 -0.7626
  852TIP3    H124047   4.616   2.662   0.301 -2.6008 -0.3527 -0.1470
  852TIP3    H224048   4.565   2.753   0.191 -1.0841 -0.1588 -0.7087
  853TIP3   OH224049   3.749   2.495  12.681  0.1690  0.7976  0.1245
  853TIP3    H124050   3.809   2.568  12.665  0.4368  0.2265 -1.7409
  853TIP3    H224051   3.665   2.523  12.644  0.3954  0.0167 -1.0485
  854TIP3   OH224052   1.907   2.333  17.106  0.2712 -0.2873 -0.0320
  854TIP3    H124053   1.838   2.380  17.059 -0.0370 -1.5102 -0.8488
  854TIP3    H224054   1.922   2.385  17.185 -1.0125  0.4344 -0.2372
  855TIP3   OH224055   0.165   1.859   3.948  0.3691  0.0602 -0.0657
  855TIP3    H124056   0.080   1.898   3.929  0.8616  1.4641  0.5232
  855TIP3    H224057   0.163   1.776   3.901 -0.8834  0.5730 -0.9922
  856TIP3   OH224058   1.028   4.397  13.761 -0.2576  0.3481  0.3516
  856TIP3    H124059   1.065   4.434  13.841  1.1426  0.8657 -0.4992
  856TIP3    H224060   0.972   4.325  13.792 -0.4897  1.1236  1.8335
  857TIP3   OH224061   0.891   6.278   6.272  0.5698 -0.6390  0.2949
  857TIP3    H124062   0.831   6.279   6.348 -0.1252  0.4381 -0.2445
  857TIP3    H224063   0.902   6.185   6.252  1.9047 -1.0494  2.5695
  858TIP3   OH224064   2.526   6.301   4.550  0.1594  0.2472  0.3627
  858TIP3    H124065   2.605   6.338   4.511 -0.4168  0.4073 -0.7020
  858TIP3    H224066   2.472   6.378   4.571 -0.0175  0.1143  0.3961
  859TIP3   OH224067   2.558   0.980  16.363 -0.0825 -0.0073  0.1993
  859TIP3    H124068   2.524   0.937  16.284  1.1344  0.1407 -0.4265
  859TIP3    H224069   2.573   1.071  16.336  0.1652  0.0870  0.6571
  860TIP3   OH224070   3.850   5.040  13.589  0.4776  0.3401 -0.4485
  860TIP3    H124071   3.914   5.014  13.655  0.1395  0.7465  0.0481
  860TIP3    H224072   3.766   5.006  13.622  0.0488  1.8707  0.1354
  861TIP3   OH224073   5.321   6.640   0.159 -0.7021  0.5518  0.4731
  861TIP3    H124074   5.285   6.601   0.239  0.4038 -2.3368 -0.2938
  861TIP3    H224075   5.390   6.579   0.132 -2.5175  0.0919 -3.9115
  862TIP3   OH224076   3.566   2.444   5.205 -0.3866  0.2571 -0.0635
  862TIP3    H124077   3.615   2.464   5.285 -0.7770  1.4422 -0.0975
  862TIP3    H224078   3.586   2.352   5.187 -1.4744 -0.5016  2.2318
  863TIP3   OH224079   2.055   1.252   3.312 -0.0532  0.3121  0.1580
  863TIP3    H124080   2.008   1.323   3.356  0.9129  1.6144 -0.8127
  863TIP3    H224081   1.987   1.206   3.263 -0.5270  1.4329 -0.2906
  864TIP3   OH224082   6.683   5.591  11.132  0.6798  0.2044  0.3474
  864TIP3    H124083   6.674   5.539  11.053  2.7096 -1.1585  0.9311
  864TIP3    H224084   6.597   5.585  11.175  0.8887 -2.9493  0.5180
  865TIP3   OH224085   3.374   4.606  12.292  0.0507  0.1704 -0.6416
  865TIP3    H124086   3.375   4.587  12.198 -0.5833  2.7684 -1.2596
  865TIP3    H224087   3.301   4.554  12.326 -1.9054  1.6543 -2.2902
  866TIP3   OH224088   0.453   2.363   2.565  0.8423 -0.4670 -0.3327
  866TIP3    H124089   0.506   2.283   2.564  1.0820 -0.3241 -1.7843
  866TIP3    H224090   0.475   2.407   2.483 -0.6946  0.1608 -0.4426
  867TIP3   OH224091   0.543   2.595   2.002 -0.2655 -0.2648  0.6900
  867TIP3    H124092   0.454   2.580   2.031 -0.0895  0.7688  1.8138
  867TIP3    H224093   0.585   2.508   2.007 -0.6268 -0.3762  2.2049
  868TIP3   OH224094   5.228   1.549   6.042 -0.0869 -0.5041  0.3789
  868TIP3    H124095   5.221   1.456   6.020  1.0759 -0.6356  0.4957
  868TIP3    H224096   5.293   1.552   6.112 -0.1125  0.3937  0.3750
  869TIP3   OH224097   1.068   0.089   3.766  0.0887  0.1663  0.5809
  869TIP3    H124098   1.097   0.178   3.743  0.8794  0.2097  1.6497
  869TIP3    H224099   1.149   0.042   3.784 -0.3117 -0.8787 -0.2861
  870TIP3   OH224100   3.191   3.452  15.908 -0.5978 -0.1914 -0.1273
  870TIP3    H124101   3.141   3.531  15.930 -1.3147 -0.4052 -0.9376
  870TIP3    H224102   3.162   3.387  15.972  1.8020  0.8089  2.1733
  871TIP3   OH224103   6.296   0.968  11.148  0.1414  0.2428  0.2358
  871TIP3    H124104   6.302   1.043  11.208  0.4233 -0.2305  0.8157
  871TIP3    H224105   6.220   0.919  11.179 -1.1290  1.1948 -1.2314
  872TIP3   OH224106   2.136   3.178   0.179  0.1936 -0.2792 -0.2019
  872TIP3    H124107   2.146   3.182   0.084 -0.1640 -0.0268 -0.2283
  872TIP3    H224108   2.179   3.258   0.211  0.6997 -0.5803 -0.1182
  873TIP3   OH224109   2.967   1.777   2.052  0.2767  0.6376  0.3517
  873TIP3    H124110   3.055   1.806   2.028  0.2920  0.7691  0.5647
  873TIP3    H224111   2.977   1.685   2.075  0.1388  0.3003 -0.8385
  874TIP3   OH224112   3.967   1.825  14.977  0.3726 -0.2660  0.3846
  874TIP3    H124113   4.007   1.899  15.023  0.6808 -0.1945  0.0095
  874TIP3    H224114   3.873   1.837  14.988  0.2970  1.4250 -1.5643
  875TIP3   OH224115   4.243   3.733  11.554 -0.6605 -0.0997 -0.0024
  875TIP3    H124116   4.280   3.649  11.581  1.0081  0.8965  0.9808
  875TIP3    H224117   4.236   3.784  11.634 -0.5419  1.0997 -0.7247
  876TIP3   OH224118   1.536   5.362   2.877 -0.1230 -0.4481 -0.7184
  876TIP3    H124119   1.484   5.281   2.871 -0.5641 -0.1203 -1.5321
  876TIP3    H224120   1.506   5.404   2.957  0.6510 -1.4498  0.1257
  877TIP3   OH224121   4.956   0.693   1.466  0.4836 -1.2167  0.0178
  877TIP3    H124122   5.015   0.747   1.414 -0.9963 -0.3758 -0.8446
  877TIP3    H224123   4.932   0.747   1.541 -0.8230 -0.6990 -0.7316
  878TIP3   OH224124   2.490   3.541   1.996  0.4457 -0.2385  0.4109
  878TIP3    H124125   2.520   3.596   2.068 -1.4810 -0.8557  1.7673
  878TIP3    H224126   2.419   3.489   2.034 -2.8695  1.6263 -2.6873
  879TIP3   OH224127   3.975   4.425  16.077 -0.0404  0.1730 -0.0137
  879TIP3    H124128   4.057   4.382  16.101  0.8199  0.8337 -1.6185
  879TIP3    H224129   3.921   4.356  16.039  0.6750  0.1518 -1.0265
  880TIP3   OH224130   2.825   0.503  11.065  0.6410 -0.1005  0.0904
  880TIP3    H124131   2.847   0.539  11.151  1.7585 -1.4760  0.4207
  880TIP3    H224132   2.896   0.533  11.008 -0.2580  1.0670 -0.4525
  881TIP3   OH224133   0.039   3.704  16.201  0.3241  0.6120  0.3125
  881TIP3    H124134   0.052   3.713  16.296 -0.4293 -1.3317  0.6449
  881TIP3    H224135  -0.024   3.773  16.179 -0.7194  0.1054  1.5441
  882TIP3   OH224136   6.094   1.763  11.869  0.1531 -0.0625 -0.6343
  882TIP3    H124137   6.091   1.667  11.865  1.7238 -0.1702  0.1312
  882TIP3    H224138   6.017   1.787  11.920 -0.1416 -0.9352 -0.6471
  883TIP3   OH224139   3.038   4.792   4.418 -0.2330  0.4245  0.4537
  883TIP3    H124140   3.030   4.853   4.345  0.2413  2.1258  1.7613
  883TIP3    H224141   2.999   4.838   4.493 -0.2634 -1.0632  1.3920
  884TIP3   OH224142   6.486   1.589  14.217 -0.2951  0.3693 -0.8845
  884TIP3    H124143   6.477   1.551  14.304 -2.0732 -0.4595 -1.3842
  884TIP3    H224144   6.475   1.683  14.231 -2.5613  0.0999 -0.3760
  885TIP3   OH224145   1.435   1.070   3.683  0.2845  0.4884  0.3047
  885TIP3    H124146   1.471   1.152   3.718  0.1757  0.7948 -0.2790
  885TIP3    H224147   1.374   1.041   3.751  0.9746  0.4186  0.9104
  886TIP3   OH224148   5.419   2.577   2.804 -0.5113  0.4302  0.3599
  886TIP3    H124149   5.466   2.646   2.851  0.3935 -0.3905  0.7004
  886TIP3    H224150   5.487   2.520   2.770 -1.2485 -0.5366  0.4505
  887TIP3   OH224151   6.602   6.582   1.699  0.2360 -0.3193 -0.4663
  887TIP3    H124152   6.595   6.488   1.713  1.3136 -0.6400 -1.7635
  887TIP3    H224153   6.674   6.591   1.636 -0.5927  1.2850 -1.2539
  888TIP3   OH224154   6.163   1.396  11.182  0.2927 -0.3423  0.3605
  888TIP3    H124155   6.090   1.340  11.158  1.0083 -0.4801 -1.7275
  888TIP3    H224156   6.131   1.485  11.165 -0.2510 -0.1974  1.9994
  889TIP3   OH224157   1.494   2.437  12.226 -0.5624 -0.0658 -0.7038
  889TIP3    H124158   1.414   2.462  12.180  0.4526  3.1481 -1.0175
  889TIP3    H224159   1.494   2.491  12.305  0.9265 -0.5133 -0.3587
  890TIP3   OH224160   0.200   6.641  13.922 -0.1668  0.1520  0.0238
  890TIP3    H124161   0.164   6.593  13.848 -0.5663  0.7357 -0.1668
  890TIP3    H224162   0.173   6.591  13.999 -0.8809  0.2540 -0.1544
  891TIP3   OH224163   2.829   2.682   3.210 -0.2421  0.5773 -0.6142
  891TIP3    H124164   2.918   2.668   3.243 -0.1431  0.3166 -0.9797
  891TIP3    H224165   2.832   2.770   3.172 -0.6086  1.2626  0.8560
  892TIP3   OH224166   5.912   0.581   2.131 -0.1660  0.0146  0.4581
  892TIP3    H124167   5.821   0.581   2.099 -0.9596  1.6730  2.4825
  892TIP3    H224168   5.915   0.507   2.193 -0.3944  0.4215  0.9672
  893TIP3   OH224169   6.086   6.776   4.929 -0.3602  0.0061 -0.7163
  893TIP3    H124170   6.145   6.757   4.856  3.1426  0.9641  1.6001
  893TIP3    H224171   6.096   6.702   4.988 -2.1403 -0.1468 -0.5453
  894TIP3   OH224172   5.869   3.992  15.577  0.2361 -0.1727 -0.0423
  894TIP3    H124173   5.861   4.061  15.511  0.1135  0.0887  0.2426
  894TIP3    H224174   5.860   3.911  15.527 -1.0685  0.0359 -0.2040
  895TIP3   OH224175   2.747   4.810  15.971  0.7552 -0.1897 -0.0429
  895TIP3    H124176   2.708   4.723  15.966  0.3444 -0.0774  0.8401
  895TIP3    H224177   2.815   4.801  16.038  2.8437 -0.5776 -2.1001
  896TIP3   OH224178   2.449   1.593  16.994 -0.6357  0.3226  0.5859
  896TIP3    H124179   2.472   1.516  16.942 -1.4509  0.9101 -0.6828
  896TIP3    H224180   2.356   1.606  16.978 -0.4798  1.6616  0.6716
  897TIP3   OH224181   0.643   4.687   4.662 -0.3503 -0.2198 -0.0750
  897TIP3    H124182   0.713   4.655   4.719 -1.0306 -0.6545  0.5334
  897TIP3    H224183   0.610   4.765   4.706 -0.6416 -0.3563 -0.0467
  898TIP3   OH224184   4.100   0.361   5.533 -0.0704  0.2131  0.7733
  898TIP3    H124185   4.089   0.423   5.461 -0.8102 -0.9477 -0.1465
  898TIP3    H224186   4.060   0.404   5.608  1.1083  1.6346  0.6366
  899TIP3   OH224187   5.800   3.716   5.880  0.0092 -0.1829  0.0695
  899TIP3    H124188   5.862   3.788   5.887 -1.5181  1.8119 -3.8875
  899TIP3    H224189   5.845   3.650   5.828  0.1921 -0.6130  0.7535
  900TIP3   OH224190   6.580   6.576  14.173 -0.6034 -0.4033  0.5149
  900TIP3    H124191   6.575   6.631  14.095 -2.4952  0.1622  0.9606
  900TIP3    H224192   6.606   6.490  14.141 -0.5710  0.0125 -0.6240
  901TIP3   OH224193   0.118   4.032   3.086  0.3370 -0.4049 -0.0461
  901TIP3    H124194   0.135   4.050   2.994 -1.0378  0.5652 -0.1461
  901TIP3    H224195   0.202   4.046   3.130  1.3382 -2.1293 -1.2732
  902TIP3   OH224196   0.033   5.439   4.395  0.2742  0.2872 -0.3415
  902TIP3    H124197   0.055   5.471   4.308  1.3949  1.7532  0.4353
  902TIP3    H224198   0.115   5.445   4.444 -0.7328  1.2291  1.3104
  903TIP3   OH224199   6.362   0.905   4.617 -0.4987 -0.3791 -0.8177
  903TIP3    H124200   6.376   0.999   4.618 -1.5723 -0.1903 -1.5742
  903TIP3    H224201   6.314   0.888   4.536  0.1689 -1.6580 -0.9777
  904TIP3   OH224202   1.165   2.148   1.055 -0.0676 -0.9307 -0.7457
  904TIP3    H124203   1.201   2.099   0.981  1.9196  0.5524 -0.8515
  904TIP3    H224204   1.165   2.240   1.026 -2.2797 -0.6237 -0.0274
  905TIP3   OH224205   1.583   6.007  14.545 -0.2378 -0.4425  0.2613
  905TIP3    H124206   1.506   6.016  14.601 -0.7511  0.9316 -0.6088
  905TIP3    H224207   1.603   6.096  14.517 -1.0729 -1.1817 -3.1057
  906TIP3   OH224208   1.905   0.984  16.839  0.2394  0.2658 -0.0700
  906TIP3    H124209   1.967   1.040  16.887 -0.3962  0.3812  0.6185
  906TIP3    H224210   1.919   0.896  16.875  1.0884 -0.0007 -1.0054
  907TIP3   OH224211   2.828   4.364  15.722 -0.3439 -0.4941 -0.0635
  907TIP3    H124212   2.864   4.316  15.797  1.2077  0.5082 -0.1052
  907TIP3    H224213   2.798   4.297  15.662 -2.5855 -1.3439  1.8291
  908TIP3   OH224214   4.550   6.554  16.336 -0.1435  0.2207  0.9028
  908TIP3    H124215   4.515   6.468  16.312 -0.7748 -0.1959  3.0792
  908TIP3    H224216   4.553   6.553  16.431  1.8685  1.8576  0.9182
  909TIP3   OH224217   5.327   0.294   1.857  0.4151  0.3044 -0.4099
  909TIP3    H124218   5.380   0.301   1.778 -0.0556  0.2171 -0.7389
  909TIP3    H224219   5.237   0.285   1.825  0.2244  0.2223  0.1327
  910TIP3   OH224220   4.736   6.578  12.693  0.0825 -0.0038  0.5440
  910TIP3    H124221   4.653   6.615  12.662  0.5144 -0.2860 -1.0627
  910TIP3    H224222   4.800   6.647  12.677  0.6209 -0.8018 -0.9872
  911TIP3   OH224223   1.899   2.787   0.815 -0.3833 -0.4752 -0.0098
  911TIP3    H124224   1.844   2.791   0.893  0.0252  1.2029  0.2205
  911TIP3    H224225   1.977   2.739   0.843 -0.5021 -0.4107  0.4385
  912TIP3   OH224226   2.564   0.808  16.108 -0.4028  0.1616  0.2711
  912TIP3    H124227   2.564   0.852  16.023  0.6674  0.4099  0.3850
  912TIP3    H224228   2.652   0.772  16.117 -0.5084  0.1097  1.2556
  913TIP3   OH224229   4.671   1.515  15.197 -0.1805  0.3283  0.0541
  913TIP3    H124230   4.670   1.526  15.102  1.4457 -0.0030 -0.0407
  913TIP3    H224231   4.646   1.600  15.232 -3.0070 -0.1114 -0.6193
  914TIP3   OH224232   5.715   5.360   0.361  0.4750 -0.5319 -0.6297
  914TIP3    H124233   5.737   5.426   0.426 -1.6005 -0.6815  0.2800
  914TIP3    H224234   5.790   5.361   0.300  2.3465 -0.2038  1.5511
  915TIP3   OH224235   5.784   3.389  12.014  0.1302 -0.4618  0.3654
  915TIP3    H124236   5.727   3.317  11.986 -1.6791  0.3027  1.8699
  915TIP3    H224237   5.785   3.450  11.939 -2.1374  0.1206  0.7435
  916TIP3   OH224238   2.820   4.769   4.160 -0.0739  0.6688 -0.2123
  916TIP3    H124239   2.846   4.713   4.234  0.0038 -0.0716 -0.7845
  916TIP3    H224240   2.814   4.709   4.086  1.1211  1.6037 -1.1043
  917TIP3   OH224241   0.067   0.328   1.574  0.3936 -0.2239  0.5424
  917TIP3    H124242   0.045   0.339   1.667 -2.3147 -0.1276 -0.0081
  917TIP3    H224243   0.112   0.244   1.570  0.8443 -0.0808  1.9750
  918TIP3   OH224244   6.195   3.456  14.384  0.3093 -0.1087  0.8931
  918TIP3    H124245   6.239   3.492  14.461 -0.3201  1.2360  0.6524
  918TIP3    H224246   6.227   3.366  14.377  2.1255  0.4673  1.3963
  919TIP3   OH224247   3.326   6.707   3.501  0.4072 -0.4680  0.3414
  919TIP3    H124248   3.341   6.613   3.488 -1.7572 -0.7766 -0.3370
  919TIP3    H224249   3.414   6.744   3.509  1.3104 -2.6381  1.4558
  920TIP3   OH224250   4.569   3.231  12.535 -0.7820  0.0376  0.4116
  920TIP3    H124251   4.518   3.255  12.613 -1.7828  0.6879 -0.4133
  920TIP3    H224252   4.509   3.178  12.484 -0.7052  0.9570 -0.6650
  921TIP3   OH224253   2.428   2.669  11.454  0.5410  0.1827  0.5437
  921TIP3    H124254   2.454   2.700  11.367 -0.4979  1.2964  0.6070
  921TIP3    H224255   2.466   2.732  11.515  1.5987 -0.8186  0.9337
  922TIP3   OH224256   5.781   5.956  16.886 -0.0392  0.0274  0.6021
  922TIP3    H124257   5.826   5.891  16.832  0.1149 -0.9909  1.9106
  922TIP3    H224258   5.781   6.036  16.833  0.5408 -0.8024 -0.6822
  923TIP3   OH224259   6.825   2.638  11.747  0.0700  0.5778  0.5669
  923TIP3    H124260   6.761   2.655  11.677 -0.3397  0.3802  0.8837
  923TIP3    H224261   6.810   2.546  11.771 -0.6634  0.9829  1.7660
  924TIP3   OH224262   3.126   4.908  14.433 -0.3403  0.3768 -0.3477
  924TIP3    H124263   3.177   4.957  14.497 -0.7903  0.9187 -0.4008
  924TIP3    H224264   3.186   4.897  14.359  0.4354 -0.8940  0.4257
  925TIP3   OH224265   2.398   6.564   3.148  0.4447 -0.0946  0.3246
  925TIP3    H124266   2.382   6.512   3.069 -0.6418  0.2433  0.3003
  925TIP3    H224267   2.346   6.521   3.216  0.8330  0.0166  0.6934
  926TIP3   OH224268   1.439   4.894   1.638 -0.1326 -0.6518  0.1988
  926TIP3    H124269   1.483   4.868   1.719 -0.9685 -0.4744  0.7282
  926TIP3    H224270   1.352   4.922   1.666 -0.7584 -1.4445 -0.8675
  927TIP3   OH224271   2.159   5.716  14.513 -0.0338 -0.2849 -0.0464
  927TIP3    H124272   2.222   5.746  14.448 -0.4234  0.6052 -0.0299
  927TIP3    H224273   2.096   5.664  14.464 -0.0919  0.0337 -0.3090
  928TIP3   OH224274   0.644   1.356   0.883 -0.0229 -0.2737 -0.1302
  928TIP3    H124275   0.700   1.351   0.805 -0.9560 -0.0264 -0.8484
  928TIP3    H224276   0.596   1.274   0.883  1.0746 -0.9431  1.0859
  929TIP3   OH224277   1.521   1.912   3.007 -0.7834 -0.2288  0.3077
  929TIP3    H124278   1.435   1.881   2.979  0.0463 -1.9973 -0.4158
  929TIP3    H224279   1.546   1.853   3.078  0.3507 -0.5187 -0.3134
  930TIP3   OH224280   1.843   5.441   1.509 -0.2905 -0.1070  0.4537
  930TIP3    H124281   1.777   5.428   1.442 -1.3460  0.1636  1.4223
  930TIP3    H224282   1.860   5.354   1.544 -1.7294  0.0675  1.6675
  931TIP3   OH224283   0.123   3.626  16.532  0.4884 -0.3261  0.3318
  931TIP3    H124284   0.164   3.686  16.593 -0.9569 -0.9591  1.9929
  931TIP3    H224285   0.153   3.539  16.559 -0.0465 -0.6059  0.0491
  932TIP3   OH224286   6.105   5.097   5.796  0.3677 -0.0261  0.0648
  932TIP3    H124287   6.193   5.135   5.797 -0.0816  1.0444  0.3267
  932TIP3    H224288   6.094   5.064   5.707  1.1712 -0.5311  0.1376
  933TIP3   OH224289   2.873   1.338  16.092  0.6167 -0.7522 -0.0844
  933TIP3    H124290   2.882   1.415  16.148  2.5793 -1.6243  0.9026
  933TIP3    H224291   2.849   1.373  16.006  1.6663  0.9728  0.2819
  934TIP3   OH224292   1.796   0.239  17.105  0.3933 -0.4062  0.9782
  934TIP3    H124293   1.880   0.193  17.105  0.4275 -0.3746 -0.2347
  934TIP3    H224294   1.730   0.170  17.112  0.4820 -0.5463  0.4589
  935TIP3   OH224295   3.555   4.468   1.482  0.3798  0.2091 -0.1432
  935TIP3    H124296   3.634   4.415   1.480 -0.0272 -0.5728  1.9107
  935TIP3    H224297   3.585   4.556   1.501  0.7095 -0.5105  3.3606
  936TIP3   OH224298   3.569   5.216   2.805 -0.3612 -0.4054 -0.1882
  936TIP3    H124299   3.662   5.227   2.827 -0.4172 -2.3951  1.3720
  936TIP3    H224300   3.528   5.297   2.834  0.4068 -0.8914  2.6739
  937TIP3   OH224301   5.746   1.686   0.243  0.4710 -0.1045 -1.2275
  937TIP3    H124302   5.717   1.772   0.213  1.8435 -0.0836 -2.6143
  937TIP3    H224303   5.820   1.664   0.186  2.2000 -0.7950  1.1397
  938TIP3   OH224304   5.580   1.474   4.312 -0.1506 -0.4621 -0.1420
  938TIP3    H124305   5.536   1.488   4.228 -1.5942 -0.9639  0.5013
  938TIP3    H224306   5.561   1.554   4.362 -0.9668 -0.9828  0.3967
  939TIP3   OH224307   2.335   2.473   0.850 -0.2808 -0.1147  0.6803
  939TIP3    H124308   2.363   2.559   0.882  3.0689 -0.6060 -0.5836
  939TIP3    H224309   2.304   2.490   0.760  2.5884 -0.4041 -0.4663
  940TIP3   OH224310   5.995   2.761   1.731  0.1474 -0.5633  1.0881
  940TIP3    H124311   6.017   2.673   1.699  2.1466 -0.0795  1.0167
  940TIP3    H224312   6.078   2.796   1.763 -0.5726  1.3968  0.9158
  941TIP3   OH224313   4.669   1.968  13.147 -0.5139  0.0665  0.3788
  941TIP3    H124314   4.702   1.998  13.232  0.0950 -0.4211  0.3234
  941TIP3    H224315   4.711   2.024  13.083 -0.6638  0.1718  0.3714
  942TIP3   OH224316   4.146   4.245   0.748  0.0735 -0.1708 -0.3448
  942TIP3    H124317   4.195   4.268   0.826  0.0533  2.0551 -0.9300
  942TIP3    H224318   4.210   4.247   0.677  0.2069 -2.6709 -0.3998
  943TIP3   OH224319   2.310   1.773  10.468  0.9872 -0.2679  0.0698
  943TIP3    H124320   2.350   1.859  10.460 -0.6778  0.5577  0.1801
  943TIP3    H224321   2.276   1.771  10.557 -1.7614  0.2753 -0.8770
  944TIP3   OH224322   5.791   2.291  12.889 -0.3207 -0.1104 -0.3709
  944TIP3    H124323   5.703   2.325  12.901 -0.9678 -1.5472 -0.8209
  944TIP3    H224324   5.831   2.295  12.976 -1.4727 -1.1704  0.2259
  945TIP3   OH224325   5.517   1.333   0.319 -0.1777 -0.8472 -0.0507
  945TIP3    H124326   5.536   1.313   0.411  0.5957 -0.8627 -0.1998
  945TIP3    H224327   5.602   1.324   0.275 -0.6481 -1.4512 -0.8754
  946TIP3   OH224328   3.461   1.958   3.536 -0.7168  0.0011  0.1791
  946TIP3    H124329   3.552   1.973   3.561 -1.2114  1.8041  1.1232
  946TIP3    H224330   3.465   1.929   3.445  0.7217  2.1830 -0.5274
  947TIP3   OH224331   4.799   4.597  13.297 -0.1841 -0.0369  0.3401
  947TIP3    H124332   4.839   4.672  13.342 -0.1219  0.6384 -0.7993
  947TIP3    H224333   4.871   4.558  13.247 -0.5982  0.2545 -0.5022
  948TIP3   OH224334   4.380   1.811  17.070  0.6393  0.5676  0.2498
  948TIP3    H124335   4.383   1.716  17.075  1.0568  0.6204  1.2855
  948TIP3    H224336   4.287   1.833  17.065  0.5507  0.1071 -0.1956
  949TIP3   OH224337   0.760   5.146  16.221  0.4550 -0.5512  0.2218
  949TIP3    H124338   0.855   5.146  16.206  0.3764  0.4930 -0.3770
  949TIP3    H224339   0.737   5.239  16.230 -0.5852 -0.7604 -0.1462
  950TIP3   OH224340   1.170   3.618   3.649  0.6153 -0.4531 -0.2299
  950TIP3    H124341   1.228   3.634   3.574  0.6727  2.2976  0.3104
  950TIP3    H224342   1.212   3.546   3.696  3.9993  1.7124  0.4306
  951TIP3   OH224343   0.283   1.789   3.322 -0.1853  0.1088  0.1708
  951TIP3    H124344   0.259   1.701   3.292  0.7503 -0.0621 -0.1035
  951TIP3    H224345   0.376   1.783   3.342 -0.9127 -0.0661  4.1815
  952TIP3   OH224346   3.606   0.797   2.614  0.2812 -0.4740 -0.3056
  952TIP3    H124347   3.512   0.778   2.620  0.3875 -0.6696  1.2193
  952TIP3    H224348   3.628   0.780   2.523 -0.9823 -1.3027 -0.4880
  953TIP3   OH224349   4.281   6.467  13.708  0.0741 -0.2631 -0.3658
  953TIP3    H124350   4.286   6.460  13.613  0.9060 -0.7593 -0.2918
  953TIP3    H224351   4.195   6.431  13.730  0.5937 -1.8189 -0.7861
  954TIP3   OH224352   4.394   6.499  14.489  0.1381  0.0249 -0.3427
  954TIP3    H124353   4.457   6.455  14.546 -1.8666 -1.7685  0.6205
  954TIP3    H224354   4.436   6.499  14.403  1.7346 -0.4473  0.3896
  955TIP3   OH224355   1.562   4.649  13.255 -0.6171  0.0570  0.4049
  955TIP3    H124356   1.651   4.613  13.251  0.1399  1.7548  0.8776
  955TIP3    H224357   1.542   4.654  13.349 -1.4382 -0.7754  0.2923
  956TIP3   OH224358   5.835   1.216  15.137 -0.2790  0.3663 -0.6663
  956TIP3    H124359   5.924   1.250  15.137  0.4923 -1.5203  0.0194
  956TIP3    H224360   5.825   1.173  15.051  0.1994 -1.0976 -0.0238
  957TIP3   OH224361   0.670   3.167   0.275  0.0321  0.0627  0.6984
  957TIP3    H124362   0.652   3.098   0.338 -0.2307  0.4954  1.1015
  957TIP3    H224363   0.701   3.241   0.327  0.0664  0.3373  0.2988
  958TIP3   OH224364   5.636   4.696   1.363  0.3221  0.4105  0.2606
  958TIP3    H124365   5.579   4.770   1.383 -0.7679 -0.1577 -0.6517
  958TIP3    H224366   5.713   4.735   1.321 -0.1511  1.0447 -0.0305
  959TIP3   OH224367   2.745   3.630   0.763 -0.4422  0.4818 -0.3824
  959TIP3    H124368   2.832   3.666   0.780 -0.0204  0.1361 -1.7238
  959TIP3    H224369   2.689   3.671   0.829  0.6121  1.1733  0.1133
  960TIP3   OH224370   5.138   5.121  15.392  0.6282 -0.2502  0.1274
  960TIP3    H124371   5.045   5.098  15.395  0.4876  0.1690 -0.7293
  960TIP3    H224372   5.152   5.175  15.470 -0.0227  0.2853 -0.1164
  961TIP3   OH224373   2.109   6.305  15.981 -0.1588 -0.3471  0.8405
  961TIP3    H124374   2.117   6.287  15.887 -0.5904 -1.4913  1.0148
  961TIP3    H224375   2.184   6.362  16.001  0.3115 -0.6326 -0.0532
  962TIP3   OH224376   4.457   0.355  11.210  0.8459  0.5068 -0.2321
  962TIP3    H124377   4.525   0.291  11.189  1.0735  0.8473 -0.5277
  962TIP3    H224378   4.489   0.400  11.288  2.2237  2.4965 -1.8709
  963TIP3   OH224379   2.102   4.051   4.436 -0.2032  0.3754 -0.0534
  963TIP3    H124380   2.080   4.116   4.370  0.6653 -0.5210 -1.2677
  963TIP3    H224381   2.056   3.972   4.409  0.0996  0.0179  0.4573
  964TIP3   OH224382   6.038   5.550   5.323  0.6714  0.4049  0.3600
  964TIP3    H124383   6.054   5.475   5.265  2.3073  0.3690  0.8176
  964TIP3    H224384   6.040   5.513   5.411 -0.2550  0.7168  0.5245
  965TIP3   OH224385   2.170   5.782   4.976  0.1999 -0.0375 -0.0088
  965TIP3    H124386   2.136   5.717   4.915  0.8030 -1.3737  1.0214
  965TIP3    H224387   2.109   5.778   5.051  2.4596 -2.5373  1.9083
  966TIP3   OH224388   2.366   2.713   3.511  0.2365 -0.1131 -0.2020
  966TIP3    H124389   2.377   2.758   3.594  3.1797 -0.2275 -0.4221
  966TIP3    H224390   2.344   2.783   3.449  1.5935  0.5878  0.0559
  967TIP3   OH224391   4.293   6.126   6.116 -0.1607 -0.1941  0.5509
  967TIP3    H124392   4.371   6.071   6.127  0.3149  0.2436 -0.3915
  967TIP3    H224393   4.308   6.201   6.174  0.4309  0.1892 -0.0791
  968TIP3   OH224394   3.112   6.303  15.051  0.7245 -0.0710  0.0454
  968TIP3    H124395   3.203   6.284  15.074  0.7105  0.5946  0.6646
  968TIP3    H224396   3.061   6.275  15.127  0.4456 -0.0909 -0.1467
  969TIP3   OH224397   5.465   6.479   2.573 -0.1937 -0.2227 -0.6137
  969TIP3    H124398   5.551   6.518   2.585 -0.2944  0.1191 -0.9847
  969TIP3    H224399   5.442   6.497   2.482 -1.1010  0.6098 -0.2427
  970TIP3   OH224400   5.887   2.005   4.624 -0.8199 -0.1857 -0.1415
  970TIP3    H124401   5.968   1.962   4.596 -0.6898 -1.3864  1.9223
  970TIP3    H224402   5.871   2.072   4.556  1.9894  0.2410 -0.5002
  971TIP3   OH224403   0.170   1.524   2.782 -0.1246  0.2784  0.2312
  971TIP3    H124404   0.137   1.556   2.698 -2.1794  0.5985  1.0943
  971TIP3    H224405   0.107   1.457   2.808 -0.4424  1.2697  2.2182
  972TIP3   OH224406   6.714   6.423  13.561  0.1572  0.5045 -0.3107
  972TIP3    H124407   6.698   6.329  13.562 -1.2092  0.7073 -1.0512
  972TIP3    H224408   6.780   6.436  13.493  1.2432 -0.0150  0.6019
  973TIP3   OH224409   4.677   5.485  14.376  0.2390  0.1909 -0.1390
  973TIP3    H124410   4.690   5.406  14.324 -1.2300  0.0785 -0.3841
  973TIP3    H224411   4.612   5.536  14.327  0.4860  1.1154  0.4772
  974TIP3   OH224412   2.312   3.074   2.967 -0.5661 -0.1734  0.3129
  974TIP3    H124413   2.297   2.981   2.983  0.9161 -0.5620 -0.3987
  974TIP3    H224414   2.331   3.111   3.054  3.1646 -1.4184  0.1769
  975TIP3   OH224415   3.844   5.980  13.893 -0.3705  0.5357 -0.1133
  975TIP3    H124416   3.799   6.046  13.841  0.1516  1.0807  0.1153
  975TIP3    H224417   3.847   6.017  13.981  1.0926  0.8009 -0.2612
  976TIP3   OH224418   3.044   6.109   4.986  0.3168 -0.3977 -0.3155
  976TIP3    H124419   3.056   6.021   4.950 -0.6384 -0.5295 -0.3296
  976TIP3    H224420   2.951   6.115   5.006  0.3055  0.7298 -0.6198
  977TIP3   OH224421   5.781   1.266  11.378 -0.0214  0.2176  0.6813
  977TIP3    H124422   5.749   1.348  11.416  0.4461  0.6712  0.1271
  977TIP3    H224423   5.737   1.261  11.293 -1.8582 -1.3002  1.6369
  978TIP3   OH224424   4.058   5.457  11.718  0.2730 -0.1403  0.6468
  978TIP3    H124425   4.102   5.488  11.797 -0.3231  2.6760  0.0119
  978TIP3    H224426   3.966   5.450  11.743 -0.0001  1.2669  0.1267
  979TIP3   OH224427   4.944   5.919  17.197 -0.1723 -0.1101  0.3432
  979TIP3    H124428   4.973   5.864  17.124 -1.2798  0.2821 -0.4213
  979TIP3    H224429   4.882   5.865  17.245 -0.0268 -0.0988  0.5449
  980TIP3   OH224430   5.407   6.238   0.278  0.2700  0.5905  0.4506
  980TIP3    H124431   5.361   6.153   0.281  1.1733  0.0967  2.2243
  980TIP3    H224432   5.361   6.291   0.343  2.9177 -0.4103  3.4249
  981TIP3   OH224433   1.709   3.906  14.091 -0.4187 -0.0548  0.3274
  981TIP3    H124434   1.648   3.844  14.132 -0.1249 -0.8203 -0.3638
  981TIP3    H224435   1.748   3.953  14.164 -0.4019 -0.9250  0.8904
  982TIP3   OH224436   6.338   2.703   7.109 -0.1372 -0.4514  0.3344
  982TIP3    H124437   6.409   2.644   7.132  0.2254 -0.3721 -0.5372
  982TIP3    H224438   6.261   2.646   7.101 -0.2360 -0.5104  1.4705
  983TIP3   OH224439   0.136   5.723   1.203  0.4533  0.0817  0.3662
  983TIP3    H124440   0.215   5.754   1.247  0.0952 -0.0993  1.1618
  983TIP3    H224441   0.140   5.628   1.210  1.0224 -0.0280 -1.1363
  984TIP3   OH224442   3.395   4.429  11.271 -0.3785  0.3900  0.4219
  984TIP3    H124443   3.479   4.395  11.240  0.9639  1.3969  2.7186
  984TIP3    H224444   3.383   4.511  11.223 -0.5077 -0.1856 -0.5500
  985TIP3   OH224445   1.879   0.067   1.859  0.1193 -0.4986  0.0359
  985TIP3    H124446   1.974   0.064   1.864  0.0800 -1.5534  0.6400
  985TIP3    H224447   1.850   0.056   1.950 -0.5795 -0.7565 -0.2091
  986TIP3   OH224448   5.361   2.533  14.992  0.1006  0.3881  0.1009
  986TIP3    H124449   5.311   2.556  15.070  0.6773  0.9977  0.2961
  986TIP3    H224450   5.313   2.574  14.920 -0.7502 -0.6485  0.0494
  987TIP3   OH224451   2.803   1.434  10.480 -0.1251 -0.1864 -0.2146
  987TIP3    H124452   2.841   1.491  10.547  0.2580  1.5162 -1.8020
  987TIP3    H224453   2.709   1.439  10.496 -0.2736  2.4148 -1.3655
  988TIP3   OH224454   4.104   3.675  13.689  0.2048 -0.5605  0.0882
  988TIP3    H124455   4.061   3.630  13.762  0.8311  1.5041  1.8336
  988TIP3    H224456   4.036   3.728  13.649  0.5778  1.0413  1.4830
  989TIP3   OH224457   5.042   5.348   0.416  0.3926  0.4075  0.0171
  989TIP3    H124458   5.072   5.257   0.408  0.6086  0.4873 -0.0913
  989TIP3    H224459   4.982   5.359   0.342  2.3592  1.1324 -1.5778
  990TIP3   OH224460   2.010   2.407   0.116  0.3814  0.5851  0.6971
  990TIP3    H124461   1.930   2.458   0.101  0.4244 -0.2892 -4.2615
  990TIP3    H224462   2.080   2.461   0.079  1.3915 -0.4654  1.0392
  991TIP3   OH224463   5.319   4.350  15.074  0.0500 -0.2114  0.5785
  991TIP3    H124464   5.289   4.358  14.983  0.0827  1.9957  0.7299
  991TIP3    H224465   5.275   4.271  15.106  0.2209 -1.1730 -1.3965
  992TIP3   OH224466   6.582   0.452   2.839  0.0136  0.2387 -0.2497
  992TIP3    H124467   6.564   0.545   2.824 -0.0660 -0.0300 -2.0590
  992TIP3    H224468   6.561   0.438   2.932  0.6612  2.1453  0.2218
  993TIP3   OH224469   3.386   4.306  15.558  0.6742 -0.3178 -0.0286
  993TIP3    H124470   3.311   4.267  15.603 -0.7760  2.6573  0.3187
  993TIP3    H224471   3.397   4.252  15.480 -1.9749 -0.7372 -0.2016
  994TIP3   OH224472   4.452   4.817  12.438 -0.3086 -0.2416  0.2967
  994TIP3    H124473   4.406   4.734  12.446 -1.5979  0.3866 -0.2426
  994TIP3    H224474   4.412   4.859  12.362  1.0491  0.4236 -0.0727
  995TIP3   OH224475   4.152   4.506   4.658  0.5296  0.3688  0.3301
  995TIP3    H124476   4.110   4.548   4.733 -2.1895 -0.5473 -0.5727
  995TIP3    H224477   4.210   4.573   4.622  0.3555  1.4917  2.0347
  996TIP3   OH224478   6.378   1.224  12.123  0.0500  0.4535  0.5675
  996TIP3    H124479   6.309   1.290  12.124 -1.5853 -1.0731  4.1322
  996TIP3    H224480   6.455   1.271  12.091 -1.9653  2.8855 -1.1796
  997TIP3   OH224481   5.289   6.124  10.389 -0.3647 -0.4522 -0.4832
  997TIP3    H124482   5.379   6.128  10.356 -0.6790 -1.4910 -1.5504
  997TIP3    H224483   5.283   6.038  10.431 -1.1460 -0.8298 -1.3409
  998TIP3   OH224484   4.657   0.842   2.963 -0.2454 -0.1878 -0.7498
  998TIP3    H124485   4.642   0.935   2.948  1.1763 -0.0073 -1.2276
  998TIP3    H224486   4.655   0.803   2.876  0.5772 -0.3572 -0.7044
  999TIP3   OH224487   1.636   4.663   6.275  0.0520 -0.0928 -0.2872
  999TIP3    H124488   1.627   4.592   6.339 -2.8969  1.8822  1.7801
  999TIP3    H224489   1.730   4.679   6.270  0.6889 -3.0416  0.3584
 1000TIP3   OH224490   1.781   1.491  16.830  0.1335 -0.1457 -0.0350
 1000TIP3    H124491   1.789   1.453  16.743  0.9996  1.2845 -0.6037
 1000TIP3    H224492   1.819   1.425  16.889 -0.5540 -1.1616 -0.6963
 1001TIP3   OH224493   1.451   0.070   4.527 -0.1528  0.0630 -0.2981
 1001TIP3    H124494   1.452   0.164   4.544  2.0204 -0.1773  1.3978
 1001TIP3    H224495   1.359   0.046   4.531 -0.7290  2.0528 -0.4406
 1002TIP3   OH224496   2.910   4.627  11.675 -0.1308 -0.1152  0.1857
 1002TIP3    H124497   2.892   4.715  11.642  1.4054  0.6976  1.3355
 1002TIP3    H224498   2.837   4.573  11.645 -2.7672  2.1849  2.0051
 1003TIP3   OH224499   6.285   2.068   5.566 -0.0265 -0.2337  0.2970
 1003TIP3    H124500   6.373   2.028   5.565 -0.0025 -0.1726 -0.4950
 1003TIP3    H224501   6.261   2.069   5.658  0.6109 -0.6909  0.4796
 1004TIP3   OH224502   1.780   2.303  10.588 -0.3351 -0.2381  0.0067
 1004TIP3    H124503   1.854   2.351  10.551  0.0098 -1.3771 -0.8418
 1004TIP3    H224504   1.704   2.336  10.540 -0.2899  0.4594  0.4120
 1005TIP3   OH224505   1.100   0.420   1.275  0.2227  0.2412  0.0336
 1005TIP3    H124506   1.005   0.417   1.288 -0.0919  0.5812 -1.8885
 1005TIP3    H224507   1.112   0.477   1.200  1.9823  0.3418  0.3494
 1006TIP3   OH224508   5.536   5.789  13.336 -0.6415 -0.0607 -0.0999
 1006TIP3    H124509   5.576   5.808  13.251  0.0103 -2.5281 -0.4312
 1006TIP3    H224510   5.608   5.799  13.399 -0.9699  1.1365  0.1139
 1007TIP3   OH224511   3.334   5.950   3.548 -0.6547  0.0949  0.0732
 1007TIP3    H124512   3.247   5.918   3.524 -0.2710  1.1125 -3.2066
 1007TIP3    H224513   3.324   6.044   3.559  0.0057  0.2141 -0.2728
 1008TIP3   OH224514   0.114   1.266  16.024 -0.0111  0.3599  0.5827
 1008TIP3    H124515   0.131   1.242  16.115  0.8191 -2.6162 -0.2460
 1008TIP3    H224516   0.019   1.280  16.021 -0.0152  0.7714  1.9487
 1009TIP3   OH224517   6.175   4.891  13.374  0.0874 -0.6644  0.1825
 1009TIP3    H124518   6.101   4.951  13.368  0.1028 -0.7091 -0.4657
 1009TIP3    H224519   6.252   4.947  13.369  0.1031 -0.7452 -0.5616
 1010TIP3   OH224520   2.147   6.778   2.692  0.1765  0.0823 -0.4954
 1010TIP3    H124521   2.204   6.734   2.755 -0.1620  0.0970 -0.1749
 1010TIP3    H224522   2.160   6.729   2.611 -1.4558 -1.7248  0.2380
 1011TIP3   OH224523   1.277   4.691  13.365 -0.8581  0.1891  0.1389
 1011TIP3    H124524   1.261   4.601  13.339 -0.1775  0.3826 -1.0324
 1011TIP3    H224525   1.231   4.744  13.299 -3.5802  0.7656  2.3161
 1012TIP3   OH224526   3.615   2.061  16.173  0.0881  0.2525  0.1917
 1012TIP3    H124527   3.694   2.104  16.206  0.1633  0.0906  0.2256
 1012TIP3    H224528   3.547   2.085  16.236  0.2244 -0.0291  0.4504
 1013TIP3   OH224529   3.147   1.887  12.004 -0.1091  0.3415  0.2851
 1013TIP3    H124530   3.164   1.904  11.912  0.4233  0.7295  0.4461
 1013TIP3    H224531   3.071   1.941  12.026 -2.0318 -1.8529 -0.5932
 1014TIP3   OH224532   2.099   3.342   0.733  0.4562 -0.0913 -0.6050
 1014TIP3    H124533   2.066   3.307   0.816  0.4165  0.2309 -0.4825
 1014TIP3    H224534   2.020   3.370   0.686  0.4473 -0.6567 -0.9295
 1015TIP3   OH224535   0.069   4.740  12.480 -0.7936  0.0347  0.1768
 1015TIP3    H124536   0.129   4.696  12.540 -0.6224 -0.1858 -0.1534
 1015TIP3    H224537  -0.018   4.711  12.508 -0.7216  0.0064  0.3753
 1016TIP3   OH224538   4.255   0.508  15.722 -0.3476 -0.2515  0.1540
 1016TIP3    H124539   4.237   0.419  15.695  0.2536 -0.9283  1.8333
 1016TIP3    H224540   4.169   0.550  15.726 -0.7253 -1.0081  0.1826
 1017TIP3   OH224541   3.307   2.297  13.428  0.4961 -0.3158 -0.1722
 1017TIP3    H124542   3.261   2.336  13.503  1.1553 -0.6316  0.4073
 1017TIP3    H224543   3.237   2.278  13.365 -0.1532 -0.5920  0.6060
 1018TIP3   OH224544   0.542   5.391   3.779  0.1527 -0.8675 -0.2952
 1018TIP3    H124545   0.518   5.484   3.785  1.0795 -0.6083 -0.4119
 1018TIP3    H224546   0.472   5.352   3.726  0.7917  0.1679 -1.9973
 1019TIP3   OH224547   2.654   5.888  13.465  0.3839 -0.7813 -0.4368
 1019TIP3    H124548   2.733   5.850  13.426  1.4459  0.4887  0.4281
 1019TIP3    H224549   2.629   5.825  13.533  0.5192 -1.2931 -0.8502
 1020TIP3   OH224550   1.259   4.539  15.885 -0.1098  0.0669 -0.6707
 1020TIP3    H124551   1.229   4.531  15.795 -2.4536  0.9419 -0.0316
 1020TIP3    H224552   1.323   4.610  15.883  2.7254 -2.2989 -2.1886
 1021TIP3   OH224553   1.164   0.895  11.100  0.1318 -0.0337  0.1172
 1021TIP3    H124554   1.070   0.880  11.111  0.2134  0.1458  1.1159
 1021TIP3    H224555   1.174   0.914  11.006 -0.7826 -0.3180 -0.0529
 1022TIP3   OH224556   4.712   5.926   1.531 -0.2339 -0.0503  0.0089
 1022TIP3    H124557   4.763   5.865   1.478  0.3898 -0.6087  1.2161
 1022TIP3    H224558   4.695   5.879   1.612  0.2683  1.3885  0.9812
 1023TIP3   OH224559   2.541   3.546   5.127  0.3185 -0.6416 -0.3584
 1023TIP3    H124560   2.478   3.540   5.055  0.9008  1.9871 -1.2011
 1023TIP3    H224561   2.495   3.511   5.203 -0.5843 -2.7743 -1.8076
 1024TIP3   OH224562   4.369   5.287  10.329 -0.4430 -0.2415 -1.0206
 1024TIP3    H124563   4.445   5.234  10.351 -3.2488 -3.4835  2.4198
 1024TIP3    H224564   4.378   5.366  10.382 -0.8023 -2.0661  1.9712
 1025TIP3   OH224565   3.566   6.013  15.005  0.1671 -0.4635  0.6288
 1025TIP3    H124566   3.493   5.996  15.065 -1.2767 -0.7514 -1.1246
 1025TIP3    H224567   3.616   6.082  15.048 -2.1261  1.0068  1.1343
 1026TIP3   OH224568   3.591   5.978  15.981  0.6454 -0.7884 -0.0436
 1026TIP3    H124569   3.649   5.989  15.905  0.8401 -0.7266  0.1123
 1026TIP3    H224570   3.519   5.924  15.949 -0.3400  0.9195 -0.8320
 1027TIP3   OH224571   3.315   2.098   2.624 -0.7229 -0.1867  0.5508
 1027TIP3    H124572   3.284   2.008   2.633 -0.8403 -0.0865  1.1981
 1027TIP3    H224573   3.371   2.097   2.547 -1.7812 -0.5309 -0.2433
 1028TIP3   OH224574   3.414   0.588   5.554  0.4214  1.0588 -0.0044
 1028TIP3    H124575   3.445   0.659   5.610  1.9092  0.3257  0.1569
 1028TIP3    H224576   3.361   0.632   5.487 -0.9594  1.9991  1.6142
 1029TIP3   OH224577   5.961   2.296  12.392 -0.4763 -0.0222  0.0014
 1029TIP3    H124578   5.974   2.390  12.373 -1.9309  0.0593 -0.6637
 1029TIP3    H224579   5.869   2.288  12.414 -0.0954 -1.1183  1.3403
 1030TIP3   OH224580   3.107   5.167   2.732 -0.7497  0.7689 -0.3563
 1030TIP3    H124581   3.055   5.198   2.806 -1.2410  0.9175 -0.7540
 1030TIP3    H224582   3.162   5.097   2.768 -1.2854  0.5583  0.0612
 1031TIP3   OH224583   5.008   3.669   1.584  0.3599 -0.6674 -0.4697
 1031TIP3    H124584   4.919   3.678   1.618  0.2729  0.7857 -1.0120
 1031TIP3    H224585   5.009   3.584   1.540 -0.8140 -0.6227 -0.6071
 1032TIP3   OH224586   0.633   2.157   2.608 -0.1633  0.2647 -0.1670
 1032TIP3    H124587   0.600   2.113   2.686 -1.8804 -0.6968 -1.3604
 1032TIP3    H224588   0.691   2.093   2.567 -0.3511  0.2263 -0.3780
 1033TIP3   OH224589   3.770   0.756  15.574  0.5273 -0.3109 -0.5115
 1033TIP3    H124590   3.738   0.775  15.662  0.9655  0.5942 -0.5394
 1033TIP3    H224591   3.798   0.664  15.578 -3.8306 -1.8962 -1.0179
 1034TIP3   OH224592   5.014   5.079   6.239 -0.7613 -0.2738 -0.4383
 1034TIP3    H124593   4.919   5.081   6.238 -0.8971 -2.9281 -0.5847
 1034TIP3    H224594   5.037   5.067   6.332 -0.7209 -1.6030 -0.5939
 1035TIP3   OH224595   5.333   0.053   0.881 -0.3286  0.6817  0.0790
 1035TIP3    H124596   5.394   0.070   0.953  0.0728  2.5840 -0.6404
 1035TIP3    H224597   5.252   0.096   0.907 -1.0079 -0.7921  0.4841
 1036TIP3   OH224598   0.008   6.592   5.677  0.3951 -0.6415 -0.1002
 1036TIP3    H124599  -0.063   6.655   5.665 -0.0662 -1.1800 -0.2551
 1036TIP3    H224600   0.087   6.640   5.652  0.2632  0.3807  1.3595
 1037TIP3   OH224601   2.083   4.844   4.442  0.1010  0.1491  0.4545
 1037TIP3    H124602   2.173   4.829   4.413  0.6233  3.6517 -0.1623
 1037TIP3    H224603   2.085   4.830   4.537  1.2640  0.1916  0.4432
 1038TIP3   OH224604   0.290   6.569   3.129  0.1741 -0.1777  0.2870
 1038TIP3    H124605   0.244   6.621   3.063 -0.3181 -1.2612 -0.2485
 1038TIP3    H224606   0.383   6.581   3.108  0.0789  0.5908  0.2672
 1039TIP3   OH224607   1.249   5.558  12.443 -0.2099  0.1820  0.1640
 1039TIP3    H124608   1.311   5.547  12.516 -0.2857 -0.5471  0.1245
 1039TIP3    H224609   1.261   5.479  12.390  0.3041  0.9953 -0.9699
 1040TIP3   OH224610   4.964   3.108  14.651  0.3132 -0.8042  0.5462
 1040TIP3    H124611   5.022   3.165  14.601 -1.4102 -0.2184 -0.8822
 1040TIP3    H224612   4.903   3.073  14.587 -1.6312 -0.4781  2.1207
 1041TIP3   OH224613   5.433   3.244   3.814  0.0298  0.0757  0.0379
 1041TIP3    H124614   5.447   3.261   3.721 -1.1940 -0.4896 -0.2846
 1041TIP3    H224615   5.364   3.305   3.839 -1.4096 -1.4219 -0.0838
 1042TIP3   OH224616   6.819   1.617  16.818  0.1365  0.0141  0.3838
 1042TIP3    H124617   6.823   1.711  16.832  0.5785 -0.0271  0.5481
 1042TIP3    H224618   6.841   1.605  16.726  3.1781 -0.1342  1.0312
 1043TIP3   OH224619   5.245   3.243   2.188  0.1119  0.1885 -0.5391
 1043TIP3    H124620   5.190   3.268   2.262 -2.5157 -0.9730 -1.9883
 1043TIP3    H224621   5.286   3.325   2.160  0.1702  0.8654  1.3719
 1044TIP3   OH224622   3.133   4.931  13.021 -0.3487 -0.1260  0.7045
 1044TIP3    H124623   3.094   4.846  12.998 -0.0524 -0.0976  0.0763
 1044TIP3    H224624   3.058   4.985  13.046 -0.3114 -1.4466  4.1298
 1045TIP3   OH224625   1.689   3.997   6.551  0.1620  0.1936  0.0327
 1045TIP3    H124626   1.608   4.042   6.532  0.1965 -0.2378 -1.2095
 1045TIP3    H224627   1.663   3.906   6.566  0.3690  0.1365  0.0545
 1046TIP3   OH224628   5.916   5.042   5.327 -0.2472  0.3178  0.1301
 1046TIP3    H124629   5.987   5.104   5.342 -2.1714  2.6767  0.2018
 1046TIP3    H224630   5.896   5.049   5.233  1.1734 -2.2464 -0.4662
 1047TIP3   OH224631   1.566   0.077  17.173 -0.7076 -0.4669  0.7770
 1047TIP3    H124632   1.588   0.037  17.257 -0.3201  1.5349  1.6940
 1047TIP3    H224633   1.473   0.100  17.181 -0.8980 -1.0272  0.3006
 1048TIP3   OH224634   2.562   5.295  14.990 -0.6417  0.0115  0.4784
 1048TIP3    H124635   2.563   5.261  15.079 -1.5120  0.9263  0.8608
 1048TIP3    H224636   2.654   5.312  14.970 -0.2892 -1.4857  0.6675
 1049TIP3   OH224637   0.617   6.213   2.767  0.1359 -0.4110 -0.0293
 1049TIP3    H124638   0.585   6.290   2.816 -0.5704  0.1551 -1.3291
 1049TIP3    H224639   0.588   6.229   2.677  0.7906 -1.7725 -0.4957
 1050TIP3   OH224640   5.139   0.719  17.080  0.4135  0.1729  0.3534
 1050TIP3    H124641   5.226   0.683  17.062  1.0998  1.6314  0.6504
 1050TIP3    H224642   5.150   0.813  17.072 -1.1504  0.3838  0.4229
 1051TIP3   OH224643   0.404   0.816  12.526  0.4388 -0.3194  0.0401
 1051TIP3    H124644   0.459   0.762  12.470  2.6022 -0.0255  1.7259
 1051TIP3    H224645   0.315   0.782  12.513  1.1830 -1.7223 -1.7743
 1052TIP3   OH224646   1.321   0.629   2.761  0.4234  0.3652 -0.1384
 1052TIP3    H124647   1.276   0.544   2.761 -0.9720  1.0690 -1.0365
 1052TIP3    H224648   1.259   0.689   2.720  2.2603  1.3602 -1.6091
 1053TIP3   OH224649   2.876   2.258   0.023 -0.3086  0.7493 -0.2612
 1053TIP3    H124650   2.871   2.202  -0.054 -1.5963  0.5667 -0.0552
 1053TIP3    H224651   2.885   2.347  -0.011 -0.6438  0.6452 -0.6171
 1054TIP3   OH224652   1.559   0.098  11.681 -0.4909 -0.1065 -0.0597
 1054TIP3    H124653   1.579   0.192  11.689  0.0220 -0.2375  0.2155
 1054TIP3    H224654   1.505   0.092  11.602 -0.7107  0.4500  0.0423
 1055TIP3   OH224655   5.015   6.690  13.538 -0.1929  0.2252 -0.2727
 1055TIP3    H124656   4.931   6.670  13.496 -0.4518 -1.0020  0.7677
 1055TIP3    H224657   5.057   6.605  13.548  0.5242  0.6629  0.5718
 1056TIP3   OH224658   6.399   5.473  12.447 -0.0902  0.4089  0.3495
 1056TIP3    H124659   6.416   5.403  12.384  0.4012 -0.2483  1.1915
 1056TIP3    H224660   6.442   5.550  12.409 -0.2961  0.1706 -0.3910
 1057TIP3   OH224661   2.864   2.077  16.480  0.3559 -0.0323 -0.2111
 1057TIP3    H124662   2.925   2.140  16.517 -2.1383  1.9789  0.8244
 1057TIP3    H224663   2.861   2.098  16.386  2.0824 -1.0018 -0.5283
 1058TIP3   OH224664   5.849   2.919  13.222  0.5626 -0.1303 -0.7195
 1058TIP3    H124665   5.937   2.901  13.253 -0.0454 -1.9984  0.0440
 1058TIP3    H224666   5.809   2.973  13.291  0.9730  0.4245 -0.9083
 1059TIP3   OH224667   2.687   4.996   3.782 -0.0997  0.0136 -0.0636
 1059TIP3    H124668   2.750   4.974   3.713  1.1196  3.1306 -0.0951
 1059TIP3    H224669   2.607   5.018   3.735  0.4264  1.1561 -0.4660
 1060TIP3   OH224670   0.596   6.449   6.389  0.1875  0.5797 -0.2011
 1060TIP3    H124671   0.641   6.394   6.453 -0.6328 -0.4990 -0.5304
 1060TIP3    H224672   0.540   6.506   6.440 -0.6901 -0.4835  0.0362
 1061TIP3   OH224673   5.620   0.846  13.954  0.2292 -0.4905  0.2093
 1061TIP3    H124674   5.707   0.833  13.917  2.2773  0.6924  4.0832
 1061TIP3    H224675   5.594   0.760  13.985  0.5040 -0.6573 -0.0176
 1062TIP3   OH224676   4.940   6.757  12.578  0.0751 -0.4758  0.3103
 1062TIP3    H124677   4.996   6.681  12.567 -0.3307 -0.5380 -1.7450
 1062TIP3    H224678   4.970   6.819  12.512 -1.3564  0.0490  0.1159
 1063TIP3   OH224679   0.624   4.326  16.154  0.3997 -0.7535  0.0782
 1063TIP3    H124680   0.621   4.421  16.140  1.0613 -0.8654 -0.9871
 1063TIP3    H224681   0.550   4.307  16.210 -0.4279  0.2543 -0.6365
 1064TIP3   OH224682   5.183   0.638   4.537  0.1328  0.1838  0.1531
 1064TIP3    H124683   5.158   0.691   4.614  2.0802 -1.2128  1.8575
 1064TIP3    H224684   5.246   0.693   4.491  1.9399 -0.4423  1.7631
 1065TIP3   OH224685   2.400   1.364   4.781 -0.4941 -0.0629  0.4615
 1065TIP3    H124686   2.459   1.316   4.722  0.3728 -0.3003  1.5021
 1065TIP3    H224687   2.451   1.378   4.860 -1.7027  0.1120  1.2316
 1066TIP3   OH224688   0.597   3.052  16.878 -0.0221 -0.0112 -0.2510
 1066TIP3    H124689   0.549   3.133  16.893 -0.6361 -0.2029 -1.0725
 1066TIP3    H224690   0.610   3.049  16.783  1.2386 -0.1833 -0.0845
 1067TIP3   OH224691   2.561   5.041  17.011  0.1811 -0.3322 -1.1546
 1067TIP3    H124692   2.493   5.102  17.042 -1.5082 -3.1825  1.2781
 1067TIP3    H224693   2.544   5.032  16.918 -1.8522  0.2150 -0.8907
 1068TIP3   OH224694   3.161   3.264   1.366  0.1217 -0.3051 -0.3169
 1068TIP3    H124695   3.252   3.236   1.379  1.2603  3.5329  1.1004
 1068TIP3    H224696   3.114   3.230   1.442  1.2294  0.8043  0.8931
 1069TIP3   OH224697   1.923   4.536   1.983  0.3993  0.6526 -0.0913
 1069TIP3    H124698   1.962   4.496   1.905 -0.9684  1.7693 -1.3973
 1069TIP3    H224699   1.924   4.630   1.965  0.4025  0.9704  1.4225
 1070TIP3   OH224700   5.438   0.456   2.883  0.3685  0.1456  0.6208
 1070TIP3    H124701   5.436   0.364   2.906 -0.8004  0.4603  1.8921
 1070TIP3    H224702   5.522   0.488   2.915 -0.1604 -0.0040  2.2256
 1071TIP3   OH224703   4.911   4.595   1.597 -0.2985  0.0475 -0.5946
 1071TIP3    H124704   4.998   4.557   1.604 -0.2089  0.3653  0.1125
 1071TIP3    H224705   4.911   4.667   1.660 -1.1653 -0.1363 -0.3645
 1072TIP3   OH224706   5.672   0.836   4.955 -0.0221  0.8638  0.2244
 1072TIP3    H124707   5.736   0.871   4.893 -0.5357  1.6039  0.1044
 1072TIP3    H224708   5.702   0.746   4.972 -1.0208 -0.1673 -2.7538
 1073TIP3   OH224709   1.747   3.091  15.130 -0.5375 -0.5704  0.3323
 1073TIP3    H124710   1.716   3.137  15.208  0.8520  1.4797 -0.2587
 1073TIP3    H224711   1.836   3.064  15.153 -0.3541 -0.5198 -0.3117
 1074TIP3   OH224712   5.961   4.856   4.695 -0.1589 -0.5365 -0.0090
 1074TIP3    H124713   6.032   4.875   4.634  0.0992 -0.4542  0.3133
 1074TIP3    H224714   5.991   4.892   4.778  0.4810 -2.6130  0.7178
 1075TIP3   OH224715   4.495   3.934  12.610  0.1616 -0.1549 -0.5820
 1075TIP3    H124716   4.461   3.866  12.552  0.8602 -1.2875  0.3104
 1075TIP3    H224717   4.429   3.942  12.679 -0.8898  1.5074 -1.6994
 1076TIP3   OH224718   2.796   6.252  16.265  0.7669  0.4037  0.7237
 1076TIP3    H124719   2.793   6.293  16.352  1.3655  0.3250  0.7826
 1076TIP3    H224720   2.889   6.234  16.250  0.7108  0.7606 -0.0920
 1077TIP3   OH224721   4.036   2.293   4.949  0.1575  0.7744  0.3502
 1077TIP3    H124722   3.946   2.305   4.920  0.2279 -0.2608 -0.3588
 1077TIP3    H224723   4.089   2.334   4.881  0.2742 -0.4775 -0.3536
 1078TIP3   OH224724   4.110   1.870  11.457  0.3689 -0.2237 -0.6170
 1078TIP3    H124725   4.164   1.858  11.378 -0.7021 -2.4428 -1.0892
 1078TIP3    H224726   4.130   1.959  11.486  2.9862 -0.3607 -1.7183
 1079TIP3   OH224727   4.397   0.585  11.591  0.1260 -0.2306  0.4649
 1079TIP3    H124728   4.377   0.493  11.605  1.2211 -0.6624 -0.6407
 1079TIP3    H224729   4.313   0.625  11.567 -0.5816 -0.6787  2.1060
 1080TIP3   OH224730   4.606   4.929   4.783 -0.9697 -0.2939  0.2160
 1080TIP3    H124731   4.599   4.937   4.878 -2.3289 -0.6064  0.1621
 1080TIP3    H224732   4.644   5.012   4.755  0.0397 -0.4490  1.0821
 1081TIP3   OH224733   4.217   4.955   4.958 -0.1414  0.1872 -0.5080
 1081TIP3    H124734   4.150   4.895   4.990 -0.4678  1.0764  0.5428
 1081TIP3    H224735   4.225   5.022   5.026  1.3585  0.4657 -0.9080
 1082TIP3   OH224736   6.110   0.373   2.125 -0.4321  0.0122  0.3279
 1082TIP3    H124737   6.082   0.420   2.047  1.5795  0.3090 -0.2932
 1082TIP3    H224738   6.030   0.340   2.165 -1.5369  0.1105 -1.7116
 1083TIP3   OH224739   1.744   0.198  16.032 -0.9903  0.2056 -0.2163
 1083TIP3    H124740   1.756   0.275  15.976 -1.0140  1.5035  1.4954
 1083TIP3    H224741   1.671   0.221  16.090 -1.9355 -1.6783 -0.5674
 1084TIP3   OH224742   5.857   5.546  16.802  0.0524 -0.6221  0.6419
 1084TIP3    H124743   5.801   5.498  16.864 -0.7503  2.3826  2.4395
 1084TIP3    H224744   5.946   5.521  16.826 -0.3241 -0.9217  1.8202
 1085TIP3   OH224745   3.634   1.762   5.002  0.2894 -0.0090  0.0609
 1085TIP3    H124746   3.573   1.803   4.941 -0.8825  1.5283  2.1467
 1085TIP3    H224747   3.711   1.741   4.948 -0.7006  1.1913 -1.9418
 1086TIP3   OH224748   5.222   1.986  17.179  0.5124  0.2208 -0.0099
 1086TIP3    H124749   5.190   1.910  17.130  0.6503  0.5138 -0.5569
 1086TIP3    H224750   5.249   1.950  17.264  1.8425 -0.5834 -0.7324
 1087TIP3   OH224751   1.152   0.344   4.787 -0.2010 -0.1329  0.1786
 1087TIP3    H124752   1.156   0.419   4.846  0.2177  0.7916 -0.9796
 1087TIP3    H224753   1.183   0.270   4.839 -0.2630  0.5715  1.2348
 1088TIP3   OH224754   5.926   5.369   2.876 -0.3592 -0.2919 -0.2556
 1088TIP3    H124755   5.858   5.332   2.931  0.0039  0.8124  0.9856
 1088TIP3    H224756   5.919   5.464   2.888  0.9763 -0.1173 -0.5938
 1089TIP3   OH224757   3.112   5.156   4.172 -0.6575 -0.0689 -0.5652
 1089TIP3    H124758   3.108   5.203   4.255  1.5066 -1.4084  0.3683
 1089TIP3    H224759   3.039   5.095   4.175 -0.1059 -0.6935  0.7676
 1090TIP3   OH224760   4.042   5.027  11.070  0.2929  1.0184  0.1747
 1090TIP3    H124761   3.956   4.996  11.100  0.5003 -0.0204 -0.2737
 1090TIP3    H224762   4.105   4.980  11.125  0.5738  2.7996  1.4518
 1091TIP3   OH224763   1.145   3.899  15.841 -0.3749 -0.0675 -0.3609
 1091TIP3    H124764   1.174   3.990  15.836 -0.9103  0.1010 -0.4883
 1091TIP3    H224765   1.225   3.848  15.833 -0.0729  0.3936 -0.3167
 1092TIP3   OH224766   0.434   3.415  13.559  0.2304  0.0582  0.1590
 1092TIP3    H124767   0.363   3.376  13.611 -1.3220  0.1584 -1.7556
 1092TIP3    H224768   0.476   3.340  13.517  0.2800  0.1117  0.1140
 1093TIP3   OH224769   4.832   4.764   4.994  0.0407 -0.3098  0.1360
 1093TIP3    H124770   4.791   4.849   5.014  0.8892 -0.1393  1.3047
 1093TIP3    H224771   4.775   4.700   5.037  0.6716 -0.1125  1.3317
 1094TIP3   OH224772   5.858   3.803   4.756  0.1432 -0.1736 -0.1746
 1094TIP3    H124773   5.790   3.868   4.774  1.8101  1.7664 -0.6304
 1094TIP3    H224774   5.918   3.811   4.830  0.6172 -0.8920 -0.4747
 1095TIP3   OH224775   2.424   3.185  14.825 -0.3144 -0.8143 -0.1085
 1095TIP3    H124776   2.342   3.185  14.777  0.1599  1.4310 -1.0823
 1095TIP3    H224777   2.491   3.166  14.759  0.0875 -1.0389  0.3483
 1096TIP3   OH224778   3.006   0.226   4.622 -0.1330  0.3189  0.5148
 1096TIP3    H124779   2.946   0.172   4.570 -0.8273  1.0931  0.4789
 1096TIP3    H224780   2.949   0.290   4.665  0.7773  2.1983 -0.8764
 1097TIP3   OH224781   3.765   0.320  10.742 -0.2717 -0.0699 -0.4448
 1097TIP3    H124782   3.818   0.241  10.754 -0.8880 -0.3912  0.2134
 1097TIP3    H224783   3.717   0.329  10.824 -2.7622 -0.9272 -1.7219
 1098TIP3   OH224784   4.629   3.370  16.314  0.2694  0.5279 -0.4093
 1098TIP3    H124785   4.700   3.312  16.342 -0.5773 -1.4039 -2.0366
 1098TIP3    H224786   4.564   3.311  16.275 -1.8133  2.3340  0.1643
 1099TIP3   OH224787   1.834   3.641   2.712 -0.0561  0.2941 -0.1158
 1099TIP3    H124788   1.827   3.666   2.619  1.5943  0.4504 -0.2261
 1099TIP3    H224789   1.904   3.696   2.746  0.7124 -1.1579  0.7295
 1100TIP3   OH224790   0.345   5.060  12.072 -0.8379 -0.3261 -0.1277
 1100TIP3    H124791   0.339   5.007  12.152 -2.5087  0.5911  0.4209
 1100TIP3    H224792   0.437   5.083  12.065 -0.7558  0.2283  2.0147
 1101TIP3   OH224793   6.635   6.360  11.376  0.1904 -0.2079 -0.0022
 1101TIP3    H124794   6.621   6.266  11.370  0.6991 -0.2006 -1.8610
 1101TIP3    H224795   6.563   6.392  11.431 -0.1917 -1.6241  0.3491
 1102TIP3   OH224796   4.767   1.226   3.475  0.0061 -0.1347  0.1690
 1102TIP3    H124797   4.791   1.296   3.415 -0.0609 -0.4711 -0.2492
 1102TIP3    H224798   4.839   1.163   3.469  1.2939  0.9818  2.3226
 1103TIP3   OH224799   0.827   0.663   5.113  0.4361 -0.2742  0.3121
 1103TIP3    H124800   0.804   0.647   5.204  1.1562 -2.6773  0.1283
 1103TIP3    H224801   0.907   0.716   5.118 -0.0353  0.4009  1.0325
 1104TIP3   OH224802   6.179   2.903   1.171  0.6326  0.6426  0.7189
 1104TIP3    H124803   6.185   2.860   1.256 -0.3207  1.4839  1.2327
 1104TIP3    H224804   6.168   2.995   1.192  0.7059  0.8996 -0.3353
 1105TIP3   OH224805   0.756   4.941  16.886 -0.3888 -0.2331 -0.0482
 1105TIP3    H124806   0.743   5.031  16.856 -1.7940  0.2689  1.8917
 1105TIP3    H224807   0.840   4.916  16.848  0.6309  2.3219  0.2882
 1106TIP3   OH224808   1.089   6.695   4.796  0.1413 -0.0304  0.0421
 1106TIP3    H124809   1.128   6.652   4.721 -1.3892 -0.4488 -0.5565
 1106TIP3    H224810   1.003   6.724   4.765  0.3862  1.8117  0.9752
 1107TIP3   OH224811   0.452   6.675   1.849  0.3459  0.7490 -0.3601
 1107TIP3    H124812   0.402   6.672   1.930  1.0241  0.2755  0.0586
 1107TIP3    H224813   0.437   6.590   1.807 -0.1456  1.0589 -0.8263
 1108TIP3   OH224814   3.836   3.458   5.136 -0.2566 -0.1946  0.0858
 1108TIP3    H124815   3.816   3.551   5.122 -0.7770 -0.2687  0.3005
 1108TIP3    H224816   3.760   3.425   5.184  1.3123 -0.0051  2.9068
 1109TIP3   OH224817   4.431   3.810  15.932  0.4630 -0.6226 -0.1763
 1109TIP3    H124818   4.509   3.841  15.886  0.0072  0.9639  0.0470
 1109TIP3    H224819   4.388   3.890  15.963 -0.3132 -1.5530  1.2647
 1110TIP3   OH224820   4.911   3.290   4.222  0.4382  0.3097  0.0142
 1110TIP3    H124821   4.890   3.199   4.244  0.4131  0.3695  0.2385
 1110TIP3    H224822   4.965   3.283   4.144  0.7871  0.0777  0.2726
 1111TIP3   OH224823   3.703   1.910   3.654 -0.3968 -0.0290  0.1504
 1111TIP3    H124824   3.786   1.903   3.607 -0.1592  1.4108  0.3278
 1111TIP3    H224825   3.694   1.826   3.699  0.5276 -0.5265 -0.5607
 1112TIP3   OH224826   1.421   5.956   0.793  0.4236  0.0218 -0.1476
 1112TIP3    H124827   1.491   5.944   0.857  0.0102 -0.6343  0.1983
 1112TIP3    H224828   1.356   5.890   0.816 -0.8088  1.3034  0.2148
 1113TIP3   OH224829   3.717   4.295   2.173 -0.3541 -0.1858  0.2400
 1113TIP3    H124830   3.754   4.376   2.139 -1.5428 -0.4439 -1.7928
 1113TIP3    H224831   3.775   4.226   2.142  0.3986 -0.1848  1.5795
 1114TIP3   OH224832   6.352   1.269   2.704 -0.2870 -0.7876 -0.5457
 1114TIP3    H124833   6.439   1.257   2.742 -1.2295 -0.7434  1.8499
 1114TIP3    H224834   6.331   1.186   2.662  0.4032 -1.2415 -0.0018
 1115TIP3   OH224835   4.034   5.861  11.347  0.1887  0.1449 -0.2451
 1115TIP3    H124836   4.114   5.887  11.393  0.6493  0.8226 -1.3612
 1115TIP3    H224837   3.980   5.940  11.345 -0.2955 -0.1766  0.0826
 1116TIP3   OH224838   4.469   6.726  12.575 -0.0437  0.5009  0.0561
 1116TIP3    H124839   4.457   6.816  12.544  2.0896  0.6243 -0.6112
 1116TIP3    H224840   4.391   6.679  12.546 -1.2325  2.1345  0.4815
 1117TIP3   OH224841   4.863   6.760   3.587 -0.1031  0.3747 -0.6760
 1117TIP3    H124842   4.823   6.794   3.508  0.0745  0.7774 -0.5977
 1117TIP3    H224843   4.814   6.680   3.607 -1.9391  1.6688  0.3112
 1118TIP3   OH224844   0.968   2.737  13.839  0.2214 -0.2705 -0.1099
 1118TIP3    H124845   0.905   2.808  13.852 -0.0106 -0.7267  1.4013
 1118TIP3    H224846   0.979   2.733  13.744  0.7391  2.2014 -0.2240
 1119TIP3   OH224847   5.338   1.885  15.706  0.1073 -0.6653  0.2275
 1119TIP3    H124848   5.376   1.846  15.785  0.7382  0.5814  0.5649
 1119TIP3    H224849   5.406   1.945  15.675 -0.3520 -0.7495 -0.9686
 1120TIP3   OH224850   4.360   0.411  16.957 -0.5256  0.1047  0.3830
 1120TIP3    H124851   4.409   0.480  17.001 -0.1681 -1.7022  3.0139
 1120TIP3    H224852   4.277   0.453  16.933  1.6576  2.9506 -3.3277
 1121TIP3   OH224853   5.864   5.036   4.962 -0.2984 -0.0102  0.4693
 1121TIP3    H124854   5.928   5.074   4.902 -1.5192 -1.6958 -2.1031
 1121TIP3    H224855   5.917   4.988   5.026  1.0477  0.4753 -0.2291
 1122TIP3   OH224856   0.961   3.743  15.154  0.2651 -0.3595  0.0385
 1122TIP3    H124857   0.991   3.733  15.063 -0.7540 -4.0759 -0.0563
 1122TIP3    H224858   1.023   3.692  15.206 -0.0169  0.4809  1.2396
 1123TIP3   OH224859   3.813   0.305   4.738 -0.6463  0.0055  0.1923
 1123TIP3    H124860   3.823   0.399   4.719 -0.2192  0.0929  0.8278
 1123TIP3    H224861   3.764   0.271   4.663  0.3201  0.4778 -0.6804
 1124TIP3   OH224862   2.231   6.320   1.887  0.0325  0.1193 -0.3029
 1124TIP3    H124863   2.184   6.246   1.927 -0.3898  0.5844  0.0831
 1124TIP3    H224864   2.315   6.322   1.932  0.1416 -0.2728 -0.4836
 1125TIP3   OH224865   3.711   1.385  16.653  0.1060  0.3490 -0.5645
 1125TIP3    H124866   3.647   1.452  16.676  0.2597  1.0176 -1.9969
 1125TIP3    H224867   3.666   1.330  16.589  0.1684 -0.6205  0.1973
 1126TIP3   OH224868   4.545   1.978   4.475 -0.3416 -0.0798 -0.4822
 1126TIP3    H124869   4.590   2.045   4.424  1.2294  0.6677  1.7336
 1126TIP3    H224870   4.604   1.902   4.472  1.4282  0.9845  2.6420
 1127TIP3   OH224871   4.365   6.138   0.907 -0.3786  0.2870  0.3861
 1127TIP3    H124872   4.305   6.154   0.834 -0.1853 -3.0572 -0.6766
 1127TIP3    H224873   4.451   6.130   0.866 -0.4770 -3.2054  0.5962
 1128TIP3   OH224874   4.775   0.612  16.792 -0.1806 -0.2235 -0.3504
 1128TIP3    H124875   4.837   0.667  16.743 -0.4757  0.0532 -0.4182
 1128TIP3    H224876   4.694   0.618  16.742 -0.0486 -1.2110 -0.6849
 1129TIP3   OH224877   4.439   5.904  15.274  0.5414  0.1180 -0.0145
 1129TIP3    H124878   4.446   5.988  15.318  2.1433 -0.9511  1.9163
 1129TIP3    H224879   4.479   5.919  15.188 -0.3828  1.6221 -0.2085
 1130TIP3   OH224880   5.612   2.105   5.100  0.0082 -0.3501  0.0439
 1130TIP3    H124881   5.592   2.130   5.010 -0.2881 -0.4278  0.0863
 1130TIP3    H224882   5.706   2.119   5.108  0.0326 -0.3141 -0.2685
 1131TIP3   OH224883   1.561   6.782  12.510 -0.0247 -0.1154  0.4059
 1131TIP3    H124884   1.563   6.686  12.513  0.6466 -0.2264 -1.7218
 1131TIP3    H224885   1.652   6.808  12.523 -0.4521  0.3985  2.8867
 1132TIP3   OH224886   2.643   0.337   6.602 -0.8362  0.1537 -0.2307
 1132TIP3    H124887   2.599   0.261   6.639  0.1088  0.4913  1.7181
 1132TIP3    H224888   2.733   0.309   6.586 -0.4678  0.8167  0.5420
 1133TIP3   OH224889   2.800   1.012  14.980  0.0428 -0.2018 -0.2242
 1133TIP3    H124890   2.845   1.083  15.026  0.3881 -0.2468 -0.4882
 1133TIP3    H224891   2.729   1.055  14.933  0.8262  0.1063 -1.1465
 1134TIP3   OH224892   3.333   2.170   5.307 -0.1201 -0.0382 -0.3718
 1134TIP3    H124893   3.285   2.204   5.231 -2.7471 -1.1415  0.6765
 1134TIP3    H224894   3.293   2.216   5.382  0.8913 -0.5826  0.5198
 1135TIP3   OH224895   0.968   3.394  15.508 -0.1154 -0.6214 -0.2026
 1135TIP3    H124896   0.997   3.426  15.422  1.9031  2.1294  1.3657
 1135TIP3    H224897   1.016   3.313  15.521  1.6131  0.2783 -0.6421
 1136TIP3   OH224898   1.714   0.772  10.938 -0.0985  0.3316 -0.3045
 1136TIP3    H124899   1.804   0.746  10.922 -0.2536 -0.0520 -0.5627
 1136TIP3    H224900   1.662   0.718  10.879 -0.3804  1.7904 -1.4586
 1137TIP3   OH224901   5.813   3.050  15.500 -0.4960  0.7870 -0.1107
 1137TIP3    H124902   5.784   3.025  15.413  1.5052 -1.9095 -0.1328
 1137TIP3    H224903   5.733   3.050  15.553 -1.4932  0.7644 -1.5573
 1138TIP3   OH224904   6.802   4.720   0.406  0.9135  0.0405 -0.1093
 1138TIP3    H124905   6.737   4.742   0.473 -0.6215 -2.3571 -0.6960
 1138TIP3    H224906   6.879   4.694   0.456  0.7447  0.9257  0.6541
 1139TIP3   OH224907   4.801   3.859   6.069 -0.0787  0.4200 -0.2647
 1139TIP3    H124908   4.873   3.918   6.045  1.0398 -0.9981 -0.5695
 1139TIP3    H224909   4.761   3.899   6.145  0.5091  1.6840 -0.5990
 1140TIP3   OH224910   3.495   2.133  16.708 -0.0156  0.2750  0.2068
 1140TIP3    H124911   3.518   2.076  16.634 -2.0275 -1.9420  1.1460
 1140TIP3    H224912   3.579   2.151  16.752  0.9462 -0.0758 -1.3959
 1141TIP3   OH224913   3.388   6.113   0.492  0.3147 -0.0245 -0.6691
 1141TIP3    H124914   3.446   6.189   0.490  0.8015 -0.0808  3.3012
 1141TIP3    H224915   3.439   6.044   0.534 -0.9613 -1.8316 -1.8911
 1142TIP3   OH224916   6.201   5.107  15.246  0.0527 -0.2472 -0.7546
 1142TIP3    H124917   6.181   5.015  15.265 -0.0534 -0.1025 -0.1342
 1142TIP3    H224918   6.119   5.143  15.212 -1.0334  0.4871  2.3151
 1143TIP3   OH224919   6.620   4.670  12.502  0.4206 -0.3120 -0.4919
 1143TIP3    H124920   6.583   4.751  12.538 -0.5313  0.0465 -2.1825
 1143TIP3    H224921   6.596   4.672  12.410  1.2408 -2.0632 -0.7720
 1144TIP3   OH224922   6.598   2.096   4.157  0.5394 -0.0614  0.0376
 1144TIP3    H124923   6.688   2.121   4.179  0.2499 -0.1583  1.4709
 1144TIP3    H224924   6.579   2.142   4.076  1.9459 -0.1956 -0.3862
 1145TIP3   OH224925   3.431   0.302  14.104  0.2019 -0.8827 -0.1153
 1145TIP3    H124926   3.512   0.251  14.101 -0.3551 -1.7963 -0.0665
 1145TIP3    H224927   3.404   0.297  14.196  1.2468  1.3125  0.3639
 1146TIP3   OH224928   5.362   3.575   3.319  0.4639 -0.1693  0.0333
 1146TIP3    H124929   5.273   3.554   3.293 -0.2426  0.6680  1.6409
 1146TIP3    H224930   5.355   3.603   3.410  2.1666  1.1934 -0.1940
 1147TIP3   OH224931   2.857   3.013   3.789 -0.2148  0.7805  0.1865
 1147TIP3    H124932   2.829   3.103   3.802 -0.7923  0.4315  1.4473
 1147TIP3    H224933   2.949   3.020   3.763 -0.1640  1.7116  0.5835
 1148TIP3   OH224934   1.920   6.323  15.701  0.1491 -0.3695 -0.6469
 1148TIP3    H124935   1.824   6.328  15.699 -0.0783 -2.9324  0.2014
 1148TIP3    H224936   1.945   6.307  15.611 -0.0228  1.9692 -1.1693
 1149TIP3   OH224937   1.409   2.736  16.140 -0.4857  0.0017 -0.0203
 1149TIP3    H124938   1.470   2.764  16.072  2.2517 -0.7946  1.9570
 1149TIP3    H224939   1.352   2.812  16.154  0.7153  1.1695 -1.2253
 1150TIP3   OH224940   3.037   5.800   5.937 -0.1702  0.0258 -0.2687
 1150TIP3    H124941   3.124   5.803   5.977 -0.7004  1.0479  0.8791
 1150TIP3    H224942   2.978   5.828   6.007 -1.2216  1.2167 -1.5782
 1151TIP3   OH224943   1.400   1.585   3.852 -0.0702 -0.4176  0.3153
 1151TIP3    H124944   1.383   1.609   3.943 -1.3614 -0.6441  0.1514
 1151TIP3    H224945   1.382   1.665   3.802 -1.0480 -0.7518  0.1067
 1152TIP3   OH224946   4.630   0.955   5.099 -0.0576  0.5218 -0.2167
 1152TIP3    H124947   4.692   0.984   5.166 -0.0932  1.0812 -0.4253
 1152TIP3    H224948   4.581   0.884   5.141 -1.2115  1.9306  0.9578
 1153TIP3   OH224949   5.555   5.888   0.696 -0.4585 -0.0156  0.2479
 1153TIP3    H124950   5.635   5.881   0.748  0.2114 -0.8979 -0.8587
 1153TIP3    H224951   5.520   5.799   0.694 -0.5282  0.0272 -0.7181
 1154TIP3   OH224952   5.679   4.681   1.065 -0.0631 -0.1493 -0.3096
 1154TIP3    H124953   5.636   4.758   1.103 -0.3297 -0.3293 -0.2381
 1154TIP3    H224954   5.769   4.709   1.048 -0.2233  0.2507 -0.5090
 1155TIP3   OH224955   1.388   2.033   1.286 -0.0853  0.1104 -0.1563
 1155TIP3    H124956   1.422   1.996   1.367  0.3029 -0.7127 -0.6857
 1155TIP3    H224957   1.461   2.029   1.225 -0.4255  0.5731 -0.6058
 1156TIP3   OH224958   1.807   2.665  15.164  0.4008  0.9343 -0.7046
 1156TIP3    H124959   1.733   2.607  15.145 -1.2479  1.1565  3.9270
 1156TIP3    H224960   1.882   2.606  15.168 -0.8675 -0.7035  1.7110
 1157TIP3   OH224961   6.805   4.023   1.798  0.2027  0.3104 -0.1198
 1157TIP3    H124962   6.805   3.943   1.851  2.9051 -0.8461 -1.6455
 1157TIP3    H224963   6.713   4.045   1.788 -0.7612 -3.2872 -0.5323
 1158TIP3   OH224964   2.300   5.919   0.051  0.6237 -0.3121  0.5256
 1158TIP3    H124965   2.328   5.869   0.127 -1.4201 -0.3871  1.2859
 1158TIP3    H224966   2.249   5.991   0.087 -0.6394 -0.5137 -0.7843
 1159TIP3   OH224967   2.338   2.447  15.444 -0.5354  0.2410  0.0742
 1159TIP3    H124968   2.245   2.432  15.459 -0.0947  0.0106  3.3109
 1159TIP3    H224969   2.362   2.386  15.374 -2.1946 -2.0878  1.4244
 1160TIP3   OH224970   2.709   1.757  10.949 -0.8499  0.0116  0.2203
 1160TIP3    H124971   2.708   1.852  10.938 -0.5114  0.1026  0.9052
 1160TIP3    H224972   2.801   1.736  10.964 -0.7330 -0.5903 -1.2425
 1161TIP3   OH224973   4.795   4.292   5.394 -0.3992 -0.2350 -0.1184
 1161TIP3    H124974   4.875   4.344   5.390 -0.5365 -0.0370 -0.2920
 1161TIP3    H224975   4.760   4.293   5.305 -0.5441 -0.4006 -0.0651
 1162TIP3   OH224976   5.034   2.962  16.195  0.1862  0.1238 -0.6699
 1162TIP3    H124977   5.050   2.882  16.145  2.3372 -0.1715  0.3891
 1162TIP3    H224978   5.106   3.021  16.171  0.5834  0.4292  1.1260
 1163TIP3   OH224979   1.854   6.241  16.082 -0.5983 -0.4865 -0.0224
 1163TIP3    H124980   1.933   6.287  16.053 -0.3062 -1.8070 -1.3941
 1163TIP3    H224981   1.783   6.279  16.030 -0.4348 -1.2014 -0.7814
 1164TIP3   OH224982   6.805   4.984   2.646  0.3131  0.0932 -0.0895
 1164TIP3    H124983   6.847   4.911   2.600  1.3704 -0.1015  1.1391
 1164TIP3    H224984   6.754   5.028   2.579  0.7094 -0.9977 -1.1460
 1165TIP3   OH224985   4.748   6.425  15.257  0.4891  0.4177 -0.1682
 1165TIP3    H124986   4.766   6.517  15.236  1.0207  0.0999 -1.1520
 1165TIP3    H224987   4.734   6.384  15.172 -3.3797  0.2802  0.3476
 1166TIP3   OH224988   4.529   1.126   0.669  0.0655  0.0713 -0.0725
 1166TIP3    H124989   4.583   1.185   0.721  0.3102 -1.1053  1.0642
 1166TIP3    H224990   4.576   1.116   0.586  0.8030  0.2538  0.3208
 1167TIP3   OH224991   5.562   0.494   4.907  0.4713 -0.0434  0.4943
 1167TIP3    H124992   5.640   0.536   4.944  1.7080  0.6610 -2.5807
 1167TIP3    H224993   5.579   0.400   4.916  1.8467  0.0927 -0.3064
 1168TIP3   OH224994   5.544   2.719   0.500  0.9088  0.0573 -0.2638
 1168TIP3    H124995   5.597   2.771   0.440  2.7857 -2.3419 -0.8400
 1168TIP3    H224996   5.589   2.725   0.584  1.2796 -0.7813 -0.3921
 1169TIP3   OH224997   4.014   5.885  15.461 -0.2771  0.0197  0.6743
 1169TIP3    H124998   4.107   5.895  15.480 -0.3106  0.8969  0.4424
 1169TIP3    H224999   4.006   5.907  15.368 -0.6968 -0.1707  0.6624
 1170TIP3   OH225000   2.584   0.639  14.553 -0.1488  0.3371  0.0133
 1170TIP3    H125001   2.587   0.644  14.648  0.2097  1.2035 -0.0347
 1170TIP3    H225002   2.615   0.551  14.532  1.5511  0.7652  0.6205
 1171TIP3   OH225003   5.349   1.634   4.703  0.6026  0.4381  0.2373
 1171TIP3    H125004   5.355   1.540   4.685  1.0126  0.6130 -0.6169
 1171TIP3    H225005   5.283   1.642   4.772  2.2109 -0.6732  1.9753
 1172TIP3   OH225006   4.212   1.237   1.032 -0.3227  0.0973  0.5554
 1172TIP3    H125007   4.140   1.300   1.033  0.5044  1.0782  0.4803
 1172TIP3    H225008   4.195   1.181   0.956 -0.5056  0.9346 -0.0302
 1173TIP3   OH225009   3.221   0.664  15.258 -0.3549  0.2890  0.6933
 1173TIP3    H125010   3.184   0.638  15.342  0.1747  0.0969  0.8720
 1173TIP3    H225011   3.223   0.760  15.261  0.9291  0.2652  1.4697
 1174TIP3   OH225012   5.802   4.850  14.265  0.2964  0.1036 -0.0498
 1174TIP3    H125013   5.821   4.806  14.182 -0.1004 -3.0057  1.3593
 1174TIP3    H225014   5.857   4.928  14.264  1.2276 -0.4821 -2.6750
 1175TIP3   OH225015   3.980   4.105   1.513 -0.2590  0.0289 -0.3469
 1175TIP3    H125016   4.072   4.111   1.540 -0.3105  1.6633 -0.4513
 1175TIP3    H225017   3.981   4.126   1.419 -0.7087 -0.2243 -0.4122
 1176TIP3   OH225018   6.650   2.472   1.586  0.3781  0.3799 -0.2620
 1176TIP3    H125019   6.603   2.395   1.554 -1.4177  0.7435  1.2698
 1176TIP3    H225020   6.688   2.444   1.669 -0.9657  1.3073  0.7120
 1177TIP3   OH225021   0.589   1.136  15.518  0.1509 -0.1387 -0.7072
 1177TIP3    H125022   0.645   1.067  15.556 -1.3937 -0.9991  0.1037
 1177TIP3    H225023   0.545   1.093  15.445 -1.7495 -0.4636  0.5442
 1178TIP3   OH225024   1.681   4.479   3.090 -0.0139 -0.1238 -0.6076
 1178TIP3    H125025   1.669   4.551   3.028 -0.2700 -0.3196 -0.7848
 1178TIP3    H225026   1.747   4.512   3.151 -2.5317  1.6113  1.3982
 1179TIP3   OH225027   4.400   5.107  13.900  0.2172 -0.6008  0.3212
 1179TIP3    H125028   4.367   5.082  13.813 -0.9117 -0.6561  0.7528
 1179TIP3    H225029   4.324   5.101  13.957  1.0753 -1.1139  1.4377
 1180TIP3   OH225030   4.108   0.619   4.094 -0.2569 -0.5925  0.4334
 1180TIP3    H125031   4.116   0.641   4.187  0.7562 -2.1927  0.7870
 1180TIP3    H225032   4.037   0.554   4.091 -1.2961  0.5461 -0.1499
 1181TIP3   OH225033   5.657   3.301  13.956  0.0068  0.1837  0.2797
 1181TIP3    H125034   5.591   3.257  14.009 -0.7676 -0.1482 -0.9261
 1181TIP3    H225035   5.678   3.239  13.886 -0.8019  1.5285 -1.2258
 1182TIP3   OH225036   5.706   4.367   0.600 -0.1265 -0.4317  0.2115
 1182TIP3    H125037   5.709   4.411   0.686 -1.0492 -2.2295  1.2279
 1182TIP3    H225038   5.789   4.320   0.594 -0.0009 -0.1909  0.0401
 1183TIP3   OH225039   0.375   5.432   3.030 -0.2391  0.4693 -0.4531
 1183TIP3    H125040   0.422   5.484   2.964  0.2484 -0.5804 -0.9600
 1183TIP3    H225041   0.376   5.343   2.995 -2.0792  0.2989 -0.1709
 1184TIP3   OH225042   5.752   4.825   5.417  0.3503 -0.0659  0.2153
 1184TIP3    H125043   5.760   4.829   5.512 -1.1753  0.7522  0.3466
 1184TIP3    H225044   5.815   4.889   5.385  0.4334  0.1044  0.7127
 1185TIP3   OH225045   2.546   5.813   5.486 -0.1771 -0.4097 -0.6348
 1185TIP3    H125046   2.504   5.730   5.509  0.5392 -1.2609 -2.1737
 1185TIP3    H225047   2.496   5.845   5.411 -0.6367  0.7194  0.1468
 1186TIP3   OH225048   5.990   4.570   3.478  0.0175 -0.3776 -0.2380
 1186TIP3    H125049   6.069   4.620   3.497 -0.9079  1.0316  0.0411
 1186TIP3    H225050   5.968   4.527   3.562 -1.5834  2.2994  0.8577
 1187TIP3   OH225051   1.409   5.100   2.831 -0.5530  0.1607  0.1977
 1187TIP3    H125052   1.456   5.080   2.750  0.2859 -0.2724  0.7807
 1187TIP3    H225053   1.375   5.015   2.860  2.0983 -0.3601  2.1161
 1188TIP3   OH225054   5.448   4.646  16.829 -0.1957  0.1161 -0.5887
 1188TIP3    H125055   5.455   4.737  16.800  1.6266 -0.1393 -1.0688
 1188TIP3    H225056   5.483   4.595  16.756 -1.0735 -0.9818 -0.2758
 1189TIP3   OH225057   2.519   4.184   1.086  0.1329 -0.0441 -0.0332
 1189TIP3    H125058   2.472   4.116   1.135 -0.1405  0.2369  0.0941
 1189TIP3    H225059   2.502   4.163   0.994  0.4286 -0.4174 -0.0030
 1190TIP3   OH225060   4.062   1.352  13.147 -0.2485  0.2631  0.2380
 1190TIP3    H125061   4.130   1.296  13.108 -0.9051 -0.5546  0.2244
 1190TIP3    H225062   4.075   1.437  13.106 -0.4045 -0.3628 -1.2145
 1191TIP3   OH225063   3.041   5.563   2.734  0.2787 -0.0873 -0.2664
 1191TIP3    H125064   3.044   5.651   2.770  1.3889 -0.2177 -0.0108
 1191TIP3    H225065   2.948   5.547   2.717 -0.2019  0.3434  1.6630
 1192TIP3   OH225066   6.531   3.171   1.949 -0.3250  0.5000  0.6876
 1192TIP3    H125067   6.492   3.209   2.028  0.1501 -1.1159  1.7428
 1192TIP3    H225068   6.572   3.090   1.979 -2.3620 -1.5616 -1.6756
 1193TIP3   OH225069   6.539   1.591  17.095 -0.8614 -0.4565 -0.3881
 1193TIP3    H125070   6.463   1.536  17.118 -1.0007  0.7355  2.4476
 1193TIP3    H225071   6.610   1.529  17.082 -1.8249 -1.4932 -0.9149
 1194TIP3   OH225072   3.095   2.099   1.422 -0.7602  0.6583 -0.2094
 1194TIP3    H125073   3.174   2.133   1.379  0.4545 -0.0101  1.3689
 1194TIP3    H225074   3.098   2.136   1.510 -1.4857 -0.4465  0.3021
 1195TIP3   OH225075   5.876   5.300   4.661 -0.1965  0.0930  0.3766
 1195TIP3    H125076   5.908   5.218   4.700  0.8637  0.4295  0.2217
 1195TIP3    H225077   5.936   5.367   4.692 -0.6944  0.7290 -0.0056
 1196TIP3   OH225078   0.004   6.113  16.139  0.0778  0.3143 -0.0982
 1196TIP3    H125079   0.078   6.151  16.188 -0.9117  0.1880  1.5844
 1196TIP3    H225080  -0.073   6.154  16.179 -0.8534 -1.1187 -0.3951
 1197TIP3   OH225081   0.107   5.163  15.066  0.2952 -0.2870  0.0147
 1197TIP3    H125082   0.192   5.203  15.088 -0.0783  1.6374 -1.6326
 1197TIP3    H225083   0.043   5.232  15.083 -0.5414 -0.5362 -1.7933
 1198TIP3   OH225084   3.456   0.776   1.491  0.1647  0.2775 -0.1045
 1198TIP3    H125085   3.542   0.819   1.484 -0.4451  1.9669  1.9848
 1198TIP3    H225086   3.473   0.697   1.542  0.7568 -0.4380 -1.3454
 1199TIP3   OH225087   4.996   2.556   2.973  0.3056  0.5102  0.1695
 1199TIP3    H125088   4.982   2.645   3.007 -0.4868  0.0332  1.1192
 1199TIP3    H225089   4.996   2.500   3.050  1.0798 -0.3007 -0.3963
 1200TIP3   OH225090   4.855   0.257  13.466 -0.0333 -0.0988 -0.3779
 1200TIP3    H125091   4.817   0.344  13.482  0.4891 -0.0717  0.8568
 1200TIP3    H225092   4.781   0.204  13.436 -0.8292  0.2664  0.8314
 1201TIP3   OH225093   6.087   1.618  14.826  0.7584 -1.0399 -0.5778
 1201TIP3    H125094   6.034   1.561  14.770  1.1711 -1.5942 -0.4116
 1201TIP3    H225095   6.100   1.698  14.774 -0.3396 -0.8474 -0.5677
 1202TIP3   OH225096   6.793   2.264   5.430  0.8141  0.4032 -0.1382
 1202TIP3    H125097   6.750   2.213   5.499  1.6561 -0.9399 -0.5644
 1202TIP3    H225098   6.885   2.266   5.456  1.1108  0.0331 -1.1134
 1203TIP3   OH225099   1.494   6.284   5.515 -0.0647 -0.3591 -0.5791
 1203TIP3    H125100   1.577   6.293   5.469  0.0895  0.3950 -0.1777
 1203TIP3    H225101   1.434   6.343   5.468 -0.6983 -1.7169 -1.5515
 1204TIP3   OH225102   2.708   0.937  11.529 -0.1719 -0.2014  0.2826
 1204TIP3    H125103   2.679   0.981  11.449 -0.6833 -0.4997  0.2960
 1204TIP3    H225104   2.772   0.996  11.567 -1.6672  1.0879  0.9103
 1205TIP3   OH225105   4.507   4.133   5.542  0.5038 -0.5102 -0.8238
 1205TIP3    H125106   4.442   4.142   5.473 -1.3019  1.1540  0.9789
 1205TIP3    H225107   4.551   4.218   5.546  0.2549 -0.4205  0.3637
 1206TIP3   OH225108   1.495   2.679   3.905  0.7096  0.3894  0.0521
 1206TIP3    H125109   1.437   2.727   3.845  0.8604 -0.3227 -0.6821
 1206TIP3    H225110   1.443   2.606   3.937  1.3694 -0.6410 -1.1262
 1207TIP3   OH225111   5.735   1.564  14.516 -0.0391 -0.1928  0.0786
 1207TIP3    H125112   5.814   1.563  14.571 -0.0662  1.0059  0.1778
 1207TIP3    H225113   5.715   1.472  14.500  0.8878 -0.5283  0.7665
 1208TIP3   OH225114   3.972   6.495  10.826  0.5413 -0.5776  0.1363
 1208TIP3    H125115   4.035   6.567  10.821 -0.3803  0.3768  1.3313
 1208TIP3    H225116   3.948   6.477  10.735 -0.3335  1.7095 -0.1552
 1209TIP3   OH225117   1.230   4.000  11.860  0.5031 -0.2824 -0.3836
 1209TIP3    H125118   1.139   4.013  11.887  0.6920 -0.3296  0.3017
 1209TIP3    H225119   1.243   4.060  11.788  0.3514  0.7915  0.4607
 1210TIP3   OH225120   2.156   4.195   1.595 -0.3365 -0.1452 -0.1384
 1210TIP3    H125121   2.121   4.125   1.650 -1.0561  0.2529 -0.0847
 1210TIP3    H225122   2.246   4.167   1.576 -0.7403 -1.2843 -0.4559
 1211TIP3   OH225123   0.730   2.797   2.949  0.4536  0.2316  0.5022
 1211TIP3    H125124   0.676   2.759   2.880  1.1348  3.2236 -1.8667
 1211TIP3    H225125   0.819   2.790   2.916  1.4495 -2.3497  3.2444
 1212TIP3   OH225126   3.894   2.124   2.676 -0.2953 -0.1187 -0.6417
 1212TIP3    H125127   3.902   2.174   2.758 -0.4874  0.2635 -0.8497
 1212TIP3    H225128   3.910   2.033   2.702 -1.1835 -0.1204 -0.0183
 1213TIP3   OH225129   6.466   2.436  11.562  0.3559  0.1780  0.1559
 1213TIP3    H125130   6.521   2.511  11.586 -0.1447  0.5917  0.0239
 1213TIP3    H225131   6.522   2.359  11.577  0.8434  0.5712  0.3722
 1214TIP3   OH225132   5.807   4.768  11.172 -0.5966 -0.3165 -0.1540
 1214TIP3    H125133   5.786   4.754  11.079 -2.7129  0.6163  0.1136
 1214TIP3    H225134   5.809   4.680  11.210 -0.5722 -0.6559 -0.9243
 1215TIP3   OH225135   3.208   6.437   0.117 -0.7350 -0.2875  0.1872
 1215TIP3    H125136   3.208   6.350   0.079  1.2917 -0.1088 -0.3396
 1215TIP3    H225137   3.287   6.440   0.172 -1.4659  0.7890  1.2443
 1216TIP3   OH225138   0.690   3.500  13.385  0.5513 -0.0883  0.2446
 1216TIP3    H125139   0.664   3.425  13.439 -1.1007  0.7138  0.6594
 1216TIP3    H225140   0.681   3.575  13.444  0.3865  0.6199 -0.6543
 1217TIP3   OH225141   1.259   0.144  16.554 -0.1405 -0.2138 -0.1226
 1217TIP3    H125142   1.230   0.100  16.634 -1.3190 -1.7115 -1.3205
 1217TIP3    H225143   1.298   0.074  16.501  2.2467  1.0567 -0.1929
 1218TIP3   OH225144   0.836   4.205  13.543 -0.6432 -0.3898 -0.2635
 1218TIP3    H125145   0.753   4.160  13.556 -0.3175 -1.3667 -1.3875
 1218TIP3    H225146   0.813   4.298  13.548 -1.5286 -0.6414  0.9081
 1219TIP3   OH225147   5.604   6.289   4.425  0.2195  0.5039  0.3376
 1219TIP3    H125148   5.561   6.205   4.409 -0.0386  0.7367 -0.2094
 1219TIP3    H225149   5.548   6.354   4.382  0.2408  0.9999  1.0273
 1220TIP3   OH225150   4.438   0.010  15.753 -0.2505 -0.2884 -0.5815
 1220TIP3    H125151   4.421  -0.067  15.699 -0.7611 -0.6429  0.0634
 1220TIP3    H225152   4.510  -0.016  15.810 -1.1455 -0.6970  0.3972
 1221TIP3   OH225153   0.990   0.174  14.609  0.1815 -0.3205 -0.0504
 1221TIP3    H125154   0.973   0.143  14.520 -0.1458 -1.0437  0.2561
 1221TIP3    H225155   0.913   0.225  14.633 -0.6630 -1.7836  0.5334
 1222TIP3   OH225156   1.628   6.437   6.364 -0.1706  0.2859  0.8635
 1222TIP3    H125157   1.536   6.446   6.338 -0.2268 -0.6379  0.6939
 1222TIP3    H225158   1.656   6.526   6.388 -1.5087  0.3483  2.3207
 1223TIP3   OH225159   5.100   2.020  16.540 -0.0066  0.0349 -0.3959
 1223TIP3    H125160   5.071   2.110  16.553 -0.6553  0.0685 -1.9538
 1223TIP3    H225161   5.031   1.967  16.578  0.3549  0.1746  0.4843
 1224TIP3   OH225162   4.995   6.589   0.751  0.9130  0.8232 -0.4871
 1224TIP3    H125163   4.960   6.651   0.687 -0.7039  0.5205  0.0540
 1224TIP3    H225164   4.923   6.528   0.767  2.1442 -0.6212 -0.2750
 1225TIP3   OH225165   1.426   2.900   2.352  0.4185 -0.1536  0.2795
 1225TIP3    H125166   1.345   2.949   2.370 -0.0319 -1.2481  1.4109
 1225TIP3    H225167   1.404   2.809   2.373  1.4777 -0.7261 -0.9623
 1226TIP3   OH225168   0.883   4.658   4.812  0.3921  0.0570  0.2477
 1226TIP3    H125169   0.871   4.591   4.880 -0.0432  0.3757  0.4868
 1226TIP3    H225170   0.974   4.647   4.785 -0.3017 -2.2536 -1.4419
 1227TIP3   OH225171   2.607   0.011  14.549  0.3855  0.9553 -0.4845
 1227TIP3    H125172   2.534  -0.048  14.530  0.7312  0.4406 -0.2325
 1227TIP3    H225173   2.626   0.054  14.465  0.7068  0.0493 -0.8920
 1228TIP3   OH225174   4.496   5.568   5.485  0.0629  0.7098 -0.0729
 1228TIP3    H125175   4.534   5.609   5.562 -1.2149  1.5182  0.1549
 1228TIP3    H225176   4.404   5.591   5.488 -0.7789 -2.3313  0.1291
 1229TIP3   OH225177   5.710   3.250  13.142  0.6753 -0.5323 -0.3937
 1229TIP3    H125178   5.785   3.194  13.120  1.8668  0.7557  0.2593
 1229TIP3    H225179   5.746   3.319  13.198 -1.2564 -0.6118  1.0594
 1230TIP3   OH225180   1.428   6.596   3.399 -0.0571 -0.0783  0.1031
 1230TIP3    H125181   1.438   6.590   3.304 -0.2582 -0.4643  0.1026
 1230TIP3    H225182   1.441   6.506   3.430  2.4175  0.4090  0.6872
 1231TIP3   OH225183   2.446   2.607  12.199  0.3131 -0.7612  0.4190
 1231TIP3    H125184   2.379   2.633  12.263 -0.2040 -0.8356 -0.0843
 1231TIP3    H225185   2.512   2.676  12.204 -0.7577  0.3621 -0.4786
 1232TIP3   OH225186   5.638   3.986   4.803 -0.2820  0.1324  0.8780
 1232TIP3    H125187   5.564   3.992   4.742 -0.2504 -1.5927  0.6134
 1232TIP3    H225188   5.599   3.956   4.885 -0.0157  0.2719  1.0561
 1233TIP3   OH225189   3.796   6.171   5.109  0.3128 -0.0261 -0.4344
 1233TIP3    H125190   3.766   6.175   5.018  1.2620 -1.4455 -0.8451
 1233TIP3    H225191   3.882   6.213   5.107  0.4633 -0.3251 -0.2576
 1234TIP3   OH225192   3.872   5.293   2.407 -0.5593 -0.3291 -0.1626
 1234TIP3    H125193   3.794   5.249   2.440 -1.0207  0.0185 -0.7633
 1234TIP3    H225194   3.874   5.377   2.453 -1.0837  0.0648 -0.8274
 1235TIP3   OH225195   1.295   4.020  12.414 -0.1365 -0.5912  0.2092
 1235TIP3    H125196   1.245   4.101  12.411 -1.5869 -1.4608 -1.0759
 1235TIP3    H225197   1.372   4.036  12.360  0.4837  0.4470  1.3687
 1236TIP3   OH225198   0.779   2.463   3.390  0.1683 -0.2184  0.2947
 1236TIP3    H125199   0.858   2.515   3.406  0.9589  0.2075 -3.8492
 1236TIP3    H225200   0.715   2.526   3.356 -0.9036 -1.0755  0.6438
 1237TIP3   OH225201   4.765   1.712  16.463  0.4752 -0.0415  0.0280
 1237TIP3    H125202   4.856   1.703  16.434  0.5271 -0.2405  0.2503
 1237TIP3    H225203   4.713   1.693  16.385  0.6350  1.3683 -0.4507
 1238TIP3   OH225204   2.231   4.931  11.371 -0.1721 -0.3902 -0.0388
 1238TIP3    H125205   2.140   4.935  11.340 -0.1990 -0.6670  0.0065
 1238TIP3    H225206   2.252   5.022  11.393 -0.6621 -0.4284  0.5971
 1239TIP3   OH225207   6.242   2.725   5.310 -0.0397 -0.2116  0.0493
 1239TIP3    H125208   6.159   2.717   5.356  0.2177  2.1900  1.0909
 1239TIP3    H225209   6.296   2.654   5.344 -1.6475 -1.8943 -0.7498
 1240TIP3   OH225210   6.824   0.732  14.311 -0.4848 -0.5142  0.2912
 1240TIP3    H125211   6.827   0.684  14.228  1.5106 -1.0245  0.6217
 1240TIP3    H225212   6.812   0.664  14.377  1.4361 -0.5106  0.6849
 1241TIP3   OH225213   4.752   5.159  13.318  0.1429  0.2124 -0.4970
 1241TIP3    H125214   4.658   5.143  13.307  0.3539 -1.2665 -0.2302
 1241TIP3    H225215   4.756   5.227  13.386 -0.7147 -0.4610  0.2636
 1242TIP3   OH225216   5.402   3.918  16.741  0.2848  0.2841  0.1428
 1242TIP3    H125217   5.446   3.888  16.820  1.1283  0.0792 -0.3935
 1242TIP3    H225218   5.311   3.889  16.751  0.4493  0.0183  0.8996
 1243TIP3   OH225219   5.468   1.937   0.455 -0.0964  0.3114  0.5305
 1243TIP3    H125220   5.539   1.971   0.400  1.3221 -1.4653  1.1583
 1243TIP3    H225221   5.390   1.943   0.401  0.9556  0.1718 -1.0621
 1244TIP3   OH225222   4.639   4.269  13.617  0.0708  0.5579 -0.7889
 1244TIP3    H125223   4.653   4.224  13.533  1.5510 -0.5402  0.0051
 1244TIP3    H225224   4.551   4.241  13.644 -0.5427  1.1512 -2.0801
 1245TIP3   OH225225   3.412   0.489  12.276  0.0522 -0.0213 -0.0844
 1245TIP3    H125226   3.400   0.428  12.204 -0.0175 -1.7246  1.2916
 1245TIP3    H225227   3.336   0.474  12.333  2.0189 -1.7226  2.3312
 1246TIP3   OH225228   6.577   5.954  12.229 -0.2838 -0.1772  0.2335
 1246TIP3    H125229   6.646   5.888  12.230 -1.1000 -1.1136 -1.6247
 1246TIP3    H225230   6.583   5.995  12.143 -2.1649 -0.4622 -0.0887
 1247TIP3   OH225231   3.016   4.224  15.446  0.8471  0.3855 -0.0339
 1247TIP3    H125232   3.025   4.232  15.351 -1.1225  1.2259 -0.2097
 1247TIP3    H225233   2.923   4.203  15.459  0.6406  2.1100  1.7666
 1248TIP3   OH225234   2.837   5.609   4.922 -0.0365  0.4327  0.0003
 1248TIP3    H125235   2.753   5.569   4.902 -0.2374 -0.2315  1.9154
 1248TIP3    H225236   2.815   5.693   4.963  0.2786  0.8417 -0.6536
 1249TIP3   OH225237   4.998   1.850  11.381 -0.2820  0.4242  0.3103
 1249TIP3    H125238   4.950   1.777  11.418  0.6339  0.1916  1.0675
 1249TIP3    H225239   4.937   1.889  11.318 -1.2585 -0.1691  0.8622
 1250TIP3   OH225240   1.736   2.922  11.742 -0.7886 -0.2442 -0.0435
 1250TIP3    H125241   1.762   2.979  11.814  0.1236 -2.0047  1.1134
 1250TIP3    H225242   1.755   2.972  11.663  1.1675  0.5948  0.8759
 1251TIP3   OH225243   1.619   3.077  14.219  0.1295  0.2878 -0.3291
 1251TIP3    H125244   1.658   3.165  14.216  0.2865  0.2009 -0.8669
 1251TIP3    H225245   1.600   3.056  14.128  0.7833 -0.5455 -0.2879
 1252TIP3   OH225246   0.402   2.466   2.987  0.2902 -0.1015 -0.6203
 1252TIP3    H125247   0.466   2.525   3.026 -1.2256  2.1826 -1.3614
 1252TIP3    H225248   0.392   2.396   3.051  3.1169 -0.3188 -0.2787
 1253TIP3   OH225249   6.601   1.494   0.644 -0.0841 -0.2607  0.7000
 1253TIP3    H125250   6.665   1.552   0.686  0.2477 -0.0278 -0.1034
 1253TIP3    H225251   6.632   1.406   0.665 -0.3965 -0.1620  1.6378
 1254TIP3   OH225252   4.542   1.077   4.196 -0.2560 -0.3856 -0.2929
 1254TIP3    H125253   4.558   1.132   4.119 -0.6375 -0.6922 -0.6031
 1254TIP3    H225254   4.458   1.107   4.230  0.8534  1.1533  1.2651
 1255TIP3   OH225255   1.368   5.484   2.701 -0.4383 -0.5417  0.2149
 1255TIP3    H125256   1.415   5.549   2.649 -0.2139 -1.4077 -0.6811
 1255TIP3    H225257   1.433   5.454   2.766  0.1104 -1.3477 -0.6813
 1256TIP3   OH225258   6.414   6.280  13.088 -0.1871 -0.4776  0.1147
 1256TIP3    H125259   6.460   6.302  13.169  1.2219 -1.7277 -0.3022
 1256TIP3    H225260   6.481   6.281  13.020 -1.0914 -0.7582 -0.8187
 1257TIP3   OH225261   1.204   5.062  11.600 -0.4714 -0.1913  0.1383
 1257TIP3    H125262   1.173   4.983  11.643  1.9398 -2.7604 -2.3765
 1257TIP3    H225263   1.189   5.047  11.507 -2.5236  3.6774 -0.3606
 1258TIP3   OH225264   5.867   1.961   2.447  0.2853  0.4811 -0.5000
 1258TIP3    H125265   5.911   1.877   2.459  1.1034  0.5894 -2.3442
 1258TIP3    H225266   5.874   1.979   2.353 -1.4656  1.7567 -0.4488
 1259TIP3   OH225267   5.944   6.784  13.135  0.2546 -0.1896  0.0575
 1259TIP3    H125268   6.034   6.780  13.167  0.9605  1.7473 -1.4732
 1259TIP3    H225269   5.907   6.698  13.156  1.5655 -0.1389  3.1527
 1260TIP3   OH225270   0.130   5.908   3.920  0.1457 -0.2527  0.2189
 1260TIP3    H125271   0.177   5.989   3.903  0.6340 -0.8789 -1.5795
 1260TIP3    H225272   0.187   5.839   3.887 -0.2755 -1.3555  1.6802
 1261TIP3   OH225273   5.097   6.559   1.361 -0.2841 -0.0031  0.5021
 1261TIP3    H125274   5.167   6.607   1.317 -0.2334  0.8004  1.4381
 1261TIP3    H225275   5.081   6.607   1.442  0.0125 -1.7497  1.6534
 1262TIP3   OH225276   2.856   5.136  11.319  0.0967 -0.0107 -0.0791
 1262TIP3    H125277   2.872   5.200  11.250 -0.7331  1.2181  0.8313
 1262TIP3    H225278   2.838   5.054  11.271 -1.4849  1.0203 -1.3933
 1263TIP3   OH225279   1.239   0.426   0.870 -0.5613 -0.3389  0.4334
 1263TIP3    H125280   1.319   0.432   0.923  0.3759  1.7545 -1.1122
 1263TIP3    H225281   1.172   0.472   0.921 -0.3412 -0.5785  0.9434
 1264TIP3   OH225282   2.855   3.100   2.367  0.2295 -0.3476  0.4658
 1264TIP3    H125283   2.815   3.176   2.325  0.6083  0.8788  2.1992
 1264TIP3    H225284   2.926   3.075   2.308 -1.5458 -1.1166 -1.4947
 1265TIP3   OH225285   2.437   3.315   1.535 -0.1966 -0.2485 -0.3984
 1265TIP3    H125286   2.343   3.324   1.549 -0.0391 -0.4261  0.9472
 1265TIP3    H225287   2.451   3.220   1.531 -0.0787 -0.2207 -0.6675
 1266TIP3   OH225288   4.721   3.477   0.316 -0.0357 -0.3675 -0.5805
 1266TIP3    H125289   4.705   3.466   0.410 -0.4497  1.4830 -0.3814
 1266TIP3    H225290   4.813   3.453   0.304  0.0166 -0.6420  0.3071
 1267TIP3   OH225291   6.154   1.417  10.814  0.0739 -0.2451 -0.0400
 1267TIP3    H125292   6.127   1.507  10.798  1.5341  0.4327  1.0385
 1267TIP3    H225293   6.073   1.367  10.815 -0.5511  0.3548 -4.4225
 1268TIP3   OH225294   2.535   3.222   0.350  0.4671 -0.1101 -0.1137
 1268TIP3    H125295   2.546   3.200   0.442 -0.0325  3.0632  0.8241
 1268TIP3    H225296   2.441   3.229   0.337  0.5742  1.8295 -0.1486
 1269TIP3   OH225297   5.256   5.648   4.488 -0.1518  0.0003 -0.1578
 1269TIP3    H125298   5.346   5.625   4.466 -0.4185 -0.3878 -0.8785
 1269TIP3    H225299   5.207   5.636   4.406 -0.4547  2.3716 -0.3909
 1270TIP3   OH225300   4.583   0.457  12.507  0.1399 -0.3719  0.3805
 1270TIP3    H125301   4.621   0.518  12.444  0.3289 -2.4270 -1.6230
 1270TIP3    H225302   4.489   0.461  12.489  0.2100 -1.0811 -0.1733
 1271TIP3   OH225303   5.233   5.275  15.183 -0.2328  0.1693 -0.9097
 1271TIP3    H125304   5.158   5.333  15.187 -0.0926  0.2836  0.8117
 1271TIP3    H225305   5.208   5.199  15.235  0.2832 -0.4877 -1.5926
 1272TIP3   OH225306   3.399   4.101  13.672 -0.4957 -0.0017 -0.0584
 1272TIP3    H125307   3.490   4.079  13.687 -0.0447  1.9570  0.3665
 1272TIP3    H225308   3.379   4.065  13.586  0.6221 -0.5998 -0.0806
 1273TIP3   OH225309   5.576   6.431  16.995 -0.2735 -0.3296  0.2756
 1273TIP3    H125310   5.650   6.460  16.942 -1.1750  1.7163  0.0633
 1273TIP3    H225311   5.616   6.377  17.064  1.5151  1.2120  0.5262
 1274TIP3   OH225312   0.457   0.585  15.484  0.0492  0.4976  0.7971
 1274TIP3    H125313   0.408   0.515  15.439 -1.2900  2.3590 -0.8280
 1274TIP3    H225314   0.547   0.573  15.454 -0.0005 -0.9673  1.1464
 1275TIP3   OH225315   5.308   4.902   3.629  0.0018  0.3552 -0.4604
 1275TIP3    H125316   5.351   4.984   3.604 -0.1810  1.1942  1.7511
 1275TIP3    H225317   5.375   4.854   3.678 -0.8839  0.7275  1.1725
 1276TIP3   OH225318   1.312   0.961   1.539  0.4366  0.4265 -0.4430
 1276TIP3    H125319   1.385   0.902   1.557  1.5286  2.1971  1.3629
 1276TIP3    H225320   1.348   1.023   1.475 -0.1433  0.1846 -1.0141
 1277TIP3   OH225321   6.324   4.716  11.632  0.1883  0.3446  0.1675
 1277TIP3    H125322   6.260   4.683  11.695 -0.3778 -0.7510 -0.9222
 1277TIP3    H225323   6.390   4.761  11.685 -0.8742  0.4819  1.4201
 1278TIP3   OH225324   1.733   2.822  12.363  0.0208 -0.0579  0.6588
 1278TIP3    H125325   1.816   2.838  12.318 -0.9205  1.2360 -0.7341
 1278TIP3    H225326   1.695   2.747  12.317 -0.2040  0.2352  0.3616
 1279TIP3   OH225327   6.750   1.602   0.849 -0.0923 -0.1989 -0.2519
 1279TIP3    H125328   6.764   1.679   0.906 -0.5751 -0.0353 -0.3459
 1279TIP3    H225329   6.739   1.529   0.910  0.2065 -0.1660 -0.1572
 1280TIP3   OH225330   6.018   1.488  13.402  0.0283 -0.1867 -0.1529
 1280TIP3    H125331   6.033   1.501  13.308 -2.9746  0.8909 -0.5944
 1280TIP3    H225332   5.947   1.425  13.406 -0.4547  0.4209  1.3643
 1281TIP3   OH225333   4.833   6.003   4.809 -0.3592  0.2351 -0.2780
 1281TIP3    H125334   4.919   5.960   4.803 -1.1401 -1.1675 -2.7474
 1281TIP3    H225335   4.805   5.988   4.899  1.5140 -0.2003  0.2828
 1282TIP3   OH225336   5.383   5.637   0.743 -0.2291  0.4158  0.0467
 1282TIP3    H125337   5.450   5.569   0.756  0.2740  1.0357  0.7185
 1282TIP3    H225338   5.322   5.625   0.815  1.8067  2.9461  2.4200
 1283TIP3   OH225339   2.241   2.818   3.032  0.5626  0.7216  0.0805
 1283TIP3    H125340   2.162   2.771   3.057  0.5017  1.2706  0.9667
 1283TIP3    H225341   2.297   2.751   2.993 -0.0007  0.1568  0.2220
 1284TIP3   OH225342   1.891   1.919  14.873  0.0841  0.5762 -0.0151
 1284TIP3    H125343   1.975   1.875  14.864 -0.0874  0.2476  0.0035
 1284TIP3    H225344   1.902   1.976  14.950  0.4859  0.9856 -0.3697
 1285TIP3   OH225345   6.345   1.421  17.149  0.1159 -0.3117 -0.0495
 1285TIP3    H125346   6.300   1.398  17.230  1.0091 -1.1153  0.2360
 1285TIP3    H225347   6.382   1.338  17.117 -0.8515 -0.1584 -1.6894
 1286TIP3   OH225348   6.573   3.353   4.004  0.0938  0.0403  0.2393
 1286TIP3    H125349   6.499   3.302   4.035  0.3564  0.2188  1.1768
 1286TIP3    H225350   6.591   3.416   4.074  0.1573  1.0311 -0.6365
 1287TIP3   OH225351   3.632   6.514   1.851 -0.1082 -0.7651  0.2643
 1287TIP3    H125352   3.559   6.453   1.861 -0.6523 -0.2972 -0.7388
 1287TIP3    H225353   3.668   6.523   1.940 -3.4922  1.7538  1.6149
 1288TIP3   OH225354   0.202   1.547   3.224 -0.1974  0.1940  0.2337
 1288TIP3    H125355   0.152   1.572   3.146 -0.9060 -0.4171  0.4802
 1288TIP3    H225356   0.165   1.462   3.250  0.2508  0.2366  1.0414
 1289TIP3   OH225357   3.925   6.712  17.208  0.2531  0.6452  0.7010
 1289TIP3    H125358   3.878   6.780  17.160 -0.4628 -1.4894 -1.8270
 1289TIP3    H225359   3.856   6.654  17.241  0.8638 -1.4828 -1.4329
 1290TIP3   OH225360   4.803   1.207  16.388  0.3544  0.3083 -0.5838
 1290TIP3    H125361   4.865   1.279  16.381  0.1488  0.7532  1.5178
 1290TIP3    H225362   4.734   1.239  16.447 -0.1784 -1.2981 -0.2596
 1291TIP3   OH225363   1.625   3.752   3.134 -0.4382 -0.0152  0.3349
 1291TIP3    H125364   1.555   3.802   3.176 -1.5664 -0.6806 -0.6820
 1291TIP3    H225365   1.582   3.672   3.104  0.8739 -0.6512  0.0804
 1292TIP3   OH225366   2.814   2.948   1.911 -0.2741  0.1704 -0.2467
 1292TIP3    H125367   2.906   2.961   1.934 -0.5618  0.6113  0.6829
 1292TIP3    H225368   2.779   3.037   1.904 -0.9803 -0.0013  0.8679
 1293TIP3   OH225369   1.609   2.180   2.390 -0.1530 -0.4791  0.3309
 1293TIP3    H125370   1.573   2.252   2.442 -0.1849  1.0362 -1.6672
 1293TIP3    H225371   1.580   2.101   2.436  0.0121  0.7408  2.6858
 1294TIP3   OH225372   3.886   5.448   3.637  0.0448  0.0535 -0.6379
 1294TIP3    H125373   3.963   5.436   3.582  0.2082 -0.9485 -0.2115
 1294TIP3    H225374   3.917   5.428   3.726 -0.8608 -1.0867 -0.5577
 1295TIP3   OH225375   2.564   4.439   3.166 -0.7351  0.1374  0.1453
 1295TIP3    H125376   2.584   4.501   3.097  0.5834  0.0733  0.4495
 1295TIP3    H225377   2.634   4.374   3.163 -2.5090 -1.8806 -0.7206
 1296TIP3   OH225378   5.940   3.503   0.871  0.5046  0.2106  0.1830
 1296TIP3    H125379   5.881   3.435   0.838  1.0761  0.2661 -1.0168
 1296TIP3    H225380   5.892   3.544   0.943 -1.9886  1.8153 -2.1702
 1297TIP3   OH225381   1.309   3.029  11.575  0.5975 -0.2434 -0.0411
 1297TIP3    H125382   1.250   2.953  11.582  0.6219 -0.1721  1.0156
 1297TIP3    H225383   1.370   3.019  11.648  1.6382 -0.0808 -0.8697
 1298TIP3   OH225384   0.383   0.060   1.179  0.0421  0.6226 -0.0045
 1298TIP3    H125385   0.377  -0.000   1.105  0.9512  0.7705 -0.2090
 1298TIP3    H225386   0.428   0.009   1.247 -1.6060  0.1695  0.8005
 1299TIP3   OH225387   5.825   6.332   1.363 -0.3680 -1.0574  0.7343
 1299TIP3    H125388   5.730   6.320   1.352 -1.0559  3.0135  0.7689
 1299TIP3    H225389   5.835   6.361   1.453  0.8502 -0.9467  0.5705
 1300TIP3   OH225390   5.066   6.519  12.468  0.2694  0.2188  0.3048
 1300TIP3    H125391   5.135   6.540  12.404 -1.6467  3.4611 -0.9125
 1300TIP3    H225392   5.018   6.447  12.428  2.0701 -1.2167  0.5726
 1301TIP3   OH225393   0.580   4.378  16.691 -0.4904 -0.6013 -0.3325
 1301TIP3    H125394   0.510   4.314  16.707 -1.9451  1.2340  1.0619
 1301TIP3    H225395   0.647   4.357  16.756 -0.0891 -1.8421 -1.1175
 1302TIP3   OH225396   2.574   3.614   2.272 -0.3556  0.2993  0.3287
 1302TIP3    H125397   2.488   3.578   2.295 -0.5657  0.4463 -0.2269
 1302TIP3    H225398   2.580   3.695   2.323 -0.6463  0.4117  0.1845
 1303TIP3   OH225399   2.551   0.376  12.650  0.7608 -0.1575 -0.4868
 1303TIP3    H125400   2.577   0.334  12.731  0.7795 -0.8085 -0.8187
 1303TIP3    H225401   2.545   0.469  12.671  0.5548 -0.3458  0.3077
 1304TIP3   OH225402   2.726   5.352  12.944 -0.2746  0.0410 -1.0727
 1304TIP3    H125403   2.666   5.380  12.875 -1.2002 -1.6110 -0.9797
 1304TIP3    H225404   2.765   5.434  12.976 -2.9494  1.2800 -0.6951
 1305TIP3   OH225405   4.405   0.751   1.222 -0.0098  0.3064 -0.8318
 1305TIP3    H125406   4.459   0.736   1.144  1.2907  1.1017 -0.1010
 1305TIP3    H225407   4.319   0.773   1.186  0.2902 -0.3455 -2.0240
 1306TIP3   OH225408   6.485   5.603   5.262 -0.4393  0.6093  0.1920
 1306TIP3    H125409   6.504   5.617   5.170 -1.0838  0.7094  0.0680
 1306TIP3    H225410   6.402   5.648   5.277 -1.3430 -1.0436  0.3630
 1307TIP3   OH225411   6.669   0.730  15.627 -1.0676 -0.1646 -0.2704
 1307TIP3    H125412   6.756   0.768  15.641 -0.7871 -1.0724  0.6288
 1307TIP3    H225413   6.633   0.779  15.553 -0.6582  1.6848  0.6866
 1308TIP3   OH225414   6.090   0.873   0.606 -0.3241  0.2504  0.5093
 1308TIP3    H125415   6.140   0.926   0.544 -2.8556  0.5758 -1.4038
 1308TIP3    H225416   6.068   0.933   0.676 -0.0824  0.7324  0.1809
 1309TIP3   OH225417   2.881   5.771  16.087  0.1698  0.1217  0.0263
 1309TIP3    H125418   2.889   5.853  16.135  2.8175  0.3385 -0.5983
 1309TIP3    H225419   2.825   5.792  16.012 -0.3156  0.9599  0.6072
 1310TIP3   OH225420   2.255   3.051   2.014  0.9132  0.2528 -0.0257
 1310TIP3    H125421   2.303   3.015   1.939 -0.8343 -1.1359 -0.5544
 1310TIP3    H225422   2.216   2.975   2.056 -0.6437  1.2852  0.4799
 1311TIP3   OH225423   0.077   0.786   2.629 -0.1068  0.3570 -0.2789
 1311TIP3    H125424   0.116   0.703   2.656 -0.8577  0.3018  0.7014
 1311TIP3    H225425  -0.013   0.781   2.661 -0.2786  1.3815 -0.5750
 1312TIP3   OH225426   3.834   2.278   0.181  0.5567 -0.1547 -0.4949
 1312TIP3    H125427   3.755   2.260   0.131  0.7009 -0.9787 -0.4380
 1312TIP3    H225428   3.821   2.231   0.264  1.0993 -0.2874 -0.4828
 1313TIP3   OH225429   2.603   4.796   0.024 -0.2292 -0.1090  0.0939
 1313TIP3    H125430   2.589   4.861   0.093 -0.3804 -0.1899  0.1392
 1313TIP3    H225431   2.671   4.835  -0.031  1.3419 -0.8950  1.3862
 1314TIP3   OH225432   2.843   0.161  10.853 -0.5882 -0.2482  0.0827
 1314TIP3    H125433   2.825   0.097  10.784 -0.7914 -0.5599  0.4176
 1314TIP3    H225434   2.763   0.161  10.906 -0.2742 -0.3274  0.5608
 1315TIP3   OH225435   5.332   5.384  12.302  0.4859 -0.1207 -0.5894
 1315TIP3    H125436   5.238   5.386  12.285  0.1759 -0.2282  0.9726
 1315TIP3    H225437   5.341   5.335  12.384  1.9408 -0.4291 -0.9081
 1316TIP3   OH225438   0.920   5.268  13.893 -0.3388  0.5322 -0.0670
 1316TIP3    H125439   0.836   5.223  13.902 -0.5784  0.9929  0.0227
 1316TIP3    H225440   0.919   5.301  13.803  1.4594 -2.8795 -1.5267
 1317TIP3   OH225441   4.161   6.420   1.268 -0.2161 -0.2165 -0.2723
 1317TIP3    H125442   4.102   6.444   1.197 -0.2296 -0.5125 -0.3645
 1317TIP3    H225443   4.103   6.398   1.341 -0.1797  1.3009  0.2412
 1318TIP3   OH225444   6.778   0.459  12.880  0.2221 -0.0409  0.1095
 1318TIP3    H125445   6.819   0.385  12.834  0.1194 -0.0514  0.0347
 1318TIP3    H225446   6.831   0.535  12.856 -0.2358  0.0672 -0.5678
 1319TIP3   OH225447   2.115   3.161   1.563  0.1955  0.3471 -0.1870
 1319TIP3    H125448   2.119   3.111   1.482 -2.6749 -0.3820  0.0129
 1319TIP3    H225449   2.097   3.095   1.630  1.8905  1.0144  0.9788
 1320TIP3   OH225450   5.781   1.919  14.256  0.1860 -0.1625  0.7010
 1320TIP3    H125451   5.804   2.009  14.232 -1.1420 -0.3200 -1.4014
 1320TIP3    H225452   5.746   1.881  14.176  0.0259 -2.3545  1.7362
 1321TIP3   OH225453   3.273   0.514  12.681  0.0463  1.0749 -0.2743
 1321TIP3    H125454   3.182   0.494  12.701  1.0621 -2.8745  1.2120
 1321TIP3    H225455   3.300   0.576  12.749 -0.7860  0.0368  1.0271
 1322TIP3   OH225456   5.439   2.876   3.823 -0.0483  0.0882  0.0330
 1322TIP3    H125457   5.354   2.893   3.863  0.1221  0.2931  0.3184
 1322TIP3    H225458   5.423   2.879   3.729 -0.4761 -0.5042  0.0890
 1323TIP3   OH225459   5.334   0.370  13.324  0.0672  0.3628  0.1490
 1323TIP3    H125460   5.394   0.436  13.358  0.8190  0.4964 -1.3756
 1323TIP3    H225461   5.308   0.402  13.238 -0.2409 -0.9058 -0.2531
 1324TIP3   OH225462   6.052   6.017   1.265 -0.4636 -0.0434  0.4757
 1324TIP3    H125463   5.980   6.012   1.328 -1.1157  0.3656 -0.2169
 1324TIP3    H225464   6.027   6.089   1.206 -0.4060 -1.1313 -0.9190
 1325TIP3   OH225465   3.066   6.612   5.740  0.0327 -0.0989  0.8583
 1325TIP3    H125466   3.080   6.704   5.764 -0.9332  0.1737  0.4615
 1325TIP3    H225467   3.059   6.566   5.823  1.9578 -0.0856  1.0756
 1326TIP3   OH225468   3.218   5.502  13.091 -0.3402  0.0969  0.4503
 1326TIP3    H125469   3.197   5.471  13.179 -1.9183 -1.1941 -0.3452
 1326TIP3    H225470   3.263   5.428  13.049 -1.5763 -0.1387 -0.5281
 1327TIP3   OH225471   6.057   0.901  13.367  0.0151 -0.5857 -0.4618
 1327TIP3    H125472   6.039   0.846  13.443 -1.7491 -0.6725 -0.8888
 1327TIP3    H225473   6.064   0.990  13.403 -0.2563 -0.7000 -0.1201
 1328TIP3   OH225474   4.544   6.149   1.521  0.1016 -0.5405  0.4406
 1328TIP3    H125475   4.502   6.114   1.600  1.0566 -2.0935  0.3084
 1328TIP3    H225476   4.620   6.092   1.507  0.2693  0.0425 -1.2843
 1329TIP3   OH225477   4.755   5.836   1.837  0.1386  0.0603  0.1456
 1329TIP3    H125478   4.761   5.918   1.885  0.0662  1.1347 -1.6042
 1329TIP3    H225479   4.843   5.819   1.805  0.3820 -1.1191  1.3506
 1330TIP3   OH225480   3.495   6.725   4.863 -0.2075  0.1145 -0.0746
 1330TIP3    H125481   3.468   6.674   4.786 -0.5473  0.3282 -0.0975
 1330TIP3    H225482   3.427   6.707   4.928 -0.2870  0.4820 -0.0574
 1331TIP3   OH225483   6.249   3.955   3.929 -0.3337  0.4429  0.6688
 1331TIP3    H125484   6.211   3.970   4.016 -1.1995  0.4214  0.3057
 1331TIP3    H225485   6.341   3.980   3.938 -0.5207  0.8627  1.4774
 1332TIP3   OH225486   0.800   4.394   2.100 -0.3468  0.3505 -0.4020
 1332TIP3    H125487   0.859   4.432   2.035 -0.4335  0.2655 -0.5313
 1332TIP3    H225488   0.753   4.326   2.053 -0.0082 -0.0928 -0.1090
 1333TIP3   OH225489   1.839   0.414   0.169 -0.0853 -0.2195 -0.6891
 1333TIP3    H125490   1.767   0.367   0.212 -0.7334  0.9977 -0.3955
 1333TIP3    H225491   1.813   0.506   0.174 -0.7574 -0.0173 -4.6824
 1334TIP3   OH225492   3.316   4.140  15.319  0.0770 -0.5104  0.0293
 1334TIP3    H125493   3.277   4.194  15.250 -0.9036 -0.3494  0.6865
 1334TIP3    H225494   3.266   4.059  15.318 -0.1335 -0.3953  0.7293
 1335TIP3   OH225495   2.202   4.438  12.051  0.5137 -0.4121  0.7209
 1335TIP3    H125496   2.272   4.450  12.115 -0.9208  3.4834  1.8662
 1335TIP3    H225497   2.128   4.488  12.087 -0.7340  1.1416 -3.4238
 1336TIP3   OH225498   1.031   3.766  16.124 -0.1223  0.4651 -0.2053
 1336TIP3    H125499   0.988   3.762  16.039 -1.6187  3.0493  0.3226
 1336TIP3    H225500   0.975   3.824  16.176  1.7182  0.4193  1.9582
 1337TIP3   OH225501   6.481   2.844   4.705  0.3458  0.8491  0.3849
 1337TIP3    H125502   6.506   2.752   4.695 -0.0397  0.7036  0.7907
 1337TIP3    H225503   6.456   2.871   4.617 -1.7009 -0.0607  0.6336
 1338TIP3   OH225504   4.209   5.606  16.167 -0.2450  0.2254 -0.5948
 1338TIP3    H125505   4.235   5.567  16.250 -0.4190  1.1587 -0.0849
 1338TIP3    H225506   4.173   5.533  16.116  1.4212 -0.6847 -0.5206
 1339TIP3   OH225507   5.521   4.327  15.236  0.1360  0.0594  0.3057
 1339TIP3    H125508   5.435   4.354  15.205 -0.1654 -1.2440 -0.0298
 1339TIP3    H225509   5.504   4.279  15.317  0.5879  0.1360  0.4514
 1340TIP3   OH225510   0.593   5.139  12.096  0.2547  0.0483  0.2915
 1340TIP3    H125511   0.671   5.164  12.046  0.0417  1.3317  0.5604
 1340TIP3    H225512   0.624   5.129  12.186  0.1526  0.3630  0.3636
 1341TIP3   OH225513   1.290   5.020  15.889 -0.8909  0.0129 -0.4319
 1341TIP3    H125514   1.239   5.011  15.809 -2.3515 -1.3023  0.5872
 1341TIP3    H225515   1.266   5.106  15.924 -4.3871 -1.4636  1.2329
 1342TIP3   OH225516   2.005   4.237  15.701 -0.0430  0.8185 -0.8566
 1342TIP3    H125517   2.077   4.215  15.642 -1.1282 -1.6248 -1.3706
 1342TIP3    H225518   2.028   4.196  15.784 -1.1122 -0.5705 -1.2164
 1343TIP3   OH225519   3.145   5.924   0.049  0.3785  0.2197 -0.2533
 1343TIP3    H125520   3.154   5.995   0.113 -2.1897 -0.1731  0.6535
 1343TIP3    H225521   3.182   5.847   0.093  0.2813  0.3407  0.0406
 1344TIP3   OH225522   4.954   3.345   6.806 -0.1369 -1.0612 -0.2855
 1344TIP3    H125523   4.930   3.331   6.714 -2.6632 -2.1367  0.4453
 1344TIP3    H225524   5.040   3.304   6.815 -0.5880 -2.4600 -1.8055
 1345TIP3   OH225525   2.122   2.225  13.522 -0.1971 -0.1030  0.4001
 1345TIP3    H125526   2.086   2.224  13.434 -1.6973 -0.9127  0.9794
 1345TIP3    H225527   2.195   2.286  13.518  0.4736 -0.9673 -1.6577
 1346TIP3   OH225528   4.910   4.567  14.745  0.0390 -0.2558  0.7091
 1346TIP3    H125529   4.882   4.652  14.780 -1.4263  0.4881 -1.9733
 1346TIP3    H225530   4.828   4.521  14.725  0.8150 -1.9266  1.2428
 1347TIP3   OH225531   0.596   4.761   2.659 -0.1280 -0.6719  0.0620
 1347TIP3    H125532   0.581   4.841   2.609  0.1934 -0.5294  0.1949
 1347TIP3    H225533   0.678   4.776   2.705  0.2949 -1.3459 -0.4514
 1348TIP3   OH225534   5.107   4.278  13.339  0.3006  0.2401  0.2329
 1348TIP3    H125535   5.057   4.304  13.262 -0.5216  0.0667  0.6912
 1348TIP3    H225536   5.136   4.361  13.378 -0.3124  0.3746  0.4022
 1349TIP3   OH225537   3.842   0.675  14.968  0.2906  0.5586 -0.4038
 1349TIP3    H125538   3.760   0.699  14.924  0.7149  1.8594 -0.5225
 1349TIP3    H225539   3.828   0.585  14.996 -2.0115  1.3892  1.4748
 1350TIP3   OH225540   3.877   2.930   3.895  0.1607  0.6073  0.5471
 1350TIP3    H125541   3.876   2.925   3.799  2.6392  1.0855  0.4453
 1350TIP3    H225542   3.816   2.861   3.923  0.1423 -0.2045 -1.3478
 1351TIP3   OH225543   3.073   3.937   2.619 -0.2523  0.2550  0.5834
 1351TIP3    H125544   3.144   3.987   2.579  0.1747 -2.0103 -1.7129
 1351TIP3    H225545   3.098   3.930   2.711  2.2405  0.0467 -0.0369
 1352TIP3   OH225546   4.859   3.256  16.143  0.0960  0.5688 -0.4853
 1352TIP3    H125547   4.873   3.351  16.145 -0.7257  0.7880 -2.5424
 1352TIP3    H225548   4.943   3.219  16.117  0.3492  0.7440  0.0742
 1353TIP3   OH225549   0.341   6.542  15.247  0.5356 -0.1989  0.1717
 1353TIP3    H125550   0.373   6.503  15.165 -0.2971  1.7044 -1.1140
 1353TIP3    H225551   0.257   6.499  15.262 -0.9604  1.8022 -1.8930
 1354TIP3   OH225552   2.706   4.659   2.994 -0.3928 -0.3595  0.1732
 1354TIP3    H125553   2.722   4.652   2.900 -1.5809  0.2748 -0.1066
 1354TIP3    H225554   2.788   4.632   3.035 -0.7437 -3.5534 -0.9473
 1355TIP3   OH225555   5.433   2.532   3.369  0.6463  0.8597  0.3931
 1355TIP3    H125556   5.347   2.526   3.327  1.0666 -0.1290 -0.3730
 1355TIP3    H225557   5.445   2.625   3.386 -0.5261  1.0198  0.4008
 1356TIP3   OH225558   3.480   4.716   1.251  0.1418 -0.1830 -0.5393
 1356TIP3    H125559   3.519   4.692   1.167  2.5913 -0.2045  0.5373
 1356TIP3    H225560   3.389   4.736   1.230  0.2979 -1.6310 -2.9411
 1357TIP3   OH225561   5.954   2.054   1.188  0.4851 -0.1684  0.2266
 1357TIP3    H125562   5.968   1.993   1.261 -0.8343  0.6127  1.2062
 1357TIP3    H225563   5.962   2.140   1.228 -1.1726  0.2826 -0.3067
 1358TIP3   OH225564   2.585   5.455  11.533 -0.5164  0.4416  0.0265
 1358TIP3    H125565   2.591   5.359  11.537 -1.3556  0.4295  1.4470
 1358TIP3    H225566   2.628   5.478  11.450 -1.3355 -1.2440 -0.9162
 1359TIP3   OH225567   4.515   5.896   4.896  0.0000 -0.0461  0.4303
 1359TIP3    H125568   4.458   5.973   4.893  2.0580  1.5468 -2.2442
 1359TIP3    H225569   4.575   5.913   4.968 -0.6315  0.0078  0.9488
 1360TIP3   OH225570   2.225   3.439   0.192 -0.0305  0.3083  0.0319
 1360TIP3    H125571   2.239   3.463   0.283 -1.4562 -0.7029  0.5612
 1360TIP3    H225572   2.169   3.508   0.157 -1.3290 -0.4077  0.5959
 1361TIP3   OH225573   3.746   5.351  11.067  0.3531  0.0619 -0.3670
 1361TIP3    H125574   3.764   5.267  11.110 -2.0109 -0.0936  0.4053
 1361TIP3    H225575   3.717   5.327  10.979 -1.5716 -0.0534  0.2654
 1362TIP3   OH225576   5.490   2.515   5.723 -0.2496 -0.1969  0.1601
 1362TIP3    H125577   5.498   2.454   5.650  0.6031  0.2906 -0.1565
 1362TIP3    H225578   5.562   2.577   5.712 -1.3647  1.1763  0.1944
 1363TIP3   OH225579   5.981   2.057   0.668 -0.6212  0.2329 -0.1304
 1363TIP3    H125580   5.907   1.999   0.649 -0.3439 -0.2499  0.2466
 1363TIP3    H225581   5.965   2.089   0.756 -1.3280  1.5970 -0.7221
 1364TIP3   OH225582   5.730   6.451   1.945  0.2954  0.0137 -0.0870
 1364TIP3    H125583   5.732   6.368   1.992  1.6068 -0.5198 -1.0193
 1364TIP3    H225584   5.736   6.518   2.013  1.5310 -0.7221  0.5640
 1365TIP3   OH225585   4.148   5.188  10.590 -0.1335 -0.1225  0.0391
 1365TIP3    H125586   4.101   5.165  10.670  1.5319  0.3306  1.1985
 1365TIP3    H225587   4.112   5.274  10.565 -0.6832 -0.2840  0.2473
 1366TIP3   OH225588   0.265   4.112   0.458  0.4047 -0.3527  0.0441
 1366TIP3    H125589   0.297   4.061   0.384 -0.4921 -1.4291  0.3819
 1366TIP3    H225590   0.333   4.103   0.525  0.8871  0.0431 -0.3847
 1367TIP3   OH225591   5.553   0.956  15.466  0.0202  0.0627  0.2917
 1367TIP3    H125592   5.564   0.870  15.505 -1.4984 -0.5584 -0.5778
 1367TIP3    H225593   5.634   0.972  15.418  0.1923 -1.0055  0.2175
 1368TIP3   OH225594   5.434   0.167   0.372  0.0293 -0.1467  0.1553
 1368TIP3    H125595   5.478   0.102   0.427 -0.6036 -0.8113 -0.1092
 1368TIP3    H225596   5.493   0.178   0.297  0.1010 -0.4838  0.1589
 1369TIP3   OH225597   1.469   2.491   4.743 -0.4785 -0.0412 -0.1521
 1369TIP3    H125598   1.532   2.563   4.742  1.4105 -1.6119 -0.2530
 1369TIP3    H225599   1.498   2.432   4.674 -0.9167 -1.7327  1.0226
 1370TIP3   OH225600   4.683   4.620  14.375 -0.1395  0.3070  0.2374
 1370TIP3    H125601   4.597   4.649  14.402 -0.1892  0.2421  0.1484
 1370TIP3    H225602   4.675   4.605  14.280  0.0561  0.6180  0.1719
 1371TIP3   OH225603   5.427   5.209  12.564  0.1430  0.1178 -0.7317
 1371TIP3    H125604   5.472   5.293  12.561  0.6054 -0.1478 -1.5839
 1371TIP3    H225605   5.390   5.204  12.652  0.4555  1.0284 -0.5450
 1372TIP3   OH225606   1.358   5.746   2.372  0.5984 -0.3648 -0.1082
 1372TIP3    H125607   1.436   5.699   2.344  0.7374 -0.1055 -0.1652
 1372TIP3    H225608   1.370   5.835   2.338 -0.1465 -0.5439 -0.9068
 1373TIP3   OH225609   4.433   1.935   1.287 -0.0726  0.3268 -0.2712
 1373TIP3    H125610   4.412   1.984   1.367  1.1602  1.5062 -0.6180
 1373TIP3    H225611   4.354   1.885   1.268 -0.5848  0.4464  1.3778
 1374TIP3   OH225612   3.766   0.444   2.902 -0.5254 -0.1437  0.6292
 1374TIP3    H125613   3.778   0.433   2.997 -1.7255 -0.1690  0.7958
 1374TIP3    H225614   3.850   0.417   2.864 -0.3837 -1.1703  1.6144
 1375TIP3   OH225615   3.210   1.222   2.012  0.2770  0.6176 -0.2412
 1375TIP3    H125616   3.234   1.134   2.044  0.6355  0.0105 -2.0727
 1375TIP3    H225617   3.294   1.265   1.997  0.1001  1.1908  0.3750
 1376TIP3   OH225618   1.224   1.999   3.543  0.3850 -0.2022  0.9487
 1376TIP3    H125619   1.155   1.936   3.563  0.9045 -0.5208  1.7976
 1376TIP3    H225620   1.192   2.083   3.576  0.4220 -0.3600  1.3869
 1377TIP3   OH225621   1.469   3.710   0.607  0.2486 -0.7045  0.1348
 1377TIP3    H125622   1.486   3.616   0.610 -2.1508 -1.1880  1.0621
 1377TIP3    H225623   1.449   3.734   0.697 -0.8528  0.3067 -0.3454
 1378TIP3   OH225624   2.509   4.610  14.462 -0.1815 -0.3672  0.2492
 1378TIP3    H125625   2.563   4.686  14.482 -1.8494  0.7392  0.7368
 1378TIP3    H225626   2.431   4.621  14.517 -1.2829 -1.4753 -1.0184
 1379TIP3   OH225627   2.004   3.288  12.652 -0.5800 -0.1311  0.6838
 1379TIP3    H125628   2.040   3.344  12.721  1.1483 -0.8330  0.3987
 1379TIP3    H225629   1.915   3.321  12.639 -0.2107  1.4029  1.7337
 1380TIP3   OH225630   0.360   5.750   2.221 -0.0774  0.4886  0.1169
 1380TIP3    H125631   0.453   5.774   2.220  0.0016  0.1899  0.0225
 1380TIP3    H225632   0.359   5.662   2.259 -0.1679 -0.1216 -1.2445
 1381TIP3   OH225633   3.651   4.386  14.605  0.4305  0.2050  0.1477
 1381TIP3    H125634   3.679   4.341  14.526  0.9857 -0.3481  0.6410
 1381TIP3    H225635   3.607   4.318  14.657 -0.6278  0.7473 -0.0192
 1382TIP3   OH225636   1.988   2.748  15.420 -0.1955 -0.0481  0.6074
 1382TIP3    H125637   2.056   2.709  15.364 -0.4686  0.4954 -0.1097
 1382TIP3    H225638   1.945   2.672  15.460  0.7188 -0.4096  0.9486
 1383TIP3   OH225639   1.068   5.688   4.848  0.5295  0.2968  0.2414
 1383TIP3    H125640   1.058   5.711   4.941 -0.1529  2.4334 -0.3249
 1383TIP3    H225641   0.992   5.726   4.805  0.3830 -1.4017 -1.1247
 1384TIP3   OH225642   4.239   0.306  14.513  0.6616  0.5586 -0.5535
 1384TIP3    H125643   4.322   0.261  14.531 -0.6147 -1.8441 -0.1702
 1384TIP3    H225644   4.223   0.358  14.592  0.7944 -0.6565  0.3086
 1385TIP3   OH225645   4.165   0.184   0.915 -0.6805 -0.0036 -0.1056
 1385TIP3    H125646   4.133   0.138   0.992  1.5261 -0.1395  0.7959
 1385TIP3    H225647   4.199   0.267   0.949  2.5139 -1.0366 -0.4472
 1386TIP3   OH225648   3.543   6.736  12.609 -0.3588  0.0320 -0.0421
 1386TIP3    H125649   3.501   6.708  12.690  1.7204 -0.4666  0.9128
 1386TIP3    H225650   3.508   6.678  12.542 -0.1085 -1.3380  0.9906
 1387TIP3   OH225651   3.646   5.206   2.547 -0.4617  0.2380  0.2092
 1387TIP3    H125652   3.635   5.112   2.562 -0.8445  0.5131  1.7563
 1387TIP3    H225653   3.613   5.248   2.626 -1.4720  1.7639 -0.9501
 1388TIP3   OH225654   4.561   0.954  15.604  0.1088 -0.3942  0.3290
 1388TIP3    H125655   4.515   0.947  15.520 -2.3054  0.1696  1.5142
 1388TIP3    H225656   4.598   1.043  15.603 -1.0383  0.1061  0.3589
 1389TIP3   OH225657   2.015   2.517   1.280  0.1315 -0.4947 -0.3903
 1389TIP3    H125658   2.013   2.545   1.372 -0.1672  0.0789 -0.5725
 1389TIP3    H225659   1.985   2.426   1.283 -0.2073 -0.3755  0.0418
 1390TIP3   OH225660   1.965   1.301   1.016  0.0182 -0.2458 -0.1305
 1390TIP3    H125661   1.913   1.239   1.067  0.7823 -0.2984  0.5974
 1390TIP3    H225662   2.018   1.246   0.958  0.3557 -0.2533  0.1855
 1391TIP3   OH225663   5.809   1.073  15.701  0.1911 -0.3323 -0.0027
 1391TIP3    H125664   5.878   1.034  15.755 -0.2502 -0.9220  0.1479
 1391TIP3    H225665   5.732   1.019  15.719 -0.1936  0.0451 -0.5114
 1392TIP3   OH225666   2.795   2.017  15.321  0.2583 -0.5446  0.0888
 1392TIP3    H125667   2.724   2.080  15.337 -0.2985 -0.8592 -1.0018
 1392TIP3    H225668   2.760   1.933  15.352  0.4358 -0.5756  0.2070
 1393TIP3   OH225669   6.601   0.291  15.535  0.4815 -0.9347  0.3068
 1393TIP3    H125670   6.573   0.376  15.502  0.6279 -1.4785 -1.3036
 1393TIP3    H225671   6.656   0.312  15.611  2.7613  0.6029 -1.6145
 1394TIP3   OH225672   1.570   2.114   1.664  0.0450 -0.2714  0.0058
 1394TIP3    H125673   1.531   2.053   1.601  0.1876  0.0137 -0.3697
 1394TIP3    H225674   1.644   2.152   1.616 -1.0416  1.4673 -0.3908
 1395TIP3   OH225675   3.995   3.980  11.932 -0.3165 -0.1436 -0.7498
 1395TIP3    H125676   3.911   3.935  11.929 -1.6533  2.2010 -1.0396
 1395TIP3    H225677   3.996   4.021  12.019  0.2452  0.3573 -0.9883
 1396TIP3   OH225678   6.035   3.575  11.565 -0.2899  0.2391  0.6547
 1396TIP3    H125679   6.045   3.648  11.626  2.0947  0.4388  0.1385
 1396TIP3    H225680   6.124   3.558  11.534 -1.2920 -0.2750 -2.2801
 1397TIP3   OH225681   2.620   0.587  12.200 -0.2244  0.1393 -0.1641
 1397TIP3    H125682   2.553   0.627  12.146 -1.2545  1.0906  1.7230
 1397TIP3    H225683   2.644   0.506  12.153 -2.9814 -0.4738 -0.6857
 1398TIP3   OH225684   4.254   2.596  16.934 -0.4298 -0.4890  0.2599
 1398TIP3    H125685   4.182   2.546  16.972 -1.0520 -0.0254 -0.2709
 1398TIP3    H225686   4.270   2.555  16.849  0.8089 -1.3877  0.8958
 1399TIP3   OH225687   1.120   6.349   1.046  0.4117  0.1086  0.0035
 1399TIP3    H125688   1.189   6.378   1.105  0.3378  0.1062  0.0917
 1399TIP3    H225689   1.039   6.378   1.088  0.3450 -0.1123  0.0281
 1400TIP3   OH225690   1.168   2.869  12.830  0.4059  0.2926 -0.3781
 1400TIP3    H125691   1.179   2.790  12.882  0.2564  0.8156  0.4703
 1400TIP3    H225692   1.178   2.941  12.893 -0.0556  0.9372 -1.0184
 1401TIP3   OH225693   3.842   5.342  14.513  0.0363 -0.8003 -0.1848
 1401TIP3    H125694   3.842   5.330  14.608  2.8787  0.6286  0.0847
 1401TIP3    H225695   3.933   5.330  14.487 -0.6842 -1.3123 -2.8110
 1402TIP3   OH225696   6.062   1.775   2.477 -0.3504 -0.0437 -0.8320
 1402TIP3    H125697   6.146   1.817   2.462  0.4383 -1.1211  0.3509
 1402TIP3    H225698   6.074   1.685   2.448 -0.8830 -0.3617 -0.1091
 1403TIP3   OH225699   3.357   3.570   3.784  0.2776  0.2098  0.0516
 1403TIP3    H125700   3.361   3.504   3.715 -0.0060 -1.7971  1.8490
 1403TIP3    H225701   3.264   3.591   3.791  0.4091  1.1101 -0.7706
 1404TIP3   OH225702   2.646   0.321   1.101 -0.3191  0.7352  0.1111
 1404TIP3    H125703   2.669   0.386   1.168  0.6630  0.4195  0.0962
 1404TIP3    H225704   2.718   0.324   1.039 -1.6112  1.6339 -1.4314
 1405TIP3   OH225705   1.657   5.264  11.979 -0.4065 -0.0978  0.4236
 1405TIP3    H125706   1.723   5.251  11.911  0.4396  0.6752  1.0740
 1405TIP3    H225707   1.620   5.177  11.994 -0.0285 -0.4120 -0.4433
 1406TIP3   OH225708   1.049   5.234  15.225 -0.5179 -0.1279 -0.2234
 1406TIP3    H125709   1.004   5.228  15.309 -0.9810  1.5818 -0.2996
 1406TIP3    H225710   1.071   5.327  15.217 -0.9733 -0.1500 -2.2437
 1407TIP3   OH225711   2.586   0.718   2.575  0.0198 -0.2897  0.4508
 1407TIP3    H125712   2.652   0.656   2.606  0.7171  0.5240  0.6248
 1407TIP3    H225713   2.519   0.717   2.643  0.6999  0.1781  1.1463
 1408TIP3   OH225714   0.449   1.306  11.039 -0.1560 -0.6023 -0.1103
 1408TIP3    H125715   0.375   1.248  11.023  0.0390 -0.9877  0.3414
 1408TIP3    H225716   0.489   1.318  10.953 -2.0220  1.4352 -0.7781
 1409TIP3   OH225717   2.397   1.075  11.744 -0.0743 -0.2142  0.2869
 1409TIP3    H125718   2.342   1.007  11.706  1.3100 -1.2878  0.0924
 1409TIP3    H225719   2.459   1.098  11.674  0.5015  0.0586  0.8741
 1410TIP3   OH225720   2.440   4.337   0.657  0.4530  0.5676 -0.0775
 1410TIP3    H125721   2.398   4.326   0.742 -1.8859 -0.1034 -1.2318
 1410TIP3    H225722   2.513   4.275   0.659 -0.9783 -1.1823  0.6100
 1411TIP3   OH225723   6.082   1.894  14.227 -0.2908 -0.1299 -0.1574
 1411TIP3    H125724   5.989   1.876  14.231 -0.3621  0.3843  0.8142
 1411TIP3    H225725   6.111   1.892  14.319  0.5778  0.0782 -0.4150
 1412TIP3   OH225726   2.999   1.538   0.146 -0.2288 -0.2802  0.3196
 1412TIP3    H125727   3.085   1.497   0.155 -0.3355 -0.6102 -0.1489
 1412TIP3    H225728   2.994   1.562   0.054 -0.3142  0.4706  0.5119
 1413TIP3   OH225729   4.450   4.915   0.359 -0.2369  0.3101 -0.6851
 1413TIP3    H125730   4.418   4.984   0.417 -0.8713 -0.9635  0.5554
 1413TIP3    H225731   4.503   4.960   0.294  2.4691  1.6571  2.2157
 1414TIP3   OH225732   3.298   4.790   4.504  0.5302 -0.1294  0.4210
 1414TIP3    H125733   3.210   4.761   4.480  0.6296  0.8172 -1.2048
 1414TIP3    H225734   3.351   4.711   4.499  0.0198 -0.4611  0.1132
 1415TIP3   OH225735   3.817   1.685  12.221  0.2296  0.6754  0.0088
 1415TIP3    H125736   3.851   1.774  12.226 -1.5923  1.3778  0.3695
 1415TIP3    H225737   3.802   1.670  12.128  0.0358  0.9479 -0.0044
 1416TIP3   OH225738   1.949   2.244  15.697  0.2510 -0.0799 -0.0582
 1416TIP3    H125739   1.947   2.335  15.724 -2.0858 -0.3174  0.8657
 1416TIP3    H225740   1.983   2.197  15.774  0.0328 -0.1085  0.0232
 1417TIP3   OH225741   2.188   5.084   4.265  0.0357 -0.0697  0.2041
 1417TIP3    H125742   2.117   5.058   4.206 -1.0258  0.8102  1.0610
 1417TIP3    H225743   2.190   5.015   4.331 -0.3244  0.1373  0.4316
 1418TIP3   OH225744   3.395   0.769  15.838 -0.1197 -0.4815  0.2649
 1418TIP3    H125745   3.427   0.713  15.768 -0.9727  0.2789 -0.7572
 1418TIP3    H225746   3.325   0.717  15.880 -1.2658 -0.0117 -1.0090
 1419TIP3   OH225747   4.763   5.421   2.617  0.3575 -0.1149  0.1917
 1419TIP3    H125748   4.827   5.350   2.616 -0.3589 -0.7852 -1.3294
 1419TIP3    H225749   4.801   5.487   2.675  1.8004 -1.0437  0.3532
 1420TIP3   OH225750   4.076   0.357   5.124 -0.0234 -0.0210 -0.0498
 1420TIP3    H125751   4.045   0.302   5.195  0.6900  0.0962  0.3531
 1420TIP3    H225752   4.084   0.298   5.049  0.2575 -0.3561  0.2480
 1421TIP3   OH225753   0.172   6.412   3.670  0.7506  0.0350  0.0495
 1421TIP3    H125754   0.250   6.428   3.723  2.2410 -5.7099  0.2161
 1421TIP3    H225755   0.113   6.365   3.728 -0.4680 -0.5402 -1.5846
 1422TIP3   OH225756   0.996   5.548  15.574 -0.9238 -0.1879 -0.3442
 1422TIP3    H125757   1.058   5.475  15.587 -0.5789 -0.1020 -1.3619
 1422TIP3    H225758   0.933   5.540  15.645  1.0741  0.5865  1.6316
 1423TIP3   OH225759   1.986   1.490  14.901  0.2775 -0.0147 -0.3608
 1423TIP3    H125760   2.055   1.478  14.966 -1.1864 -1.5636  1.0018
 1423TIP3    H225761   1.992   1.413  14.845 -1.2426 -0.9356  0.6886
 1424TIP3   OH225762   1.472   3.487  13.206  0.1622  0.5748 -0.0663
 1424TIP3    H125763   1.506   3.529  13.286 -0.6052  1.6624 -0.2842
 1424TIP3    H225764   1.378   3.477  13.222  0.3608 -1.3792  0.0840
 1425TIP3   OH225765   3.871   4.397   5.490 -0.5364  0.0918  0.6794
 1425TIP3    H125766   3.884   4.326   5.553 -0.4900  0.6812  1.3393
 1425TIP3    H225767   3.825   4.355   5.416  0.7071 -0.9344  0.4442
 1426TIP3   OH225768   0.074   6.455   1.290 -0.1117  0.1463  0.2905
 1426TIP3    H125769   0.065   6.360   1.284  0.1273  0.2129 -2.1776
 1426TIP3    H225770   0.162   6.472   1.256 -1.9163  1.5159 -4.4373
 1427TIP3   OH225771   1.806   4.187   6.005 -0.6043  0.4566  0.4215
 1427TIP3    H125772   1.866   4.261   6.006 -0.6024  0.4534  0.6071
 1427TIP3    H225773   1.854   4.117   6.049 -0.3463  0.1392 -0.3461
 1428TIP3   OH225774   2.373   1.425   1.110  0.3633  0.0137 -0.2980
 1428TIP3    H125775   2.456   1.434   1.157 -1.1943 -0.6634  2.8912
 1428TIP3    H225776   2.331   1.511   1.119  0.3868  0.1420 -1.2865
 1429TIP3   OH225777   0.413   1.839   3.850 -0.2793  0.0115  0.3390
 1429TIP3    H125778   0.341   1.900   3.867 -0.5579  0.3309 -1.7330
 1429TIP3    H225779   0.369   1.758   3.822  0.1245 -0.8348  1.9744
 1430TIP3   OH225780   5.742   4.411   2.323 -0.0684  0.8028 -0.0508
 1430TIP3    H125781   5.696   4.492   2.344  1.5343  1.4978  0.9509
 1430TIP3    H225782   5.740   4.361   2.404 -1.0867 -0.2057 -0.6761
 1431TIP3   OH225783   3.141   5.769   3.864 -0.6591 -0.5573  1.0313
 1431TIP3    H125784   3.121   5.848   3.815 -0.5874 -0.3986  1.2525
 1431TIP3    H225785   3.128   5.794   3.956  1.9152  0.0218  1.3228
 1432TIP3   OH225786   2.260   4.685  12.312  0.5022 -0.0628  0.0049
 1432TIP3    H125787   2.290   4.775  12.297 -1.9049  0.8764  0.4152
 1432TIP3    H225788   2.254   4.677  12.408 -0.5452 -0.1943 -0.0609
 1433TIP3   OH225789   4.471   1.362  17.126 -0.1480 -0.5503 -0.1709
 1433TIP3    H125790   4.408   1.313  17.178  1.3773 -0.2115  2.1485
 1433TIP3    H225791   4.510   1.296  17.068  0.1407 -1.6192  1.1793
 1434TIP3   OH225792   1.201   6.630  13.831  0.2044  0.2041 -0.6524
 1434TIP3    H125793   1.270   6.598  13.772  1.3287 -1.4369  1.3761
 1434TIP3    H225794   1.249   6.675  13.901 -0.6312 -1.7204  1.2599
 1435TIP3   OH225795   0.145   5.330  11.327  0.0230 -0.5476  0.1716
 1435TIP3    H125796   0.235   5.302  11.309  0.3554 -0.1907  1.1851
 1435TIP3    H225797   0.090   5.263  11.286  0.6432  0.7604 -3.1071
 1436TIP3   OH225798   6.526   4.882  16.210 -0.0870  0.2854  0.9735
 1436TIP3    H125799   6.461   4.815  16.233  0.2051  0.0275  1.0655
 1436TIP3    H225800   6.478   4.965  16.215 -0.9820 -0.0466 -1.0481
 1437TIP3   OH225801   6.505   3.186   3.341 -0.3701 -0.2041  0.5644
 1437TIP3    H125802   6.505   3.237   3.260 -1.2108 -1.4600 -0.2667
 1437TIP3    H225803   6.548   3.242   3.405 -0.6010  1.2300 -0.4915
 1438TIP3   OH225804   1.906   4.623   6.281  0.9443  0.1653 -0.2663
 1438TIP3    H125805   1.939   4.713   6.279 -0.1711  0.5880 -0.4049
 1438TIP3    H225806   1.930   4.590   6.368  1.4937  0.5492 -0.2720
 1439TIP3   OH225807   3.593   5.677   4.396 -0.0211 -0.4333  0.0804
 1439TIP3    H125808   3.542   5.670   4.315 -0.1225  1.0440 -0.0042
 1439TIP3    H225809   3.675   5.631   4.376 -0.6492 -1.4041 -0.3302
 1440TIP3   OH225810   5.177   0.034   4.257 -0.3991 -0.0180  0.0138
 1440TIP3    H125811   5.152  -0.050   4.294  0.5838 -0.1351  0.4390
 1440TIP3    H225812   5.108   0.054   4.194 -1.0926 -0.7239  0.5356
 1441TIP3   OH225813   3.710   4.010   4.871 -0.2613 -0.2540 -0.1912
 1441TIP3    H125814   3.775   3.997   4.802 -1.0922  0.8479 -1.2369
 1441TIP3    H225815   3.629   3.973   4.835 -1.0815  1.7161 -0.5040
 1442TIP3   OH225816   4.676   2.741   1.856  0.3065  0.4586 -0.4985
 1442TIP3    H125817   4.664   2.755   1.762  0.0909 -0.5733 -0.6414
 1442TIP3    H225818   4.754   2.684   1.861  0.0789  0.1847 -0.0817
 1443TIP3   OH225819   4.459   4.265   0.060  0.1881  0.5052 -0.2260
 1443TIP3    H125820   4.470   4.233  -0.029  1.0270 -1.1602  0.4261
 1443TIP3    H225821   4.517   4.340   0.067  1.8719 -0.7073 -0.4691
 1444TIP3   OH225822   0.054   5.856  16.726 -0.0395  0.1773  0.0103
 1444TIP3    H125823   0.080   5.843  16.635 -1.5732  0.3792 -0.4779
 1444TIP3    H225824  -0.041   5.868  16.723  0.0429  1.5011  1.5048
 1445TIP3   OH225825   4.260   0.687  15.059 -0.4869 -0.4325 -0.1732
 1445TIP3    H125826   4.223   0.755  15.115  0.5168 -1.7349  2.1736
 1445TIP3    H225827   4.185   0.631  15.037 -0.6907 -0.6016  0.9047
 1446TIP3   OH225828   6.406   3.320   2.158 -0.2924  0.0424 -0.1062
 1446TIP3    H125829   6.327   3.304   2.210  0.0545 -1.4554  0.0162
 1446TIP3    H225830   6.477   3.279   2.208  0.8302  2.4927  0.4356
 1447TIP3   OH225831   3.279   3.564  10.956  0.0890  0.0479  0.5853
 1447TIP3    H125832   3.282   3.474  10.921 -1.4465  0.7291 -1.4805
 1447TIP3    H225833   3.251   3.553  11.047 -0.7490 -1.5578  0.1751
 1448TIP3   OH225834   2.946   5.969  15.453 -0.1283  0.0259  0.2697
 1448TIP3    H125835   2.897   6.042  15.491 -0.5730 -0.4222  0.5600
 1448TIP3    H225836   2.956   5.906  15.524 -0.7928 -0.7289 -0.2890
 1449TIP3   OH225837   1.792   5.139  11.179 -0.4219  0.2466 -0.0093
 1449TIP3    H125838   1.790   5.228  11.144  0.2749 -0.3746 -1.7200
 1449TIP3    H225839   1.735   5.089  11.121 -0.5327 -0.5011  0.7308
 1450TIP3   OH225840   3.998   0.109   1.557  0.1735 -0.2886 -0.7571
 1450TIP3    H125841   3.920   0.147   1.516 -0.2689 -0.1641  0.1653
 1450TIP3    H225842   4.012   0.164   1.634  0.9413 -0.5644 -0.6989
 1451TIP3   OH225843   0.518   6.431   1.109  1.0904  0.0870  0.4020
 1451TIP3    H125844   0.478   6.391   1.032 -0.1444  1.1961  0.4242
 1451TIP3    H225845   0.595   6.476   1.075 -0.8301  2.7737 -0.7541
 1452TIP3   OH225846   4.242   3.918  12.752  0.0870 -0.0976  0.2466
 1452TIP3    H125847   4.273   3.839  12.798 -0.4765  0.5190  1.7241
 1452TIP3    H225848   4.186   3.963  12.815  1.3566  2.1345 -0.1172
 1453TIP3   OH225849   1.429   2.300  11.132  0.1284  0.0436 -0.0154
 1453TIP3    H125850   1.523   2.284  11.142 -0.1661 -2.2117 -0.4026
 1453TIP3    H225851   1.399   2.324  11.220  1.0576  0.9675  0.0719
 1454TIP3   OH225852   0.939   6.794   4.405 -0.2023  0.5369 -0.4993
 1454TIP3    H125853   0.856   6.810   4.360 -0.8206 -2.0359 -0.4017
 1454TIP3    H225854   0.975   6.716   4.363  1.2065  0.4452  0.7887
 1455TIP3   OH225855   6.423   4.802  14.602  0.1297 -0.3995 -0.1108
 1455TIP3    H125856   6.401   4.798  14.509  0.6740 -0.2269 -0.2513
 1455TIP3    H225857   6.365   4.739  14.643 -1.5380  0.9589 -0.2836
 1456TIP3   OH225858   5.023   4.109   2.241 -0.4333 -0.7491 -0.1435
 1456TIP3    H125859   4.971   4.153   2.308  0.1514 -0.5005  0.1591
 1456TIP3    H225860   5.111   4.105   2.279  0.2201  0.6185 -1.4425
 1457TIP3   OH225861   1.507   1.193   2.008  0.1753 -0.5810  0.3605
 1457TIP3    H125862   1.446   1.123   1.985  0.2801 -0.6867  0.4052
 1457TIP3    H225863   1.487   1.263   1.946  1.7707 -1.5869 -1.3672
 1458TIP3   OH225864   4.927   3.181  11.237 -0.0378 -0.4784  0.7733
 1458TIP3    H125865   4.847   3.215  11.196 -0.9084 -1.7086  1.3783
 1458TIP3    H225866   4.932   3.090  11.208  1.3237 -0.3391  0.5146
 1459TIP3   OH225867   3.762   0.647  12.186 -0.2779 -0.1951 -0.2408
 1459TIP3    H125868   3.750   0.619  12.095  1.4779  0.5652 -0.7537
 1459TIP3    H225869   3.818   0.579  12.225  0.5444  0.4308 -0.2977
 1460TIP3   OH225870   3.504   6.326   4.575  0.0636  0.0161 -0.1789
 1460TIP3    H125871   3.592   6.298   4.602  0.2835  1.6777  0.9929
 1460TIP3    H225872   3.469   6.373   4.651 -1.2827  0.6138 -1.1199
 1461TIP3   OH225873   0.204   4.223  12.443  0.1841 -0.2139 -0.9619
 1461TIP3    H125874   0.179   4.181  12.360  0.2461  1.0684 -1.6445
 1461TIP3    H225875   0.298   4.236  12.436 -0.1859  2.6110 -2.0370
 1462TIP3   OH225876   2.171   3.516  13.346 -0.3935  0.2958  0.0956
 1462TIP3    H125877   2.210   3.429  13.352 -0.3899  0.3455  0.9884
 1462TIP3    H225878   2.101   3.514  13.411 -0.1454  1.0877  0.3907
 1463TIP3   OH225879   4.502   4.580  13.683  0.1594 -0.5443  0.1492
 1463TIP3    H125880   4.512   4.500  13.734 -0.4542 -0.0895  1.0068
 1463TIP3    H225881   4.592   4.603  13.657  0.5406 -0.5778  1.3713
 1464TIP3   OH225882   6.787   1.060  16.276 -0.2465  0.4312 -0.1927
 1464TIP3    H125883   6.763   1.017  16.358 -2.0051  0.5455 -0.6110
 1464TIP3    H225884   6.823   0.989  16.222 -1.7859 -0.2674 -0.3494
 1465TIP3   OH225885   1.134   3.966   1.368 -0.4160  0.6404 -0.0355
 1465TIP3    H125886   1.195   3.929   1.431 -1.4683 -4.0599 -1.3575
 1465TIP3    H225887   1.183   3.969   1.286 -0.7918  0.7893 -0.2588
 1466TIP3   OH225888   0.768   4.596  12.459  0.0794  0.3204 -0.1122
 1466TIP3    H125889   0.801   4.653  12.389  1.6545 -0.0937  0.2496
 1466TIP3    H225890   0.677   4.578  12.435 -0.2527  2.4137 -0.5899
 1467TIP3   OH225891   0.810   1.159   3.943 -0.2939 -0.4140  0.0994
 1467TIP3    H125892   0.853   1.137   4.026  0.9223 -0.3637 -0.4843
 1467TIP3    H225893   0.791   1.253   3.950  0.7452 -0.1805 -0.0682
 1468TIP3   OH225894   2.954   3.238   0.337  0.4681 -0.0240  0.0269
 1468TIP3    H125895   2.971   3.174   0.405  0.3929 -0.7071 -0.5787
 1468TIP3    H225896   3.035   3.289   0.330  1.2214 -1.2775 -0.7617
 1469TIP3   OH225897   4.651   0.858  13.830 -0.1743  0.3138 -0.2213
 1469TIP3    H125898   4.610   0.860  13.917  0.3407  0.8969  0.0064
 1469TIP3    H225899   4.716   0.928  13.832  0.6917 -0.4537 -0.6583
 1470TIP3   OH225900   6.436   0.151   3.296 -0.2087 -0.4156  0.2292
 1470TIP3    H125901   6.434   0.066   3.253 -0.2843  0.5646 -1.8410
 1470TIP3    H225902   6.530   0.170   3.307 -0.1435 -0.1437 -0.6889
 1471TIP3   OH225903   5.633   1.755  12.721  0.0460  0.0774 -0.6063
 1471TIP3    H125904   5.660   1.667  12.694 -0.2992  0.0309 -0.8074
 1471TIP3    H225905   5.624   1.804  12.639 -2.1063 -0.3799 -0.6928
 1472TIP3   OH225906   3.123   2.788  16.468  0.0362  0.3286  0.7571
 1472TIP3    H125907   3.127   2.721  16.399 -0.2922  0.3833  0.6801
 1472TIP3    H225908   3.134   2.871  16.421  0.0818  0.3498  0.8051
 1473TIP3   OH225909   1.507   5.419  14.551 -0.4728 -0.2280  0.1761
 1473TIP3    H125910   1.576   5.372  14.598  0.1298  0.0860 -0.3836
 1473TIP3    H225911   1.491   5.497  14.605 -2.0342 -1.4111  1.5288
 1474TIP3   OH225912   1.201   1.274   3.569  0.3415  0.0969 -0.9317
 1474TIP3    H125913   1.239   1.273   3.656 -0.2104  1.5319 -0.6434
 1474TIP3    H225914   1.210   1.184   3.537 -4.4550 -2.1557  2.7830
 1475TIP3   OH225915   6.417   1.747   1.516 -0.2209  0.3305  0.8150
 1475TIP3    H125916   6.331   1.752   1.474  1.0174  1.7016 -1.8206
 1475TIP3    H225917   6.474   1.711   1.448  1.5509  0.7084  2.0456
 1476TIP3   OH225918   5.144   1.911  15.359  0.3590  0.1814 -0.3331
 1476TIP3    H125919   5.064   1.881  15.404 -1.0172  1.8452 -1.5360
 1476TIP3    H225920   5.177   1.981  15.415  0.2431  0.3677 -0.5001
 1477TIP3   OH225921   6.526   2.621   5.301 -0.3300  0.5061 -0.0324
 1477TIP3    H125922   6.563   2.694   5.350 -0.7924  0.3636  0.5431
 1477TIP3    H225923   6.602   2.577   5.263  0.1339  0.0232  1.4036
 1478TIP3   OH225924   3.068   3.281  12.527  0.4889  0.3094 -0.0230
 1478TIP3    H125925   3.138   3.221  12.501  1.9753  1.5293  0.9221
 1478TIP3    H225926   3.061   3.343  12.455 -0.2214 -0.2975 -0.4844
 1479TIP3   OH225927   1.058   3.579  14.576 -0.0490 -0.0535 -0.0810
 1479TIP3    H125928   1.022   3.666  14.589 -0.9742 -0.7270  2.4811
 1479TIP3    H225929   1.126   3.590  14.510 -0.5816  2.4647 -0.2840
 1480TIP3   OH225930   2.619   1.296  14.647  0.5819  0.5023  0.4914
 1480TIP3    H125931   2.554   1.329  14.586  0.7289  0.0361  0.0766
 1480TIP3    H225932   2.702   1.336  14.617  0.7392 -0.1363  0.0637
 1481TIP3   OH225933   3.535   6.604  11.478 -0.0860 -0.5327 -0.3686
 1481TIP3    H125934   3.607   6.547  11.452  0.2745 -0.0782 -0.3744
 1481TIP3    H225935   3.575   6.667  11.538 -0.6352 -0.7583  0.2467
 1482TIP3   OH225936   6.061   5.097   3.049 -0.4751 -0.6138  0.2719
 1482TIP3    H125937   5.967   5.112   3.037 -0.4190 -0.6796 -0.2918
 1482TIP3    H225938   6.089   5.167   3.107 -0.6313  0.1960 -0.6078
 1483TIP3   OH225939   4.872   3.644  13.094  0.2713 -0.7515 -0.4044
 1483TIP3    H125940   4.791   3.679  13.130 -0.0255 -0.1960 -1.5537
 1483TIP3    H225941   4.868   3.550  13.112 -1.1780 -0.9227 -1.4157
 1484TIP3   OH225942   1.423   3.163   2.005  0.1183  0.0040  0.6321
 1484TIP3    H125943   1.442   3.143   1.914  3.9829 -2.5834  1.7704
 1484TIP3    H225944   1.345   3.112   2.025  0.1811 -0.7162 -0.8228
 1485TIP3   OH225945   2.344   0.072  14.449 -0.2684  0.1101  0.3909
 1485TIP3    H125946   2.292  -0.006  14.433  0.0699 -0.0261 -0.0502
 1485TIP3    H225947   2.289   0.144  14.419 -0.4692  0.0225  0.5471
 1486TIP3   OH225948   6.531   6.058  17.111  0.5856 -0.1518 -0.8122
 1486TIP3    H125949   6.490   5.998  17.048  0.2137 -0.5298 -0.2125
 1486TIP3    H225950   6.458   6.095  17.160  0.9109 -0.1954 -0.2943
 1487TIP3   OH225951   4.841   4.898  15.699  0.4487 -0.0553 -0.3904
 1487TIP3    H125952   4.898   4.892  15.775  0.9290  0.9301 -0.6619
 1487TIP3    H225953   4.809   4.809  15.686 -0.1214 -0.1344  1.3236
 1488TIP3   OH225954   6.174   5.828   2.782  0.3394  0.1094  0.4597
 1488TIP3    H125955   6.094   5.794   2.742  0.2225 -1.2899  1.7986
 1488TIP3    H225956   6.235   5.754   2.781  0.8111  0.4630  1.5563
 1489TIP3   OH225957   1.125   1.853   6.465 -0.1955 -0.2958  0.2093
 1489TIP3    H125958   1.211   1.883   6.492 -0.7269  1.8681 -0.3119
 1489TIP3    H225959   1.085   1.820   6.545  0.7174 -0.3090  0.6726
 1490TIP3   OH225960   1.198   6.711   0.778  0.6277  0.1136 -0.0599
 1490TIP3    H125961   1.168   6.711   0.687 -1.9635 -2.3546  0.6256
 1490TIP3    H225962   1.168   6.795   0.813  1.0647  0.8017 -1.2744
 1491TIP3   OH225963   1.847   0.715  11.350  0.1691 -0.4471 -0.1320
 1491TIP3    H125964   1.868   0.638  11.402  0.6621 -1.4771 -1.7910
 1491TIP3    H225965   1.929   0.739  11.308 -0.1460  0.5503 -0.2056
 1492TIP3   OH225966   5.275   0.171  14.537  0.2109  0.6240  0.3337
 1492TIP3    H125967   5.277   0.247  14.596  0.7249  1.0872 -0.2621
 1492TIP3    H225968   5.212   0.196  14.469  0.1377  0.3780  0.3111
 1493TIP3   OH225969   3.100   5.814  16.342 -0.4044  0.3692 -0.4079
 1493TIP3    H125970   3.145   5.760  16.408 -1.0722  1.4955  1.0169
 1493TIP3    H225971   3.166   5.827  16.274 -0.2249 -2.2495 -0.8643
 1494TIP3   OH225972   1.667   3.395   1.496  0.3364 -0.1868  0.2352
 1494TIP3    H125973   1.737   3.437   1.445 -0.4577  1.5597  0.5431
 1494TIP3    H225974   1.606   3.465   1.517 -2.0733 -1.8042 -0.8708
 1495TIP3   OH225975   5.739   5.107   0.173 -0.4746  0.2951 -0.6964
 1495TIP3    H125976   5.682   5.044   0.219 -0.8415  0.9084 -0.2955
 1495TIP3    H225977   5.826   5.091   0.208 -0.2907 -0.9717 -1.6478
 1496TIP3   OH225978   0.082   4.148   5.180 -0.3767 -0.5305 -0.0745
 1496TIP3    H125979   0.177   4.160   5.177 -0.5031  0.4133 -1.8406
 1496TIP3    H225980   0.054   4.198   5.256  0.4509 -0.0524 -0.0725
 1497TIP3   OH225981   2.766   3.281  16.188 -0.0449 -0.4229  0.6006
 1497TIP3    H125982   2.789   3.192  16.161 -0.2743  0.5232 -3.2724
 1497TIP3    H225983   2.850   3.327  16.195 -0.0333 -0.0770 -1.2206
 1498TIP3   OH225984   5.063   5.333  16.097 -0.0449 -0.2940  0.1609
 1498TIP3    H125985   5.154   5.304  16.102  0.5176  1.4424  0.5409
 1498TIP3    H225986   5.027   5.285  16.023  1.6755  0.2575 -1.0961
 1499TIP3   OH225987   2.645   5.546   2.138 -0.1535 -0.1777 -0.8190
 1499TIP3    H125988   2.577   5.599   2.098  1.1473  0.2215 -2.6273
 1499TIP3    H225989   2.717   5.607   2.154  0.4296 -0.9147 -0.5708
 1500TIP3   OH225990   2.593   3.275  15.476 -0.0644  0.0344  0.1190
 1500TIP3    H125991   2.579   3.367  15.499  1.4167 -0.1169  1.9055
 1500TIP3    H225992   2.663   3.278  15.410 -1.0959  0.2215 -1.0159
 1501TIP3   OH225993   2.130   5.848  16.385 -0.0319 -0.0776 -0.1078
 1501TIP3    H125994   2.092   5.760  16.385  0.3830 -0.2665  0.5222
 1501TIP3    H225995   2.080   5.896  16.319  0.3793 -1.0602 -1.1565
 1502TIP3   OH225996   5.390   1.774  13.542 -0.2663 -0.7618 -0.3321
 1502TIP3    H125997   5.419   1.744  13.456  2.6908  0.3267  0.1946
 1502TIP3    H225998   5.442   1.852  13.560  0.1557 -1.6712  2.9865
 1503TIP3   OH225999   3.044   2.868  14.934  0.3612 -0.4472  0.5134
 1503TIP3    H126000   3.125   2.918  14.935 -0.3733  0.8554 -0.8490
 1503TIP3    H226001   3.066   2.788  14.886  0.9203 -0.2483  0.4285
 1504TIP3   OH226002   1.383   4.078   5.191 -0.1235  0.1210 -0.2573
 1504TIP3    H126003   1.475   4.063   5.210 -0.2088 -0.5192 -0.3224
 1504TIP3    H226004   1.377   4.076   5.096 -0.4445 -1.4833 -0.2400
 1505TIP3   OH226005   5.930   2.796  16.656 -0.0005  0.1560 -1.2051
 1505TIP3    H126006   5.968   2.882  16.639 -0.6624  0.6491 -0.2596
 1505TIP3    H226007   5.998   2.748  16.704  0.1920  0.3011 -1.3304
 1506TIP3   OH226008   6.557   6.546  16.891  0.0363 -0.1133  0.0475
 1506TIP3    H126009   6.608   6.594  16.956 -0.6322 -1.9917  2.0636
 1506TIP3    H226010   6.476   6.596  16.883  0.8297  1.1060 -0.7430
 1507TIP3   OH226011   5.844   4.859   0.010 -0.3303  0.4371 -0.2659
 1507TIP3    H126012   5.929   4.820  -0.007 -0.3237  0.4232 -0.2019
 1507TIP3    H226013   5.860   4.953   0.008  0.0953  0.4531  1.6752
 1508TIP3   OH226014   2.197   3.669   5.481  0.1962  0.6849 -0.0575
 1508TIP3    H126015   2.250   3.605   5.527  0.3499 -0.4347 -1.6888
 1508TIP3    H226016   2.107   3.651   5.509  0.4829  1.5949  1.5607
 1509TIP3   OH226017   3.466   4.475   0.136 -0.4516  0.4661 -0.1157
 1509TIP3    H126018   3.431   4.434   0.056  0.6316 -0.1662 -0.2909
 1509TIP3    H226019   3.408   4.445   0.206 -0.0355 -0.9206 -0.3300
 1510TIP3   OH226020   6.080   4.977  16.238 -0.4127  0.3453  0.1680
 1510TIP3    H126021   6.022   4.988  16.314 -2.1949 -1.3572 -0.8664
 1510TIP3    H226022   6.106   4.885  16.241  0.6653  0.6195 -0.4958
 1511TIP3   OH226023   5.624   1.302  16.976  0.0951 -0.3971 -0.4049
 1511TIP3    H126024   5.544   1.316  16.926 -0.7303 -2.2652  0.2968
 1511TIP3    H226025   5.601   1.323  17.067  1.1197  1.4100 -0.5247
 1512TIP3   OH226026   2.151   0.662   0.204 -0.2752  0.7087 -0.1649
 1512TIP3    H126027   2.084   0.663   0.273 -0.2384 -0.0466 -0.1129
 1512TIP3    H226028   2.147   0.750   0.166 -0.3361  1.1217  0.7626
 1513TIP3   OH226029   4.821   0.633  14.235 -0.6001  0.3455  0.7193
 1513TIP3    H126030   4.908   0.663  14.259  0.9024 -1.5121 -1.9698
 1513TIP3    H226031   4.826   0.538  14.238 -2.0817  0.1652 -0.8550
 1514TIP3   OH226032   5.872   4.815   6.190 -0.3334  0.0011 -0.5135
 1514TIP3    H126033   5.854   4.891   6.136 -1.5746 -0.6013 -0.9883
 1514TIP3    H226034   5.911   4.751   6.131 -1.7742 -0.6908 -0.7626
 1515TIP3   OH226035   4.812   6.142   0.000 -0.7236  0.2485 -0.7199
 1515TIP3    H126036   4.848   6.062  -0.040  0.0821 -0.1100  0.6308
 1515TIP3    H226037   4.868   6.212  -0.033  1.0233 -0.2484  0.9657
 1516TIP3   OH226038   0.377   5.761  17.128  0.5905  0.3922  0.2659
 1516TIP3    H126039   0.311   5.750  17.060  1.1603  3.6530 -0.9874
 1516TIP3    H226040   0.343   5.710  17.203 -1.9062 -0.2651 -1.1947
 1517TIP3   OH226041   1.915   2.093   0.550 -0.0240 -0.6460  0.1908
 1517TIP3    H126042   1.828   2.133   0.555 -0.0610 -0.9110  3.1799
 1517TIP3    H226043   1.975   2.160   0.581  0.5648 -1.2136  0.3036
 1518TIP3   OH226044   1.754   2.597  16.430 -0.4176  0.3419 -0.0813
 1518TIP3    H126045   1.681   2.537  16.448  1.2908 -2.3164 -1.4463
 1518TIP3    H226046   1.746   2.617  16.337  1.1514 -0.8987 -0.5271
 1519TIP3   OH226047   2.873   2.452  13.859  0.0567  0.0255 -0.0887
 1519TIP3    H126048   2.942   2.518  13.859 -0.7383  0.8935 -0.7642
 1519TIP3    H226049   2.860   2.431  13.766 -2.0928  1.5402 -0.2031
 1520TIP3   OH226050   3.583   1.684  12.331  0.1682  1.2376  0.3621
 1520TIP3    H126051   3.549   1.729  12.253 -0.9493 -1.6757 -0.9679
 1520TIP3    H226052   3.678   1.686  12.319  0.2601  3.7786  0.7806
 1521TIP3   OH226053   2.043   4.657  14.657  0.4365  0.3948  0.0065
 1521TIP3    H126054   1.986   4.602  14.710  1.6438 -0.1184  0.8175
 1521TIP3    H226055   1.994   4.738  14.644 -1.0008 -0.5196 -0.4588
 1522TIP3   OH226056   2.576   1.563   4.635  0.2268  0.5016  0.2597
 1522TIP3    H126057   2.523   1.567   4.556  2.0507  0.4877 -1.0501
 1522TIP3    H226058   2.605   1.472   4.641  1.3395  0.8255  0.0497
 1523TIP3   OH226059   2.409   2.393  11.374  0.6546  0.4152 -0.4313
 1523TIP3    H126060   2.425   2.484  11.399  1.4453 -0.2145  1.5116
 1523TIP3    H226061   2.431   2.389  11.281  1.0445  2.0902 -0.4387
 1524TIP3   OH226062   5.165   2.780   1.302 -0.1682  0.6499  0.3379
 1524TIP3    H126063   5.176   2.858   1.249  0.7177 -0.1468 -0.6957
 1524TIP3    H226064   5.072   2.759   1.294 -0.5841  1.9871  1.2443
 1525TIP3   OH226065   6.393   0.761   5.268 -0.0681  0.2313 -0.2822
 1525TIP3    H126066   6.477   0.807   5.269 -1.0835  2.2863  1.8806
 1525TIP3    H226067   6.399   0.699   5.341 -0.3270  0.2458 -0.2470
 1526TIP3   OH226068   3.281   3.972  13.459 -0.3180 -0.4276 -0.2320
 1526TIP3    H126069   3.260   3.934  13.373 -1.4086 -2.2556  0.7706
 1526TIP3    H226070   3.207   3.947  13.514  0.6831  0.1275  1.4122
 1527TIP3   OH226071   6.412   3.567   4.388 -0.3957 -0.1819  0.6733
 1527TIP3    H126072   6.342   3.503   4.400 -1.5936  0.7656 -0.8822
 1527TIP3    H226073   6.380   3.625   4.319  1.8202  0.4442  0.0848
 1528TIP3   OH226074   3.609   3.752   5.240 -0.3106  0.4240 -0.3413
 1528TIP3    H126075   3.624   3.835   5.286 -2.7048  0.7687 -0.0752
 1528TIP3    H226076   3.577   3.693   5.308  0.0296 -0.2982 -0.8042
 1529TIP3   OH226077   4.394   4.918   4.454  0.3015  0.9429  0.6813
 1529TIP3    H126078   4.372   5.003   4.493  0.3939  1.4925 -0.4368
 1529TIP3    H226079   4.359   4.854   4.516 -0.0572  1.7942  1.3823
 1530TIP3   OH226080   5.283   5.146  16.801 -0.1544 -0.1802  0.5043
 1530TIP3    H126081   5.317   5.064  16.763 -0.2576  0.4674 -1.0570
 1530TIP3    H226082   5.347   5.212  16.775 -0.4461  0.3689  1.1567
 1531TIP3   OH226083   3.586   2.636   1.860  0.2818  0.4343  0.1433
 1531TIP3    H126084   3.497   2.667   1.875  0.5298  0.5807  1.4555
 1531TIP3    H226085   3.609   2.590   1.940  0.3007 -2.3198 -1.3242
 1532TIP3   OH226086   1.290   3.810  11.325  0.2151 -0.7032  0.1203
 1532TIP3    H126087   1.322   3.756  11.253 -0.9949 -0.6707 -0.4620
 1532TIP3    H226088   1.247   3.748  11.384  0.9052 -0.6826  0.6680
 1533TIP3   OH226089   1.557   4.430  14.920  0.7113 -0.6243  0.6728
 1533TIP3    H126090   1.492   4.368  14.954  1.4965 -1.2130  1.1239
 1533TIP3    H226091   1.623   4.375  14.878  1.1172 -0.0609  0.5630
 1534TIP3   OH226092   2.821   1.950   2.595 -0.4599  0.3016 -0.5283
 1534TIP3    H126093   2.777   1.879   2.643  0.4244  0.8580  1.1801
 1534TIP3    H226094   2.750   2.009   2.569 -0.8731  0.6283  1.2322
 1535TIP3   OH226095   6.756   6.076  14.574 -0.5323  0.4869  0.5223
 1535TIP3    H126096   6.778   5.988  14.607  1.3989  0.0115 -1.7306
 1535TIP3    H226097   6.661   6.078  14.575 -0.6814 -1.9567  0.0569
 1536TIP3   OH226098   3.976   4.657   6.528 -0.2708 -0.1997 -0.7894
 1536TIP3    H126099   4.016   4.688   6.446 -0.2061 -0.1412 -0.7358
 1536TIP3    H226100   3.906   4.598   6.499 -1.6439  1.4301 -0.9469
 1537TIP3   OH226101   0.747   4.735  15.476 -0.1534 -0.1101 -0.6465
 1537TIP3    H126102   0.690   4.800  15.435 -1.7438 -0.0949  1.3973
 1537TIP3    H226103   0.759   4.768  15.565 -1.2469 -2.6863  0.5604
 1538TIP3   OH226104   5.981   2.627  12.192 -0.4026 -0.5589  0.5080
 1538TIP3    H126105   6.043   2.700  12.185 -0.0248 -0.8724  0.5462
 1538TIP3    H226106   5.895   2.669  12.195 -0.1237 -0.0409  1.8144
 1539TIP3   OH226107   1.839   0.015  10.970  0.1844 -0.0688  0.9523
 1539TIP3    H126108   1.859  -0.021  10.884  1.6389  0.8284  0.8757
 1539TIP3    H226109   1.786   0.093  10.953  1.8619  1.0848  0.6928
 1540TIP3   OH226110   5.673   6.130   1.773  0.5056 -0.4888 -0.2182
 1540TIP3    H126111   5.738   6.129   1.843  0.2565  0.9049  0.0601
 1540TIP3    H226112   5.681   6.044   1.731  3.1857 -0.0351 -0.8183
 1541TIP3   OH226113   5.018   3.082   5.025 -0.4497 -0.1338  0.2828
 1541TIP3    H126114   4.979   3.124   5.102 -1.2850  0.9732 -0.7264
 1541TIP3    H226115   4.944   3.060   4.969  0.1090 -1.4301  0.0070
 1542TIP3   OH226116   4.470   1.334   1.060  0.6918 -0.2043  0.6640
 1542TIP3    H126117   4.441   1.424   1.044  1.2528 -0.2920 -0.9667
 1542TIP3    H226118   4.389   1.284   1.066  0.3820  0.3623  1.3962
 1543TIP3   OH226119   0.068   3.758  11.317 -0.3378  0.2880 -0.1514
 1543TIP3    H126120   0.103   3.815  11.386  1.1668 -0.9904  0.2134
 1543TIP3    H226121  -0.004   3.808  11.279 -1.8119  0.7086  2.8919
 1544TIP3   OH226122   6.755   1.792  14.823 -0.1683  0.1322 -0.0888
 1544TIP3    H126123   6.789   1.858  14.883 -3.1979  1.5208  0.2707
 1544TIP3    H226124   6.792   1.816  14.738 -2.3504  3.4060 -0.2952
 1545TIP3   OH226125   1.725   5.530  12.093  0.1160 -0.1159  0.1732
 1545TIP3    H126126   1.713   5.572  12.008  1.9445  0.4662  0.1605
 1545TIP3    H226127   1.733   5.437  12.073  0.6606  0.0328 -0.3072
 1546TIP3   OH226128   0.740   0.561   3.082 -0.1220  0.1395 -0.6450
 1546TIP3    H126129   0.677   0.490   3.095  1.7765 -1.7255 -1.0541
 1546TIP3    H226130   0.758   0.594   3.169 -1.4277  0.5135 -0.4992
 1547TIP3   OH226131   4.551   0.599   3.095  0.3410  0.1898 -0.0826
 1547TIP3    H126132   4.571   0.673   3.038 -3.3454  1.2121 -0.3412
 1547TIP3    H226133   4.515   0.639   3.174 -2.3716 -1.1772 -0.4887
 1548TIP3   OH226134   2.589   1.701  14.642 -0.3606  0.4151  0.2658
 1548TIP3    H126135   2.579   1.665  14.730 -0.8630 -1.3795 -0.4823
 1548TIP3    H226136   2.634   1.632  14.593 -2.2848  0.3150 -1.5093
 1549TIP3   OH226137   4.057   0.736   2.877  0.5906  0.0232  0.2963
 1549TIP3    H126138   4.015   0.821   2.890  1.1049  0.0718  1.8137
 1549TIP3    H226139   4.084   0.708   2.965  3.1813 -0.2962 -0.5095
 1550TIP3   OH226140   6.547   0.266   0.799 -0.1562  0.3045  0.6293
 1550TIP3    H126141   6.642   0.265   0.815 -0.0844 -0.0942  0.2070
 1550TIP3    H226142   6.517   0.180   0.828 -0.2224  0.0474 -0.1735
 1551TIP3   OH226143   2.180   1.654   5.983  0.7699 -0.0271 -0.6307
 1551TIP3    H126144   2.266   1.613   5.977  0.9797  0.3761 -0.4262
 1551TIP3    H226145   2.118   1.582   5.973  1.1278 -0.6528  1.2242
 1552TIP3   OH226146   2.874   1.537  14.325  0.1128  0.5774 -0.6435
 1552TIP3    H126147   2.953   1.508  14.371 -0.1529  3.0088  1.6094
 1552TIP3    H226148   2.841   1.459  14.281  1.7283 -1.3779  1.4184
 1553TIP3   OH226149   6.566   0.877  13.437 -0.0668  0.1536 -0.7384
 1553TIP3    H126150   6.640   0.818  13.450  0.4617  1.0388  0.3763
 1553TIP3    H226151   6.498   0.843  13.495 -0.0651  0.1505 -0.7380
 1554TIP3   OH226152   3.940   1.573   1.076  0.1153 -0.0236  0.1072
 1554TIP3    H126153   3.964   1.617   1.158 -1.4762 -0.0834  0.6453
 1554TIP3    H226154   3.855   1.533   1.095  0.4943 -1.4637 -1.0676
 1555TIP3   OH226155   1.966   3.634  14.907  0.0779 -0.1316 -0.1178
 1555TIP3    H126156   2.024   3.696  14.952 -1.1606  0.7151  0.3563
 1555TIP3    H226157   1.930   3.580  14.977 -0.1418 -0.2769 -0.3418
 1556TIP3   OH226158   4.796   3.555  14.684 -0.2978  0.4068 -0.4148
 1556TIP3    H126159   4.804   3.554  14.589 -0.4078 -0.0265 -0.4183
 1556TIP3    H226160   4.780   3.464  14.708 -0.8330  0.5998 -0.0282
 1557TIP3   OH226161   2.887   4.747  15.333  0.2750  0.3062  0.1867
 1557TIP3    H126162   2.951   4.768  15.265  1.5133 -0.6749  1.0010
 1557TIP3    H226163   2.939   4.738  15.413 -1.0216  0.4486  1.0732
 1558TIP3   OH226164   2.384   4.759  16.828 -0.0004 -0.2270  0.5419
 1558TIP3    H126165   2.364   4.778  16.920 -3.0731  1.4803 -0.3360
 1558TIP3    H226166   2.427   4.838  16.796 -0.6210 -0.0603  0.0970
 1559TIP3   OH226167   5.658   5.642  12.404  0.2676 -0.2544 -0.2193
 1559TIP3    H126168   5.680   5.628  12.312 -1.1583 -3.9624 -0.1692
 1559TIP3    H226169   5.595   5.714  12.403  2.0245  1.3591 -1.7972
 1560TIP3   OH226170   2.403   4.411  11.545  1.1020 -0.2335 -0.1593
 1560TIP3    H126171   2.315   4.445  11.560  0.1301 -2.4757 -0.4892
 1560TIP3    H226172   2.444   4.413  11.632  0.6940  0.6439  0.0275
 1561TIP3   OH226173   4.445   3.745  14.219  0.1831  0.6064 -0.3629
 1561TIP3    H126174   4.389   3.818  14.245  0.4274  1.6454 -2.4813
 1561TIP3    H226175   4.534   3.781  14.222  0.2215  0.8061 -2.4726
 1562TIP3   OH226176   2.701   3.469   0.109 -0.5551 -0.3495 -0.3271
 1562TIP3    H126177   2.637   3.427   0.167  0.1295  0.5328  1.1354
 1562TIP3    H226178   2.781   3.416   0.119 -0.3124  0.0480 -0.1320
 1563TIP3   OH226179   5.460   2.907   1.942  0.1599  0.6625  0.3685
 1563TIP3    H126180   5.496   2.980   1.891 -1.4126  2.5793  1.8238
 1563TIP3    H226181   5.371   2.896   1.909 -0.2708  0.7448  1.4625
 1564TIP3   OH226182   5.886   5.169  17.187  0.2279 -0.3132 -0.5271
 1564TIP3    H126183   5.848   5.201  17.269 -0.0021 -1.2646 -0.2470
 1564TIP3    H226184   5.977   5.152  17.208 -0.0001 -1.2446 -0.2585
 1565TIP3   OH226185   5.543   2.045  13.156  0.5532  0.4281 -0.4194
 1565TIP3    H126186   5.560   2.138  13.137  0.1808  0.4752 -0.5273
 1565TIP3    H226187   5.579   2.032  13.243 -0.9114  1.1123  0.3261
 1566TIP3   OH226188   6.036   4.635  14.254  0.2486 -0.0454  0.1862
 1566TIP3    H126189   6.054   4.688  14.332  0.2296  0.9248 -0.4504
 1566TIP3    H226190   6.120   4.596  14.231  0.6851  1.1805 -0.3909
 1567TIP3   OH226191   3.745   2.026  16.454 -0.0467  0.0277  0.5442
 1567TIP3    H126192   3.742   2.039  16.549  0.0567 -0.1445  0.5709
 1567TIP3    H226193   3.837   2.037  16.432  0.2697 -1.8591  0.7336
 1568TIP3   OH226194   2.542   5.655   6.192  0.1141 -0.1552  0.1162
 1568TIP3    H126195   2.457   5.654   6.150  0.3370 -2.1605 -0.3759
 1568TIP3    H226196   2.536   5.726   6.256 -2.2511 -0.8325  0.7464
 1569TIP3   OH226197   4.156   5.789   4.311 -0.4257 -0.0361 -0.3032
 1569TIP3    H126198   4.213   5.785   4.387 -1.5713  0.6577  0.6349
 1569TIP3    H226199   4.104   5.868   4.324  0.6885  1.2409 -2.8129
 1570TIP3   OH226200   3.081   0.678   2.076 -0.4165 -0.3366 -0.2567
 1570TIP3    H126201   3.133   0.683   2.157 -0.3869 -1.0331 -0.2322
 1570TIP3    H226202   2.994   0.709   2.102 -0.2674 -0.0526 -0.0841
 1571TIP3   OH226203   1.484   3.862   1.754  0.9241  0.3636  0.7360
 1571TIP3    H126204   1.454   3.824   1.836  1.3050 -1.0833  0.2271
 1571TIP3    H226205   1.543   3.932   1.780  0.8569  0.0749  1.6974
 1572TIP3   OH226206   3.230   4.177   3.264 -0.0639  0.1372 -0.1090
 1572TIP3    H126207   3.270   4.090   3.270  0.1144  0.3046  2.4508
 1572TIP3    H226208   3.141   4.161   3.231  0.5384 -0.7743 -1.3509
 1573TIP3   OH226209   1.321   1.387  16.830  0.1826 -0.0482 -0.4303
 1573TIP3    H126210   1.410   1.366  16.859 -0.5027  0.4107  2.3248
 1573TIP3    H226211   1.296   1.463  16.882 -1.4288  0.5427 -1.9781
 1574TIP3   OH226212   1.541   1.834  12.215  0.2208  0.6749 -0.3523
 1574TIP3    H126213   1.581   1.750  12.239  1.2383  1.1052 -0.5186
 1574TIP3    H226214   1.466   1.842  12.275  2.3806  1.4877  2.5011
 1575TIP3   OH226215   5.442   2.885   4.919 -0.3843  0.2425 -0.0692
 1575TIP3    H126216   5.354   2.870   4.952  0.4650 -1.9545  1.3889
 1575TIP3    H226217   5.489   2.926   4.992  0.2450 -0.1677 -0.2348
 1576TIP3   OH226218   0.835   1.223  16.792 -0.5969 -0.1576 -0.0846
 1576TIP3    H126219   0.853   1.233  16.698 -1.0335  0.9799 -0.0511
 1576TIP3    H226220   0.892   1.150  16.818  0.5369  0.3825 -0.9445
 1577TIP3   OH226221   0.082   5.611  11.282  0.3251 -0.7775 -0.6409
 1577TIP3    H126222   0.003   5.628  11.231 -0.6580  1.1393  1.3412
 1577TIP3    H226223   0.084   5.516  11.293 -3.1569 -0.7883  1.3078
 1578TIP3   OH226224   1.747   4.687  14.868 -0.3725 -0.6886  0.0803
 1578TIP3    H126225   1.769   4.704  14.776 -0.0112 -1.5918 -0.0056
 1578TIP3    H226226   1.661   4.646  14.865 -1.3006  1.1095  0.2997
 1579TIP3   OH226227   0.535   1.241   1.818  0.2541 -0.3185 -0.3135
 1579TIP3    H126228   0.619   1.201   1.843 -0.7155 -2.0134  0.3940
 1579TIP3    H226229   0.534   1.325   1.865  0.9908 -0.8548  0.7104
 1580TIP3   OH226230   1.997   1.738  10.888 -0.2942  0.2460  0.3703
 1580TIP3    H126231   1.939   1.814  10.882  1.6029  1.6923 -0.8505
 1580TIP3    H226232   2.020   1.734  10.981  0.2608  1.7428  0.3264
 1581TIP3   OH226233   5.454   0.215  14.293 -0.6488  0.3620 -0.2006
 1581TIP3    H126234   5.417   0.205  14.381 -0.7308  0.6580 -0.1970
 1581TIP3    H226235   5.383   0.190  14.234 -0.5862  0.1410 -0.1796
 1582TIP3   OH226236   2.020   1.206  13.402  0.0071 -0.3376 -0.0962
 1582TIP3    H126237   1.980   1.145  13.464  0.0561  1.4338  1.7482
 1582TIP3    H226238   1.950   1.267  13.380  0.5596  0.2748 -0.1566
 1583TIP3   OH226239   1.631   5.090  14.792  0.0122 -0.2424  0.0124
 1583TIP3    H126240   1.656   5.049  14.875 -1.7437 -0.9980  0.2112
 1583TIP3    H226241   1.558   5.147  14.815 -0.8531 -0.8789 -1.0930
 1584TIP3   OH226242   5.360   4.188   4.065  0.1479  0.4686 -0.7249
 1584TIP3    H126243   5.267   4.173   4.084  0.0131  1.4441 -0.5931
 1584TIP3    H226244   5.361   4.244   3.988  0.6147  0.9484 -0.3799
 1585TIP3   OH226245   0.588   6.180   5.822  0.1195  0.0046  0.0401
 1585TIP3    H126246   0.650   6.222   5.881  0.2481 -1.7354  1.1868
 1585TIP3    H226247   0.582   6.090   5.852 -2.8625  0.0390 -0.1040
 1586TIP3   OH226248   1.848   4.839  13.141 -0.3284 -0.7705  0.0739
 1586TIP3    H126249   1.926   4.894  13.151 -0.0152 -1.3038  0.6453
 1586TIP3    H226250   1.776   4.901  13.131  0.0104 -0.2496  0.7646
 1587TIP3   OH226251   4.162   3.692   3.500  0.1416  0.0575  0.3483
 1587TIP3    H126252   4.242   3.656   3.461 -0.4123 -1.5014  0.5813
 1587TIP3    H226253   4.193   3.760   3.559  1.2216  0.1442 -0.2841
 1588TIP3   OH226254   6.630   2.729   3.031  0.3556 -0.0103  0.2968
 1588TIP3    H126255   6.574   2.802   3.005  0.6096 -0.4116 -1.5021
 1588TIP3    H226256   6.642   2.678   2.951  2.0467 -0.7664  0.9768
 1589TIP3   OH226257   2.694   4.127  13.875  0.4029  0.0257  0.1371
 1589TIP3    H126258   2.713   4.220  13.866  1.8959 -0.0790  1.7306
 1589TIP3    H226259   2.600   4.123  13.888  0.1390  1.1888 -1.1741
 1590TIP3   OH226260   1.290   5.144   6.382  0.2577 -0.3826 -0.0068
 1590TIP3    H126261   1.353   5.106   6.321  0.1816 -1.8042  0.7633
 1590TIP3    H226262   1.246   5.069   6.421  0.5414  0.4557  2.0604
 1591TIP3   OH226263   2.419   2.472   3.398 -0.7323 -0.0357  0.2089
 1591TIP3    H126264   2.396   2.564   3.409 -0.9973 -0.3082  2.2087
 1591TIP3    H226265   2.459   2.446   3.481  0.9900 -1.2873 -0.9378
 1592TIP3   OH226266   0.760   4.228  11.565  0.6029  0.6033  0.4688
 1592TIP3    H126267   0.699   4.193  11.500  2.8678 -0.1638 -1.3758
 1592TIP3    H226268   0.734   4.187  11.647 -1.3609  0.3665 -0.2127
 1593TIP3   OH226269   1.411   1.147  15.934  0.2151  0.6276  0.0893
 1593TIP3    H126270   1.384   1.056  15.924  0.4048  0.5528  0.2528
 1593TIP3    H226271   1.344   1.185  15.991  0.7271  0.3104  0.9244
 1594TIP3   OH226272   0.039   3.677   0.816 -0.1690 -0.1337 -0.2797
 1594TIP3    H126273   0.008   3.741   0.751  1.7352  2.1891  0.9345
 1594TIP3    H226274   0.025   3.720   0.900 -0.1773 -1.9962  0.7212
 1595TIP3   OH226275   3.251   0.956   6.470 -0.3852  0.9780  0.2520
 1595TIP3    H126276   3.331   0.947   6.418 -0.9428 -0.1800 -0.4400
 1595TIP3    H226277   3.248   0.877   6.523 -0.8987  1.1792  0.5244
 1596TIP3   OH226278   2.082   0.380  14.060 -0.2225  0.1732  0.1223
 1596TIP3    H126279   2.160   0.337  14.026 -0.2127  1.3586 -1.4503
 1596TIP3    H226280   2.075   0.348  14.150  1.5840 -0.6058  0.0351
 1597TIP3   OH226281   6.479   1.650  11.081  0.5678  0.2576 -0.0383
 1597TIP3    H126282   6.450   1.636  10.991 -0.2629  3.0523 -0.3230
 1597TIP3    H226283   6.574   1.649  11.076  0.5460  1.1721 -1.1449
 1598TIP3   OH226284   5.072   5.729  17.037 -0.3668  0.9811 -0.1055
 1598TIP3    H126285   5.111   5.744  16.950 -0.7733 -0.1867 -0.5022
 1598TIP3    H226286   5.040   5.639  17.034  1.3195  0.2470  1.9181
 1599TIP3   OH226287   0.872   0.967   3.345  0.2972  0.0879  0.1758
 1599TIP3    H126288   0.825   0.963   3.262 -0.5940  0.2636  0.6605
 1599TIP3    H226289   0.825   1.033   3.396  0.8402 -0.0116  0.8130
 1600TIP3   OH226290   4.847   0.882   5.240 -0.0226  0.3809  0.6640
 1600TIP3    H126291   4.917   0.837   5.191 -0.2677  0.1024  0.5684
 1600TIP3    H226292   4.871   0.870   5.332  0.6799  1.2851  0.6170
 1601TIP3   OH226293   0.739   0.515  11.579 -0.1348 -0.3029  0.0043
 1601TIP3    H126294   0.664   0.459  11.598 -1.2331  1.7303  2.1877
 1601TIP3    H226295   0.815   0.458  11.589 -1.2815 -2.0330 -0.7133
 1602TIP3   OH226296   6.122   5.431   1.222 -0.3537 -0.3895 -0.0389
 1602TIP3    H126297   6.188   5.431   1.291  0.9547  0.6703 -1.2266
 1602TIP3    H226298   6.088   5.520   1.220 -0.8955 -0.5931 -0.3007
 1603TIP3   OH226299   1.880   3.463  15.122 -0.2052 -0.0819  0.2465
 1603TIP3    H126300   1.940   3.429  15.189  0.2507  0.5248  0.1553
 1603TIP3    H226301   1.800   3.484  15.169  0.2618  0.7597  0.6969
 1604TIP3   OH226302   1.343   1.807  14.275 -0.2156 -0.2097 -0.6229
 1604TIP3    H126303   1.405   1.739  14.301  1.3862  0.6869 -1.8979
 1604TIP3    H226304   1.271   1.798  14.336  1.9550 -0.1590  2.1534
 1605TIP3   OH226305   2.692   6.385  14.171 -0.2139 -0.6145 -0.0726
 1605TIP3    H126306   2.759   6.403  14.106  0.2529 -1.0365  0.2812
 1605TIP3    H226307   2.609   6.393  14.124  0.1339 -1.4443 -0.8514
 1606TIP3   OH226308   1.189   3.382   2.006  0.1208  0.0718  1.0429
 1606TIP3    H126309   1.128   3.321   1.964  0.4953  0.0972  0.4512
 1606TIP3    H226310   1.205   3.344   2.092 -0.4277 -0.1381  1.0591
 1607TIP3   OH226311   5.897   0.271   0.503 -0.2893  0.1758  0.3914
 1607TIP3    H126312   5.825   0.324   0.468 -1.1473 -0.6710  0.7984
 1607TIP3    H226313   5.875   0.260   0.596 -0.4831 -1.4007  0.1867
 1608TIP3   OH226314   6.596   6.316   1.765 -0.0849  0.2125  0.2744
 1608TIP3    H126315   6.633   6.255   1.829  1.2273  0.3927 -0.2995
 1608TIP3    H226316   6.606   6.272   1.681  1.2864  1.3707 -0.2039
 1609TIP3   OH226317   2.393   4.927  12.281  0.4275 -0.5053  0.6011
 1609TIP3    H126318   2.425   4.906  12.193  1.2900  1.3198  0.4323
 1609TIP3    H226319   2.453   4.994  12.313 -0.4148 -0.4780  2.2449
 1610TIP3   OH226320   4.665   3.580   3.705 -0.0262 -0.4236  0.7056
 1610TIP3    H126321   4.691   3.489   3.724  0.1131 -0.7196 -0.8095
 1610TIP3    H226322   4.621   3.575   3.621  0.9589  1.0777  0.0653
 1611TIP3   OH226323   3.261   1.491  11.529  0.4606  0.4468 -0.0979
 1611TIP3    H126324   3.336   1.535  11.570  0.2161  1.6418 -0.8687
 1611TIP3    H226325   3.192   1.557  11.529 -1.5237 -1.3783  2.8833
 1612TIP3   OH226326   3.259   4.371  12.363  0.6881 -0.0026  0.3045
 1612TIP3    H126327   3.323   4.347  12.430  1.4172 -1.1097 -0.7523
 1612TIP3    H226328   3.251   4.293  12.308  0.8756  1.1789 -1.4916
 1613TIP3   OH226329   1.711   1.516   4.819 -0.5501 -0.0868 -0.0944
 1613TIP3    H126330   1.712   1.454   4.746  2.1516 -0.7209  0.3441
 1613TIP3    H226331   1.776   1.582   4.795 -0.2473  0.1715  1.3286
 1614TIP3   OH226332   5.557   0.630  15.409  0.2486 -0.0411 -0.6327
 1614TIP3    H126333   5.609   0.616  15.488 -0.8344 -0.5755  0.0065
 1614TIP3    H226334   5.513   0.546  15.394 -1.7733  0.8893 -0.1602
 1615TIP3   OH226335   0.143   0.943   0.663 -0.0221 -0.4425 -0.1760
 1615TIP3    H126336   0.227   0.974   0.697  0.5908 -0.7490 -1.3839
 1615TIP3    H226337   0.132   0.856   0.702 -0.3069  0.0257  0.8257
 1616TIP3   OH226338   0.423   2.237  11.123 -0.3784  0.3122  0.6577
 1616TIP3    H126339   0.417   2.285  11.040 -0.1823  1.5241  1.3280
 1616TIP3    H226340   0.517   2.219  11.133 -0.6817 -3.8294 -1.5370
 1617TIP3   OH226341   1.547   2.842   6.363 -0.7184 -0.0966 -0.3999
 1617TIP3    H126342   1.465   2.842   6.313 -1.0304  1.6475  0.0374
 1617TIP3    H226343   1.531   2.784   6.437 -0.9946 -1.0064 -1.1522
 1618TIP3   OH226344   2.058   6.807   3.911  0.2477 -0.6735  0.8779
 1618TIP3    H126345   2.043   6.721   3.871  1.5576 -0.0279 -1.1261
 1618TIP3    H226346   1.970   6.843   3.920 -0.1577 -0.4853 -2.4444
 1619TIP3   OH226347   5.310   4.732  14.772  0.3590 -0.2009 -0.4157
 1619TIP3    H126348   5.367   4.805  14.750  0.2755 -0.1281 -0.3919
 1619TIP3    H226349   5.236   4.740  14.711  0.8803 -0.9073 -1.1587
 1620TIP3   OH226350   5.448   1.819   4.430 -0.3689  0.2813 -0.3049
 1620TIP3    H126351   5.384   1.890   4.420 -0.9516 -0.0570  0.9568
 1620TIP3    H226352   5.459   1.809   4.524 -0.0987 -1.1454 -0.4687
 1621TIP3   OH226353   4.755   5.803  12.711 -0.9069 -0.0793  0.4755
 1621TIP3    H126354   4.660   5.807  12.702 -0.9583 -1.1091  0.5448
 1621TIP3    H226355   4.770   5.797  12.805 -0.7607  0.1165  0.4677
 1622TIP3   OH226356   1.046   1.545  15.588  0.4807 -0.0925  1.0307
 1622TIP3    H126357   1.129   1.547  15.542  0.9359 -0.8561  1.7776
 1622TIP3    H226358   1.019   1.453  15.584 -0.5658  0.2267  0.3993
 1623TIP3   OH226359   1.902   4.391  11.744 -0.6423 -0.5493 -0.6937
 1623TIP3    H126360   1.853   4.315  11.712 -4.0044 -0.6908  3.8638
 1623TIP3    H226361   1.835   4.459  11.755  1.6052  1.8366 -0.9218
 1624TIP3   OH226362   6.549   2.811  12.276 -0.1477  0.2750 -0.4071
 1624TIP3    H126363   6.475   2.861  12.310 -0.8519 -0.6279 -0.5781
 1624TIP3    H226364   6.516   2.771  12.196  0.5576 -0.0803 -0.5264
 1625TIP3   OH226365   0.075   2.382  16.243  0.0596 -0.1633  0.2248
 1625TIP3    H126366   0.096   2.455  16.185  0.2785 -0.1014  0.3801
 1625TIP3    H226367   0.122   2.308  16.205  2.1642  0.3642  1.6133
 1626TIP3   OH226368   1.712   3.109  11.551 -0.5600 -0.0247 -0.3411
 1626TIP3    H126369   1.762   3.189  11.533 -0.1863 -0.2871 -0.4778
 1626TIP3    H226370   1.677   3.083  11.467 -0.3722 -0.2076 -0.3651
 1627TIP3   OH226371   0.545   2.116  11.775 -0.1073 -0.4926 -0.3258
 1627TIP3    H126372   0.479   2.158  11.829 -1.0264 -0.9831 -1.0336
 1627TIP3    H226373   0.627   2.128  11.822 -0.7831 -0.3201  0.8246
 1628TIP3   OH226374   1.015   5.505  11.085 -0.3852 -0.3208 -0.1924
 1628TIP3    H126375   0.958   5.560  11.137 -0.2239 -0.6956  0.3874
 1628TIP3    H226376   0.968   5.492  11.002 -0.1906  1.1117 -0.5517
 1629TIP3   OH226377   5.998   0.264  16.077  0.0392 -0.0797  0.3303
 1629TIP3    H126378   6.047   0.331  16.028 -0.2834 -0.7340 -0.9419
 1629TIP3    H226379   5.941   0.224  16.011 -1.3463 -0.1420  1.5416
 1630TIP3   OH226380   3.199   3.021  16.266  0.3245 -0.6487  0.0178
 1630TIP3    H126381   3.189   3.083  16.193 -0.0749 -1.8224 -0.9612
 1630TIP3    H226382   3.290   2.994  16.262  0.2011 -1.0293 -0.3292
 1631TIP3   OH226383   5.110   6.442   3.994 -0.1343  0.4988 -0.5162
 1631TIP3    H126384   5.034   6.426   3.939  0.8672  0.4019 -1.9117
 1631TIP3    H226385   5.081   6.509   4.056 -1.6015 -0.1418 -0.4602
 1632TIP3   OH226386   5.354   6.572  16.392  0.2868  0.1792  0.6446
 1632TIP3    H126387   5.282   6.575  16.455  1.1616  1.1887  1.6543
 1632TIP3    H226388   5.328   6.634  16.324 -0.7642 -1.0774 -0.1432
 1633TIP3   OH226389   1.123   2.576  13.641 -0.0481  0.2714  0.5153
 1633TIP3    H126390   1.042   2.549  13.598  0.4643 -0.4833  0.0115
 1633TIP3    H226391   1.137   2.511  13.710 -0.1771  0.7361  0.9854
 1634TIP3   OH226392   4.218   4.949  14.066 -0.4385 -0.4564 -0.2598
 1634TIP3    H126393   4.144   4.891  14.085 -0.2016 -0.9660 -0.8725
 1634TIP3    H226394   4.293   4.890  14.055  0.4102  0.1123  1.8167
 1635TIP3   OH226395   0.300   6.059   0.389  0.1612  0.0070 -0.6699
 1635TIP3    H126396   0.329   6.113   0.462 -1.8372  0.7387 -0.3437
 1635TIP3    H226397   0.348   6.092   0.313  0.7749  0.5755 -0.0423
 1636TIP3   OH226398   5.181   1.391  14.460 -0.0346 -0.7519 -0.1557
 1636TIP3    H126399   5.128   1.343  14.397 -0.3016 -0.2255 -0.3379
 1636TIP3    H226400   5.271   1.363  14.441 -0.0244 -0.0449 -1.2914
 1637TIP3   OH226401   0.679   4.838  15.957  0.1705 -0.1336 -0.1621
 1637TIP3    H126402   0.774   4.829  15.958  0.1633 -0.3286 -0.9766
 1637TIP3    H226403   0.655   4.831  15.865 -0.3422  3.2380 -0.4221
 1638TIP3   OH226404   5.533   3.848  13.268  0.0215  0.4760  0.5781
 1638TIP3    H126405   5.516   3.858  13.361 -0.3454 -0.6814  0.6487
 1638TIP3    H226406   5.616   3.800  13.263 -0.4940 -0.3939  0.3242
 1639TIP3   OH226407   2.646   5.228   5.762 -0.0874 -0.0549  0.5120
 1639TIP3    H126408   2.607   5.208   5.847 -0.0555  0.7110  0.7196
 1639TIP3    H226409   2.614   5.160   5.703 -0.9854  0.0344  0.8884
 1640TIP3   OH226410   4.171   1.021   4.477 -0.1276 -0.1238 -0.7772
 1640TIP3    H126411   4.186   0.928   4.458 -1.2968 -0.7008  0.9245
 1640TIP3    H226412   4.107   1.048   4.410 -1.2332 -1.0732 -0.1456
 1641TIP3   OH226413   5.682   1.238  14.004 -0.1555  0.4013 -0.0116
 1641TIP3    H126414   5.742   1.165  13.989 -1.0727 -0.7900  1.7528
 1641TIP3    H226415   5.603   1.197  14.039 -1.2618  2.1211 -0.3523
 1642TIP3   OH226416   5.745   6.023   1.413 -0.2519 -0.1996 -0.0934
 1642TIP3    H126417   5.735   5.973   1.494 -1.7474 -0.3302 -0.3382
 1642TIP3    H226418   5.759   6.113   1.442 -0.4444 -0.2969  0.3093
 1643TIP3   OH226419   5.740   1.038  12.366  0.0744  0.0737  0.4567
 1643TIP3    H126420   5.720   1.131  12.367 -2.3148 -0.3714  0.0047
 1643TIP3    H226421   5.822   1.030  12.416  0.1138  2.3356  0.8363
 1644TIP3   OH226422   6.130   0.121   3.080  0.2781  0.0425  0.7304
 1644TIP3    H126423   6.203   0.069   3.113  0.1031 -0.2203  0.7144
 1644TIP3    H226424   6.141   0.208   3.118 -0.0128 -0.2981  1.6084
 1645TIP3   OH226425   1.500   5.905   3.887 -0.0447  0.5443  0.6300
 1645TIP3    H126426   1.480   5.822   3.845  0.2042  0.5455  0.5113
 1645TIP3    H226427   1.587   5.894   3.925 -0.5068  0.3387  1.6754
 1646TIP3   OH226428   3.183   2.363  13.679  0.1043 -0.2212 -0.0128
 1646TIP3    H126429   3.103   2.407  13.653 -0.2287 -0.9071 -0.1805
 1646TIP3    H226430   3.159   2.313  13.757  0.6197  0.3261  0.5077
 1647TIP3   OH226431   4.762   5.927  10.676  0.2657 -0.2438  0.0128
 1647TIP3    H126432   4.667   5.924  10.683  0.1196  0.7435 -1.1553
 1647TIP3    H226433   4.779   5.938  10.582  1.5045  0.0961  0.2502
 1648TIP3   OH226434   5.429   5.965   6.567 -0.7322 -0.2840 -0.3820
 1648TIP3    H126435   5.364   5.903   6.600 -0.4394 -0.1230  0.5191
 1648TIP3    H226436   5.409   6.047   6.612  0.7731 -0.5074  0.7561
 1649TIP3   OH226437   0.600   2.120  14.263  0.4173  0.0123  0.3735
 1649TIP3    H126438   0.529   2.137  14.201 -0.7792  0.0294  1.7262
 1649TIP3    H226439   0.655   2.199  14.257 -1.3245  1.4014  1.5042
 1650TIP3   OH226440   1.869   5.883   4.673 -0.4349 -0.4777  0.0952
 1650TIP3    H126441   1.853   5.920   4.587  0.1809  0.1233  0.2344
 1650TIP3    H226442   1.859   5.956   4.734  0.5825 -0.5630  0.3936
 1651TIP3   OH226443   2.553   6.467  17.095  0.0442 -0.0415  0.0653
 1651TIP3    H126444   2.612   6.408  17.141 -1.4126 -1.2905  0.4217
 1651TIP3    H226445   2.474   6.471  17.149 -0.3560  1.3086 -0.5511
 1652TIP3   OH226446   3.396   0.248  16.422 -0.5049 -0.1893 -0.2291
 1652TIP3    H126447   3.424   0.218  16.335  0.9373  2.5483 -0.8272
 1652TIP3    H226448   3.454   0.202  16.483 -0.3406 -0.8185 -0.8521
 1653TIP3   OH226449   6.201   0.963   0.979  0.2849 -1.3280 -0.5909
 1653TIP3    H126450   6.237   0.993   0.896  0.5416 -0.3438 -0.1363
 1653TIP3    H226451   6.250   0.883   0.998 -0.3784 -2.0495 -1.8011
 1654TIP3   OH226452   3.185   1.519  12.316 -0.7474 -0.2039  0.0697
 1654TIP3    H126453   3.259   1.474  12.357 -0.7871  1.6060  2.3259
 1654TIP3    H226454   3.215   1.539  12.227  1.3082  0.0499  0.7775
 1655TIP3   OH226455   3.786   4.137  13.417  0.1980 -0.1175 -0.7222
 1655TIP3    H126456   3.832   4.204  13.467 -0.1611  0.0521 -0.6180
 1655TIP3    H226457   3.744   4.082  13.483 -1.4655  0.9435 -0.8497
 1656TIP3   OH226458   1.728   4.242   5.104  0.0124 -0.4380  1.1529
 1656TIP3    H126459   1.712   4.267   5.195  2.1000  1.0241  1.1839
 1656TIP3    H226460   1.807   4.187   5.108 -1.0712 -2.1388  0.4016
 1657TIP3   OH226461   5.582   5.221  17.223 -0.3888  0.1156 -0.5501
 1657TIP3    H126462   5.639   5.159  17.267 -1.5027 -1.4070 -1.1288
 1657TIP3    H226463   5.619   5.307  17.242  0.1556 -0.5893  1.8386
 1658TIP3   OH226464   6.177   1.161   5.355  0.3757 -0.2152 -0.3821
 1658TIP3    H126465   6.143   1.250   5.350 -0.6323 -0.5903 -0.5932
 1658TIP3    H226466   6.175   1.139   5.448 -0.2592 -0.3274 -0.4145
 1659TIP3   OH226467   2.558   3.494  16.071  0.1341 -0.1679 -0.5860
 1659TIP3    H126468   2.496   3.451  16.012  0.9792 -0.6321 -1.1532
 1659TIP3    H226469   2.612   3.423  16.105  0.7719  0.3041 -0.5957
 1660TIP3   OH226470   6.373   0.742  12.094 -0.0055  0.0419  0.8058
 1660TIP3    H126471   6.345   0.806  12.160  1.0852 -0.4248  1.7502
 1660TIP3    H226472   6.440   0.690  12.138  0.4910 -0.5195 -0.5692
 1661TIP3   OH226473   0.643   5.831   0.810  0.1099 -0.2538  0.3707
 1661TIP3    H126474   0.659   5.736   0.811  0.7644 -0.1942 -1.6368
 1661TIP3    H226475   0.697   5.865   0.881  1.3722 -1.1880 -0.1037
 1662TIP3   OH226476   2.811   2.350   5.329  0.6495 -0.4633  0.0884
 1662TIP3    H126477   2.859   2.267   5.335 -1.0494 -1.4222  1.1671
 1662TIP3    H226478   2.872   2.415   5.364  1.7712 -1.3404 -0.1483
 1663TIP3   OH226479   2.155   3.687  16.737 -0.8700  0.1748  0.2703
 1663TIP3    H126480   2.071   3.724  16.708 -0.3172  1.6990  0.5170
 1663TIP3    H226481   2.215   3.705  16.666  0.0256  2.1626  1.4542
 1664TIP3   OH226482   6.059   6.463  16.233  0.9518  1.2697 -0.2669
 1664TIP3    H126483   6.055   6.518  16.155  0.9778  1.9856  0.2287
 1664TIP3    H226484   6.129   6.501  16.286  0.6474  1.0491  0.2990
 1665TIP3   OH226485   4.134   3.063  17.032 -0.1121 -0.1264  0.1383
 1665TIP3    H126486   4.103   3.065  16.941 -1.7986 -1.1125  0.6505
 1665TIP3    H226487   4.149   3.155  17.054 -1.5704  0.3098 -0.5451
 1666TIP3   OH226488   2.899   4.573  13.851  0.1035 -0.1068 -0.4169
 1666TIP3    H126489   2.972   4.533  13.804  1.3508  2.6540 -1.0609
 1666TIP3    H226490   2.868   4.642  13.792 -3.0282 -1.1151 -0.1134
 1667TIP3   OH226491   5.389   1.629   3.014  0.0823  0.4055  0.2606
 1667TIP3    H126492   5.458   1.692   3.038 -2.1159  2.4807  1.5225
 1667TIP3    H226493   5.322   1.682   2.971 -2.0628 -0.9476  1.7447
 1668TIP3   OH226494   1.591   3.214   5.409  0.2893  0.6212  0.1029
 1668TIP3    H126495   1.593   3.153   5.483 -0.0372  0.5909  0.0857
 1668TIP3    H226496   1.564   3.160   5.335  0.0657  0.7717  0.0740
 1669TIP3   OH226497   1.697   5.973  12.646  0.4103 -0.0655  0.2573
 1669TIP3    H126498   1.684   5.887  12.606 -0.5357  0.3942 -0.4590
 1669TIP3    H226499   1.764   6.015  12.591 -0.1229  0.1643 -0.2277
 1670TIP3   OH226500   1.516   5.091   1.140 -0.0413  0.4898 -0.3159
 1670TIP3    H126501   1.482   5.008   1.106 -1.8706  0.0082  2.4345
 1670TIP3    H226502   1.611   5.083   1.130 -0.2777 -1.0347 -1.9548
 1671TIP3   OH226503   1.040   0.973  17.227 -0.2842 -0.4932  0.9752
 1671TIP3    H126504   1.070   0.998  17.314 -0.6686  0.2950  0.8863
 1671TIP3    H226505   1.065   0.881  17.218 -0.1945 -0.5591  1.8956
 1672TIP3   OH226506   2.313   0.975  14.375 -0.5432 -0.1968 -0.0990
 1672TIP3    H126507   2.346   0.987  14.286 -1.7144  0.0062 -0.5126
 1672TIP3    H226508   2.391   0.986  14.430  0.0296  0.5947 -1.0288
 1673TIP3   OH226509   2.179   2.288   2.003 -0.0568  0.3993 -0.0364
 1673TIP3    H126510   2.133   2.208   1.980  0.4767 -0.6953  2.4530
 1673TIP3    H226511   2.138   2.318   2.084  0.1894  2.3257 -0.5527
 1674TIP3   OH226512   5.295   0.304  17.239  0.0007  0.0493  0.0755
 1674TIP3    H126513   5.311   0.212  17.262 -1.0768 -0.2528 -0.3082
 1674TIP3    H226514   5.209   0.303  17.196  0.6305  1.0129 -1.2904
 1675TIP3   OH226515   5.042   5.138  16.678  0.5462  0.5807 -0.4048
 1675TIP3    H126516   5.065   5.118  16.587  1.4190  2.1299 -0.5771
 1675TIP3    H226517   5.125   5.163  16.718  0.0815  0.4417  0.6828
 1676TIP3   OH226518   5.232   1.587   5.785 -0.7229 -0.5562  0.1006
 1676TIP3    H126519   5.250   1.618   5.874  0.4574  2.0396 -0.9379
 1676TIP3    H226520   5.238   1.492   5.791  4.4857 -0.4299  1.8708
 1677TIP3   OH226521   5.404   2.325   6.526  0.0714 -0.5914 -1.0302
 1677TIP3    H126522   5.444   2.248   6.567 -1.2032  0.0302  1.6262
 1677TIP3    H226523   5.345   2.360   6.593 -1.5823  1.0576 -3.1808
 1678TIP3   OH226524   3.672   3.621  13.706  0.5755  0.2365 -0.3178
 1678TIP3    H126525   3.740   3.560  13.678 -0.2121  0.1666 -2.1813
 1678TIP3    H226526   3.644   3.665  13.626 -0.2337  1.6723  0.6941
 1679TIP3   OH226527   4.391   6.226   4.324 -0.4652  0.2230  0.5172
 1679TIP3    H126528   4.383   6.272   4.241  0.4990 -1.6549 -0.6856
 1679TIP3    H226529   4.485   6.229   4.344 -0.6736  0.5662  1.4943
 1680TIP3   OH226530   2.608   3.952   4.529  0.0233  0.0794 -0.0634
 1680TIP3    H126531   2.641   4.040   4.546 -1.8272  1.2342 -1.9027
 1680TIP3    H226532   2.514   3.959   4.543  0.0723 -2.3367  2.2039
 1681TIP3   OH226533   3.901   0.506   0.660 -0.2516  0.2412  0.1550
 1681TIP3    H126534   3.893   0.438   0.726  0.1860  0.5270  0.5083
 1681TIP3    H226535   3.899   0.459   0.576  1.5600 -0.3795  0.4133
 1682TIP3   OH226536   5.636   0.499  14.437  0.6474 -0.2085 -0.4004
 1682TIP3    H126537   5.621   0.409  14.407  0.0526 -1.4615  3.1816
 1682TIP3    H226538   5.549   0.534  14.453  0.8920  0.9602 -1.4356
 1683TIP3   OH226539   3.849   0.987   4.846  0.1904  0.1310  0.1071
 1683TIP3    H126540   3.922   1.015   4.900  0.9839 -1.9963  0.2178
 1683TIP3    H226541   3.872   1.016   4.757  1.0883 -0.3770  0.1694
 1684TIP3   OH226542   6.369   2.724   0.327  0.6100 -0.2977 -0.1662
 1684TIP3    H126543   6.383   2.748   0.235  1.1724 -1.9387 -0.5422
 1684TIP3    H226544   6.457   2.714   0.363  0.5117  3.3121  1.4687
 1685TIP3   OH226545   5.702   1.104   1.103 -0.4573 -0.7762 -0.9344
 1685TIP3    H126546   5.744   1.019   1.094  0.4167 -0.5894  0.8694
 1685TIP3    H226547   5.775   1.166   1.105 -0.9359 -0.2199 -0.0348
 1686TIP3   OH226548   6.349   3.333   3.819 -0.2724  0.4665  0.2816
 1686TIP3    H126549   6.411   3.260   3.818 -1.3650 -0.4765 -0.6893
 1686TIP3    H226550   6.362   3.377   3.735 -1.7589 -0.4835 -0.4707
 1687TIP3   OH226551   0.096   2.750  12.913 -0.0509 -0.1926 -0.0146
 1687TIP3    H126552   0.142   2.772  12.832 -0.2203  0.0458 -0.0483
 1687TIP3    H226553   0.141   2.801  12.980  0.3846 -0.7467  0.1169
 1688TIP3   OH226554   4.635   4.181  15.725  0.1182  0.2852  0.5101
 1688TIP3    H126555   4.545   4.202  15.749 -0.4751 -0.8117 -0.6917
 1688TIP3    H226556   4.630   4.150  15.635  1.9845  2.1283 -0.3322
 1689TIP3   OH226557   6.112   1.050  12.757  0.2449  0.9448 -0.4449
 1689TIP3    H126558   6.196   1.095  12.757  0.7386  0.0612 -1.4391
 1689TIP3    H226559   6.132   0.960  12.782 -0.8197  1.3609  2.1608
 1690TIP3   OH226560   4.871   4.126   5.592 -0.2098 -0.0847 -0.2307
 1690TIP3    H126561   4.850   4.045   5.544  2.4209 -0.6604 -0.5609
 1690TIP3    H226562   4.862   4.195   5.526 -0.6317 -0.3490 -0.4578
 1691TIP3   OH226563   0.998   2.132  16.362  0.4693 -0.1283  0.5765
 1691TIP3    H126564   0.998   2.057  16.422  0.5575 -0.0694  0.6504
 1691TIP3    H226565   0.990   2.093  16.275  1.2080 -0.2624  0.5652
 1692TIP3   OH226566   5.398   1.376  14.761 -0.1381  0.2913  0.2340
 1692TIP3    H126567   5.464   1.308  14.776 -0.3932  0.0101  0.0948
 1692TIP3    H226568   5.442   1.441  14.706 -0.8861 -1.3631 -2.4563
 1693TIP3   OH226569   1.250   2.427   3.623  0.7784  0.0307  0.1951
 1693TIP3    H126570   1.331   2.469   3.652  0.1715  1.4515 -0.0592
 1693TIP3    H226571   1.241   2.454   3.532  0.7210 -1.2738 -0.2070
 1694TIP3   OH226572   0.754   4.049   2.285  0.2144 -0.0836 -0.4202
 1694TIP3    H126573   0.764   3.957   2.312 -2.3164 -0.5196 -0.7674
 1694TIP3    H226574   0.757   4.098   2.367 -0.4712 -0.6976 -0.0171
 1695TIP3   OH226575   6.097   1.020   4.150 -0.5704  0.2825 -0.2216
 1695TIP3    H126576   6.021   1.064   4.115 -0.5897 -0.3488 -0.9954
 1695TIP3    H226577   6.124   0.958   4.082 -1.5036 -2.0640  1.3975
 1696TIP3   OH226578   1.355   1.477   0.396 -0.8781 -0.4796  0.1138
 1696TIP3    H126579   1.259   1.479   0.396 -1.0817 -2.2292  4.0970
 1696TIP3    H226580   1.380   1.552   0.451 -0.2076 -1.8552  1.7633
 1697TIP3   OH226581   5.104   2.517  14.532 -0.7678  0.2486 -0.4212
 1697TIP3    H126582   5.071   2.605  14.512  1.2729  1.6484  1.7628
 1697TIP3    H226583   5.045   2.484  14.600 -1.5883 -0.1347 -1.3060
 1698TIP3   OH226584   6.345   3.843  12.622  0.6126 -0.0022  0.5177
 1698TIP3    H126585   6.314   3.822  12.534 -0.6315  1.6428  0.5155
 1698TIP3    H226586   6.294   3.786  12.680  0.8049 -0.4603  0.2436
 1699TIP3   OH226587   5.419   5.602   2.175  0.0595  0.0266  0.0391
 1699TIP3    H126588   5.411   5.595   2.270 -1.8363  2.1906  0.1182
 1699TIP3    H226589   5.383   5.521   2.141 -1.1976  0.1036  1.1384
 1700TIP3   OH226590   4.165   4.006   6.524 -0.2694  0.2244  0.4869
 1700TIP3    H126591   4.071   3.989   6.522  0.0873 -2.1977  1.2949
 1700TIP3    H226592   4.197   3.960   6.601  1.7225  0.1438 -0.3097
 1701TIP3   OH226593   6.096   5.636  15.925  0.4052 -0.2720  0.8029
 1701TIP3    H126594   6.013   5.596  15.897  1.1533 -0.5504 -1.1890
 1701TIP3    H226595   6.132   5.673  15.844  1.3236  1.5268  1.9991
 1702TIP3   OH226596   4.637   4.336  13.078  0.6218 -0.2621 -0.2852
 1702TIP3    H126597   4.624   4.368  13.168  3.1528 -0.3177  0.1598
 1702TIP3    H226598   4.634   4.414  13.024  0.7100 -0.0317  0.0417
 1703TIP3   OH226599   0.964   3.221   6.421 -0.2976  0.1861 -0.2249
 1703TIP3    H126600   0.916   3.146   6.457  0.3626  1.7413  4.5220
 1703TIP3    H226601   0.897   3.285   6.399 -0.6879 -0.5045 -1.1006
 1704TIP3   OH226602   1.542   5.550   4.434  0.3885 -0.3726 -0.3555
 1704TIP3    H126603   1.630   5.586   4.446  0.6702 -0.7097 -1.2869
 1704TIP3    H226604   1.556   5.456   4.419 -0.0655 -0.3225 -1.1588
 1705TIP3   OH226605   4.521   3.865   5.664  0.8557 -0.1826 -0.0617
 1705TIP3    H126606   4.511   3.938   5.603 -0.2395  0.9867  1.4504
 1705TIP3    H226607   4.602   3.885   5.711  1.0535 -0.4513 -0.2825
 1706TIP3   OH226608   2.266   2.606   0.433  0.0912 -0.4617  0.3440
 1706TIP3    H126609   2.185   2.625   0.386 -0.1078  1.0824  1.2609
 1706TIP3    H226610   2.262   2.660   0.512  2.0168 -0.3247  0.4009
 1707TIP3   OH226611   2.051   5.783  11.161 -0.3614 -0.3694 -0.1221
 1707TIP3    H126612   2.109   5.790  11.237 -1.2653 -2.1838  0.7863
 1707TIP3    H226613   2.082   5.705  11.114 -1.7721 -1.1241  0.1521
 1708TIP3   OH226614   4.704   4.434   0.675  0.3989  0.5014 -0.2284
 1708TIP3    H126615   4.751   4.372   0.731 -0.2901 -1.1882 -1.4187
 1708TIP3    H226616   4.772   4.470   0.617  0.9129  1.3902  0.8963
 1709TIP3   OH226617   3.528   4.763   1.958  0.4361 -0.5393 -0.3242
 1709TIP3    H126618   3.532   4.820   1.882 -0.8728 -2.1773 -1.6960
 1709TIP3    H226619   3.477   4.812   2.022 -0.1022  0.1032 -1.2238
 1710TIP3   OH226620   0.067   4.752  14.821  0.0956  0.2900 -0.5381
 1710TIP3    H126621  -0.010   4.715  14.777  0.1754  0.6942 -1.0356
 1710TIP3    H226622   0.035   4.781  14.906  0.4084 -2.5534  0.6572
 1711TIP3   OH226623   1.611   3.397  10.886 -0.0186  0.4915 -0.3390
 1711TIP3    H126624   1.522   3.418  10.915  1.1569  1.9853  2.5420
 1711TIP3    H226625   1.648   3.482  10.861  1.2686  0.2303  0.5945
 1712TIP3   OH226626   6.789   3.488   0.325 -0.0580 -0.0179 -0.4439
 1712TIP3    H126627   6.699   3.485   0.291  0.3405 -0.6251 -1.4966
 1712TIP3    H226628   6.839   3.436   0.263  0.4873 -2.4270  1.8487
 1713TIP3   OH226629   3.554   1.339   1.032  0.1332  0.4753 -0.1030
 1713TIP3    H126630   3.536   1.251   1.065  0.6209  1.1430  2.1596
 1713TIP3    H226631   3.468   1.377   1.014 -0.0422 -0.8514 -2.3860
 1714TIP3   OH226632   4.442   5.151   3.623  0.3866 -0.0408  0.4984
 1714TIP3    H126633   4.490   5.074   3.655 -0.2341 -0.5573  0.2171
 1714TIP3    H226634   4.467   5.221   3.682  0.4943 -0.6072  1.1420
 1715TIP3   OH226635   1.749   0.256  13.575  0.0406  0.1817  0.3427
 1715TIP3    H126636   1.780   0.315  13.507 -1.9242  0.2583 -0.5565
 1715TIP3    H226637   1.749   0.169  13.534 -2.3814  0.4035 -0.2820
 1716TIP3   OH226638   6.327   3.301   2.891 -0.1012 -0.4388  0.3072
 1716TIP3    H126639   6.362   3.386   2.862  0.9648  0.5600  3.9936
 1716TIP3    H226640   6.369   3.237   2.833  2.1183  1.2941 -0.1416
 1717TIP3   OH226641   2.133   5.345  15.169 -0.6118  0.1469 -0.1162
 1717TIP3    H126642   2.098   5.338  15.080 -0.7843  0.9158 -0.1156
 1717TIP3    H226643   2.158   5.437  15.178 -0.1934 -0.0182  0.4859
 1718TIP3   OH226644   2.271   4.666  11.413  0.2707  0.0674 -0.8992
 1718TIP3    H126645   2.247   4.747  11.369 -0.8393  0.7431  0.8575
 1718TIP3    H226646   2.315   4.694  11.493 -0.9603 -0.9956  0.2048
 1719TIP3   OH226647   0.839   3.952  12.200 -0.4446 -0.2215 -0.4313
 1719TIP3    H126648   0.861   4.007  12.275  0.6167 -0.0034 -0.8791
 1719TIP3    H226649   0.755   3.912  12.223 -2.0574  2.6989 -0.6683
 1720TIP3   OH226650   6.240   5.473   6.169  0.0177  0.2346  0.2006
 1720TIP3    H126651   6.317   5.513   6.129  0.9713  0.4106  2.0852
 1720TIP3    H226652   6.248   5.494   6.262 -1.4555 -1.1464  0.6889
 1721TIP3   OH226653   2.357   4.008   1.560 -0.4106 -0.1474  0.1298
 1721TIP3    H126654   2.324   3.958   1.635 -1.1144  0.7218  0.4175
 1721TIP3    H226655   2.447   4.030   1.583  0.0632 -1.6207 -0.1878
 1722TIP3   OH226656   3.419   0.265   1.183  0.0353  0.5291 -0.0728
 1722TIP3    H126657   3.441   0.358   1.192  0.5021  0.5075 -0.8915
 1722TIP3    H226658   3.438   0.228   1.269 -2.4505  1.6100  1.0397
 1723TIP3   OH226659   6.619   3.203   6.911  0.3157  0.7265 -0.4892
 1723TIP3    H126660   6.705   3.172   6.938 -0.6895 -2.0453 -0.1539
 1723TIP3    H226661   6.584   3.250   6.987  0.2805 -0.9670  0.5811
 1724TIP3   OH226662   0.068   1.366  15.513 -0.2048  0.1361  0.6312
 1724TIP3    H126663   0.058   1.437  15.450 -0.3873 -1.2205 -0.9459
 1724TIP3    H226664   0.162   1.361  15.530 -0.1122  0.2831  0.1784
 1725TIP3   OH226665   4.520   2.446   2.156 -0.1308  0.2995  0.2653
 1725TIP3    H126666   4.433   2.477   2.130 -0.1875 -0.6473 -0.7308
 1725TIP3    H226667   4.574   2.525   2.153 -0.8610  0.8261  0.5008
 1726TIP3   OH226668   5.892   4.980   6.433 -0.0069  0.1009  0.3044
 1726TIP3    H126669   5.813   5.026   6.402  0.1922 -0.6665 -1.4705
 1726TIP3    H226670   5.953   4.986   6.359  0.7222 -1.3431  0.7611
 1727TIP3   OH226671   6.013   5.085   0.278  0.0247  0.6011  0.6522
 1727TIP3    H126672   6.060   5.074   0.195  0.5717  1.0371  0.8931
 1727TIP3    H226673   6.000   4.996   0.310  1.3341  0.4896  0.9217
 1728TIP3   OH226674   3.700   3.182  12.530 -0.0536 -0.4577  0.3696
 1728TIP3    H126675   3.623   3.159  12.479  1.0209 -0.7945 -1.1615
 1728TIP3    H226676   3.673   3.257  12.583 -0.8265  0.8031 -1.7207
 1729TIP3   OH226677   2.556   3.228   3.474 -0.3413 -0.3048  0.2061
 1729TIP3    H126678   2.517   3.307   3.437  1.4823  1.4300  1.7617
 1729TIP3    H226679   2.536   3.233   3.568  1.6649 -0.5017  0.6886
 1730TIP3   OH226680   5.746   2.530   0.370 -0.6507 -0.6272 -0.2457
 1730TIP3    H126681   5.766   2.599   0.307 -1.8968 -1.2102 -1.3308
 1730TIP3    H226682   5.653   2.542   0.390 -0.1531 -0.0673  2.0028
 1731TIP3   OH226683   3.233   2.756  15.294  0.4397 -0.8413 -0.0237
 1731TIP3    H126684   3.167   2.697  15.256 -0.7449 -0.6208  1.5680
 1731TIP3    H226685   3.279   2.702  15.358  1.1206 -0.7116 -0.3986
 1732TIP3   OH226686   1.511   6.217   0.294 -0.5178  0.0534 -0.5099
 1732TIP3    H126687   1.427   6.172   0.283 -0.2443 -1.0297  1.3773
 1732TIP3    H226688   1.506   6.292   0.235 -1.8662 -1.2758 -2.1752
 1733TIP3   OH226689   0.270   3.861  11.776  0.4269 -0.0373 -0.0296
 1733TIP3    H126690   0.356   3.847  11.735  1.1143  2.2649  0.4786
 1733TIP3    H226691   0.290   3.906  11.858 -1.3136  2.9773 -1.0878
 1734TIP3   OH226692   5.143   2.799   4.110 -0.5978  0.5668  0.3831
 1734TIP3    H126693   5.106   2.883   4.081  0.7708  0.5474 -1.6082
 1734TIP3    H226694   5.069   2.738   4.107 -1.4824  1.5381  1.3101
 1735TIP3   OH226695   5.817   4.984   3.974 -0.1549 -0.4976 -0.1170
 1735TIP3    H126696   5.883   4.968   4.041  0.6902 -0.2623 -0.8752
 1735TIP3    H226697   5.829   5.076   3.950 -0.1386 -0.7029 -0.9129
 1736TIP3   OH226698   1.956   4.320   0.735 -0.4149 -0.2165 -0.2186
 1736TIP3    H126699   1.884   4.348   0.791 -1.0128 -0.9872 -0.5943
 1736TIP3    H226700   1.928   4.341   0.646 -0.3261 -0.8323 -0.3956
 1737TIP3   OH226701   0.098   1.229  16.482  0.3152  0.5967 -0.2005
 1737TIP3    H126702   0.010   1.218  16.446 -0.0218  0.4631  0.6422
 1737TIP3    H226703   0.156   1.223  16.406 -0.2502 -1.2172 -0.5428
 1738TIP3   OH226704   1.477   5.778  11.818  0.0900 -0.6689  0.0977
 1738TIP3    H126705   1.557   5.739  11.854  0.1256 -0.1982  0.5341
 1738TIP3    H226706   1.443   5.833  11.889 -0.1840 -0.2296 -0.3713
 1739TIP3   OH226707   1.948   2.577   3.950 -0.4358  0.1335  0.3069
 1739TIP3    H126708   2.034   2.618   3.957 -0.5626  0.3148  0.8114
 1739TIP3    H226709   1.888   2.639   3.991 -0.8643  0.1725 -0.3684
 1740TIP3   OH226710   3.398   2.495  12.787  0.3264 -0.7561 -0.8822
 1740TIP3    H126711   3.367   2.458  12.704 -2.2011 -0.1558 -0.3140
 1740TIP3    H226712   3.463   2.560  12.761 -1.2694  0.2811 -2.5606
 1741TIP3   OH226713   0.566   1.545   5.487 -0.2557  0.1928  0.1488
 1741TIP3    H126714   0.629   1.609   5.456  1.0205 -1.0857  0.0005
 1741TIP3    H226715   0.485   1.566   5.441  0.9422 -0.1364 -2.2459
 1742TIP3   OH226716   1.435   1.517   5.484 -0.0357 -0.1035 -0.2449
 1742TIP3    H126717   1.531   1.513   5.483 -0.0824 -1.8955 -1.1940
 1742TIP3    H226718   1.414   1.575   5.558  1.7666  0.4575 -0.1246
 1743TIP3   OH226719   5.099   2.862  14.063 -0.3014  0.4898  0.4190
 1743TIP3    H126720   5.047   2.928  14.016 -1.1927 -0.2415  0.3348
 1743TIP3    H226721   5.134   2.908  14.139  0.0194  1.3379 -0.2283
 1744TIP3   OH226722   6.736   0.324   1.276 -0.4176 -0.1239 -0.2352
 1744TIP3    H126723   6.796   0.377   1.329 -0.3383  0.9066 -1.3207
 1744TIP3    H226724   6.661   0.308   1.334  0.3573 -0.3908  0.7264
 1745TIP3   OH226725   1.284   1.689   4.102 -0.0287  0.3760  0.2285
 1745TIP3    H126726   1.315   1.615   4.155  1.1176  1.1500  0.6801
 1745TIP3    H226727   1.189   1.681   4.102  0.0895 -1.9548 -0.9746
 1746TIP3   OH226728   5.414   1.466   1.356 -0.1853 -0.0195 -0.4074
 1746TIP3    H126729   5.336   1.423   1.318 -0.0306  0.2909 -1.0931
 1746TIP3    H226730   5.486   1.437   1.300 -0.0560  1.0122 -0.7867
 1747TIP3   OH226731   0.237   0.353   0.998 -0.2655 -0.2386  0.4399
 1747TIP3    H126732   0.151   0.394   0.988  0.6646  2.5750  2.4636
 1747TIP3    H226733   0.294   0.403   0.940  0.2133 -1.5078 -0.2263
 1748TIP3   OH226734   5.753   0.860   5.634 -0.5834  0.3174  0.7739
 1748TIP3    H126735   5.703   0.824   5.708  1.5736  2.1633  3.3648
 1748TIP3    H226736   5.833   0.806   5.633 -0.7891  0.0210 -0.5727
 1749TIP3   OH226737   5.460   6.243  11.927  0.3963  0.2923 -0.1122
 1749TIP3    H126738   5.498   6.287  11.851 -1.3761  1.2156 -0.5099
 1749TIP3    H226739   5.476   6.150  11.910 -0.4249  0.4265 -1.9269
 1750TIP3   OH226740   2.316   4.889   1.995  0.2766  0.1746  0.1642
 1750TIP3    H126741   2.254   4.956   2.022 -1.9728 -2.1600  1.2035
 1750TIP3    H226742   2.263   4.822   1.953  2.0064 -2.0357  1.2773
 1751TIP3   OH226743   0.758   1.833  14.837 -0.4009  0.2087  0.8033
 1751TIP3    H126744   0.717   1.747  14.841 -0.4769  0.1864 -0.1474
 1751TIP3    H226745   0.805   1.834  14.753  0.3639  0.7566  1.2261
 1752TIP3   OH226746   5.555   0.407  13.085  0.3693 -0.4057 -0.0475
 1752TIP3    H126747   5.470   0.379  13.051 -0.7260  2.0482  0.3709
 1752TIP3    H226748   5.567   0.357  13.166 -0.5275 -1.0473 -0.3008
 1753TIP3   OH226749   0.014   3.769   5.691  0.5803  0.0365 -0.3241
 1753TIP3    H126750  -0.037   3.810   5.621  1.0920  0.4247 -0.4838
 1753TIP3    H226751   0.033   3.840   5.752  2.1992  0.2781 -1.0290
 1754TIP3   OH226752   2.039   5.984   3.401 -0.3612  0.4195 -0.3080
 1754TIP3    H126753   2.045   6.077   3.421  2.1132  0.2007  0.3359
 1754TIP3    H226754   2.038   5.941   3.487  1.4671 -0.2239 -0.5702
 1755TIP3   OH226755   6.062   2.154   2.323  0.2507 -0.2354  0.2347
 1755TIP3    H126756   6.150   2.136   2.291 -0.2508  1.6267 -2.5302
 1755TIP3    H226757   6.075   2.186   2.413  2.3024 -0.7539  0.1621
 1756TIP3   OH226758   0.477   1.837   1.087  0.3065 -0.0461 -0.4702
 1756TIP3    H126759   0.517   1.780   1.153 -0.2419  0.0275 -0.0672
 1756TIP3    H226760   0.402   1.787   1.056  0.9441 -0.3759 -1.5485
 1757TIP3   OH226761   6.502   1.229   4.434 -0.3590  0.4116  0.6013
 1757TIP3    H126762   6.509   1.200   4.525 -1.1824  0.4766  0.6984
 1757TIP3    H226763   6.571   1.182   4.388  0.4583  0.8375  1.3681
 1758TIP3   OH226764   0.733   5.029   4.466  0.0564  0.3381  0.2232
 1758TIP3    H126765   0.704   4.981   4.388  2.6131  0.0812 -0.6392
 1758TIP3    H226766   0.802   5.086   4.434  0.5431  0.8997  2.1775
 1759TIP3   OH226767   3.500   3.356  12.655 -0.4626 -0.2673 -0.2619
 1759TIP3    H126768   3.432   3.363  12.587 -1.1736  0.5925  0.5073
 1759TIP3    H226769   3.456   3.383  12.735  0.5587 -0.5844  0.4213
 1760TIP3   OH226770   2.364   4.777   0.236 -0.0432 -0.0028 -0.0916
 1760TIP3    H126771   2.425   4.824   0.180 -0.7720  0.3832 -0.5758
 1760TIP3    H226772   2.293   4.839   0.251 -1.0478 -0.9513 -0.7868
 1761TIP3   OH226773   1.822   4.319  17.139  0.4212  0.4655  0.1988
 1761TIP3    H126774   1.825   4.292  17.231 -2.1276 -0.8835 -0.0331
 1761TIP3    H226775   1.738   4.288  17.107  1.9041 -0.6710 -3.0935
 1762TIP3   OH226776   1.990   4.735  16.149  0.1149 -0.7176 -0.4754
 1762TIP3    H126777   2.083   4.727  16.169  0.6036  1.7038 -1.3725
 1762TIP3    H226778   1.948   4.741  16.235  0.9972 -0.2426 -0.0572
 1763TIP3   OH226779   0.484   2.486   5.027 -0.3514  0.0341  0.4497
 1763TIP3    H126780   0.454   2.574   5.005 -0.1118  0.2844  1.1038
 1763TIP3    H226781   0.454   2.431   4.954 -0.1929  0.7151 -0.1408
 1764TIP3   OH226782   3.081   1.227  12.982  0.2127 -0.1067 -0.0576
 1764TIP3    H126783   3.038   1.161  12.927  0.3258 -1.3131  1.2716
 1764TIP3    H226784   3.127   1.283  12.919  0.3385 -1.4421 -1.2088
 1765TIP3   OH226785   2.425   5.581   1.773  0.5479 -0.1695 -0.0802
 1765TIP3    H126786   2.508   5.620   1.800 -0.1020  1.1277  0.1493
 1765TIP3    H226787   2.368   5.591   1.849 -0.4139  0.8298 -0.8915
 1766TIP3   OH226788   0.647   5.207  16.815 -0.5174  0.3821  0.0619
 1766TIP3    H126789   0.557   5.186  16.791 -0.7854  0.3242  1.0402
 1766TIP3    H226790   0.658   5.298  16.789  0.0325 -0.3349 -2.4777
 1767TIP3   OH226791   5.255   6.581  11.476 -0.4159 -0.2138 -0.2383
 1767TIP3    H126792   5.302   6.630  11.544 -0.5073  1.0507 -1.0414
 1767TIP3    H226793   5.321   6.525  11.437 -0.1061 -0.1416  0.1717
 1768TIP3   OH226794   6.511   6.596  13.076  0.1711  0.2547 -0.5688
 1768TIP3    H126795   6.497   6.557  12.989  0.0830 -1.6496  0.2562
 1768TIP3    H226796   6.579   6.542  13.115 -0.9067  0.0697  1.1402
 1769TIP3   OH226797   1.837   6.508  10.977  0.7336  0.2821 -0.2881
 1769TIP3    H126798   1.813   6.454  10.902 -2.4575 -0.4851  1.1003
 1769TIP3    H226799   1.898   6.453  11.027  2.0382  0.3753 -1.6955
 1770TIP3   OH226800   6.565   1.171  16.526  0.0994 -0.2251  0.1876
 1770TIP3    H126801   6.527   1.165  16.439  0.0569 -0.2042  0.2039
 1770TIP3    H226802   6.491   1.160  16.586  0.0128  0.5113  0.2179
 1771TIP3   OH226803   3.362   3.231   2.907 -0.2290 -0.0265  0.7157
 1771TIP3    H126804   3.419   3.214   2.982  1.2302  0.4839 -0.2165
 1771TIP3    H226805   3.328   3.319   2.922  0.3343  0.2132  0.6421
 1772TIP3   OH226806   1.871   4.726  12.631 -0.0759  0.0655  0.7043
 1772TIP3    H126807   1.937   4.766  12.687  0.8774  0.1394 -0.4296
 1772TIP3    H226808   1.917   4.654  12.587 -0.6526  0.3093 -0.3359
 1773TIP3   OH226809   5.013   2.000  12.462  0.5576 -0.0483 -0.2702
 1773TIP3    H126810   5.070   1.923  12.461  0.4961 -0.1892  1.8827
 1773TIP3    H226811   4.939   1.976  12.406  0.9230 -1.2427 -0.2756
 1774TIP3   OH226812   4.974   3.824  12.000  0.3905 -0.4864 -0.7887
 1774TIP3    H126813   5.026   3.900  12.025 -0.1744 -0.2879 -0.1725
 1774TIP3    H226814   5.022   3.749  12.034  0.6227 -0.3625 -0.8387
 1775TIP3   OH226815   3.394   6.026  14.780  0.2954 -0.2975  0.6899
 1775TIP3    H126816   3.472   6.011  14.833  0.8365  2.0788  0.6710
 1775TIP3    H226817   3.330   6.063  14.840 -0.6174 -1.5818  0.5517
 1776TIP3   OH226818   4.461   5.960  11.893 -0.0572  0.2456 -0.3623
 1776TIP3    H126819   4.554   5.980  11.882  0.6564 -1.1085  2.3667
 1776TIP3    H226820   4.453   5.869  11.863 -0.0005 -0.3405  1.2910
 1777TIP3   OH226821   1.308   5.901  14.599  0.1613 -0.0156 -0.1311
 1777TIP3    H126822   1.222   5.939  14.580  0.1784  1.0709  1.7323
 1777TIP3    H226823   1.339   5.948  14.677  1.0550 -2.5575  1.1756
 1778TIP3   OH226824   4.018   4.934  13.773 -0.6309 -0.4552 -0.3094
 1778TIP3    H126825   3.996   4.926  13.866 -0.6955  1.1012 -0.1612
 1778TIP3    H226826   4.113   4.948  13.772 -0.8537  1.3584 -0.2996
 1779TIP3   OH226827   2.239   3.585  13.057 -0.2263  0.1615  0.0594
 1779TIP3    H126828   2.308   3.521  13.038 -1.1323 -0.8483  0.0575
 1779TIP3    H226829   2.221   3.574  13.150 -0.8437 -0.0700 -0.0796
 1780TIP3   OH226830   6.707   0.088   4.705 -0.4226 -0.1143 -0.4784
 1780TIP3    H126831   6.766   0.118   4.637 -0.2627 -0.3884 -0.4602
 1780TIP3    H226832   6.620   0.094   4.666 -0.4496  0.8761 -0.3010
 1781TIP3   OH226833   1.597   0.139   3.879  0.2457  0.2899 -0.7064
 1781TIP3    H126834   1.630   0.224   3.850  0.4980  0.8053  0.9977
 1781TIP3    H226835   1.502   0.150   3.883  0.4198  1.5649  2.4680
 1782TIP3   OH226836   3.300   4.007   0.611 -0.6209 -0.2427 -0.0135
 1782TIP3    H126837   3.352   4.080   0.577  1.3946 -1.5509  0.1044
 1782TIP3    H226838   3.275   3.957   0.533  0.0489 -0.7147  0.0675
 1783TIP3   OH226839   3.550   5.087   3.942 -0.1328  0.0965 -0.1556
 1783TIP3    H126840   3.580   5.104   4.031 -1.2716 -1.8581  0.6683
 1783TIP3    H226841   3.456   5.073   3.950 -0.1831 -0.5777 -1.5823
 1784TIP3   OH226842   3.474   5.593   2.610 -0.0002 -0.0874  0.2094
 1784TIP3    H126843   3.404   5.658   2.620 -1.2580 -1.3643 -0.0149
 1784TIP3    H226844   3.491   5.591   2.516 -1.4255 -1.5083 -0.0635
 1785TIP3   OH226845   0.461   4.318   4.051  0.3888 -0.1813  0.2843
 1785TIP3    H126846   0.454   4.223   4.058 -2.0832 -0.0269  0.9151
 1785TIP3    H226847   0.529   4.341   4.115  1.2897 -1.5106 -0.1337
 1786TIP3   OH226848   3.044   0.996   2.066 -0.1479 -0.3181 -1.0183
 1786TIP3    H126849   2.959   0.957   2.047  0.7563 -1.3660 -3.2255
 1786TIP3    H226850   3.034   1.089   2.046 -0.5107 -0.6160 -2.3136
 1787TIP3   OH226851   2.993   5.327   5.103  0.6941  0.0117  0.0484
 1787TIP3    H126852   2.991   5.381   5.024  1.7219 -0.1615 -0.0998
 1787TIP3    H226853   3.038   5.380   5.169 -0.4171  0.2739  0.6226
 1788TIP3   OH226854   6.224   0.132  12.414  0.2911  0.2081 -0.7084
 1788TIP3    H126855   6.198   0.052  12.460  1.0534 -0.6818 -1.7878
 1788TIP3    H226856   6.142   0.166  12.377 -0.0713  0.0568 -0.0661
 1789TIP3   OH226857   6.158   6.638  15.376  0.2252 -0.4190 -0.0135
 1789TIP3    H126858   6.221   6.613  15.444  1.5121  0.1931 -0.9397
 1789TIP3    H226859   6.167   6.569  15.310 -1.7731 -1.5884  0.8460
 1790TIP3   OH226860   2.093   2.769  13.097  0.7963  0.2129  0.0988
 1790TIP3    H126861   2.125   2.858  13.110 -0.8775  0.9454 -0.5216
 1790TIP3    H226862   2.045   2.773  13.015 -0.9888 -0.7522  1.0382
 1791TIP3   OH226863   2.239   0.423   0.046 -0.2984 -0.4453  1.1700
 1791TIP3    H126864   2.180   0.420  -0.029 -0.9979 -2.4430  1.7319
 1791TIP3    H226865   2.213   0.501   0.095 -1.5990 -0.5743  0.7064
 1792TIP3   OH226866   3.091   6.228  17.186 -0.3867  0.0220 -0.4948
 1792TIP3    H126867   3.022   6.210  17.251  0.2194  0.1038  0.1762
 1792TIP3    H226868   3.043   6.261  17.110 -1.1850 -0.7904 -0.3772
 1793TIP3   OH226869   3.281   5.236   3.037 -0.0813  0.2277 -0.3265
 1793TIP3    H126870   3.221   5.273   2.973 -1.9802 -1.3485  0.4350
 1793TIP3    H226871   3.232   5.165   3.078  2.7576 -2.1008 -0.5928
 1794TIP3   OH226872   4.560   0.101   1.994 -0.4595 -0.4344 -0.0287
 1794TIP3    H126873   4.521   0.090   1.907 -2.3037  0.7538  0.5985
 1794TIP3    H226874   4.551   0.195   2.012  1.7492 -0.2794  0.6385
 1795TIP3   OH226875   1.015   5.613  13.308 -0.1547  0.0985  0.5625
 1795TIP3    H126876   1.001   5.705  13.330  0.5733 -0.3066  3.1348
 1795TIP3    H226877   1.070   5.615  13.230 -1.4172  1.7857 -0.3507
 1796TIP3   OH226878   0.690   1.885  15.220 -0.3207 -0.2596  0.0199
 1796TIP3    H126879   0.773   1.840  15.237 -1.7158 -2.4321  1.7660
 1796TIP3    H226880   0.694   1.964  15.273  1.7132  1.2556 -2.1775
 1797TIP3   OH226881   1.757   2.504  12.945 -0.1165 -0.4700  0.6516
 1797TIP3    H126882   1.741   2.598  12.944 -1.5729 -0.6775  1.3700
 1797TIP3    H226883   1.813   2.490  13.021 -1.1217 -0.3240  1.4492
 1798TIP3   OH226884   4.853   4.307   2.421 -0.0641 -0.4448  0.0385
 1798TIP3    H126885   4.812   4.382   2.379  1.2824 -0.5172 -1.4759
 1798TIP3    H226886   4.806   4.298   2.504 -1.0766  1.2843 -0.2980
 1799TIP3   OH226887   2.055   3.928  12.615  0.1088 -0.6261  0.1511
 1799TIP3    H126888   2.106   3.931  12.696 -0.5513 -0.4969  0.5633
 1799TIP3    H226889   2.004   3.848  12.621 -1.0249  0.1094  0.5268
 1800TIP3   OH226890   0.751   3.720  14.782 -0.2519 -0.3882  0.5201
 1800TIP3    H126891   0.846   3.710  14.793 -0.2284 -0.8033 -0.0372
 1800TIP3    H226892   0.714   3.688  14.864  0.1282  0.5274  1.0636
 1801TIP3   OH226893   5.874   1.310   3.629 -0.0785 -0.0792  0.2882
 1801TIP3    H126894   5.960   1.338   3.599 -0.6075  0.3567 -0.8883
 1801TIP3    H226895   5.843   1.381   3.685  0.4154 -0.3415  0.8977
 1802TIP3   OH226896   1.904   4.439  14.757 -0.5476  0.4046  0.0010
 1802TIP3    H126897   1.874   4.357  14.716  1.8588  0.5922 -2.3970
 1802TIP3    H226898   1.925   4.414  14.847  0.6589 -1.8183 -0.8068
 1803TIP3   OH226899   2.601   6.180  10.214 -0.5623  0.2603 -0.2948
 1803TIP3    H126900   2.521   6.163  10.165  1.0213 -0.0228 -2.9461
 1803TIP3    H226901   2.623   6.271  10.194 -0.8666  0.7614  1.4861
 1804TIP3   OH226902   6.033   5.295  14.287  0.8959 -0.0878  0.0437
 1804TIP3    H126903   6.008   5.241  14.212  0.9964 -0.4283  0.2509
 1804TIP3    H226904   5.949   5.324  14.325  0.7920  2.6209 -1.9538
 1805TIP3   OH226905   4.349   3.769  15.159  0.6185 -0.6305  0.0095
 1805TIP3    H126906   4.370   3.739  15.070 -0.3617  0.8973 -0.7680
 1805TIP3    H226907   4.426   3.819  15.186 -0.0563  1.0784 -1.0405
 1806TIP3   OH226908   6.383   6.259  16.963  0.4910 -0.4481  0.1244
 1806TIP3    H126909   6.308   6.204  16.940  0.5646 -0.9923  1.1508
 1806TIP3    H226910   6.351   6.349  16.953 -0.5132 -0.6655  1.1514
 1807TIP3   OH226911   5.334   2.709  17.009 -0.1168  0.2758  0.2183
 1807TIP3    H126912   5.248   2.673  17.032  0.0097 -0.5978 -0.6029
 1807TIP3    H226913   5.315   2.776  16.944 -0.1779 -0.0150 -0.0682
 1808TIP3   OH226914   2.283   3.754   2.084  0.3566 -0.0735  0.0290
 1808TIP3    H126915   2.207   3.808   2.106 -0.5092 -0.8676 -0.9082
 1808TIP3    H226916   2.299   3.702   2.163 -0.0547  0.1229  0.2453
 1809TIP3   OH226917   0.052   3.249   2.267 -0.2862  0.4529  0.5173
 1809TIP3    H126918   0.120   3.184   2.248 -0.6749 -0.2078  1.3381
 1809TIP3    H226919   0.100   3.324   2.300  0.2813  1.0851 -1.5747
 1810TIP3   OH226920   0.582   2.467   0.959 -0.0518 -0.4823  0.1592
 1810TIP3    H126921   0.525   2.410   1.010  0.3406 -0.6815  0.3757
 1810TIP3    H226922   0.540   2.553   0.963  0.4668 -0.2713  1.6218
 1811TIP3   OH226923   5.854   1.659  13.551 -0.2362  0.3175  0.8284
 1811TIP3    H126924   5.905   1.583  13.522  0.6744  0.6161  1.5936
 1811TIP3    H226925   5.861   1.721  13.479  0.2451  0.2367  0.7976
 1812TIP3   OH226926   3.446   5.527  12.336 -0.1011  0.9990 -0.2432
 1812TIP3    H126927   3.437   5.606  12.284  1.5737  1.3883  0.0163
 1812TIP3    H226928   3.434   5.555  12.426 -0.9671  0.6809 -0.2483
 1813TIP3   OH226929   5.243   3.775  12.626 -0.0374 -0.4767 -0.2450
 1813TIP3    H126930   5.187   3.843  12.587  0.2502 -0.6756 -1.0207
 1813TIP3    H226931   5.331   3.795  12.595  0.2769 -0.4080  0.6431
 1814TIP3   OH226932   1.963   4.154   3.044  0.4150 -0.4352  0.3100
 1814TIP3    H126933   1.928   4.080   3.094  2.0901 -1.7262 -0.3357
 1814TIP3    H226934   1.908   4.159   2.966  1.8753 -2.8407 -1.0008
 1815TIP3   OH226935   4.577   6.002  13.891  0.6134 -0.2328  0.2706
 1815TIP3    H126936   4.565   6.091  13.857  1.9003 -0.3178 -0.4841
 1815TIP3    H226937   4.497   5.956  13.867  0.9271  0.0872 -1.5335
 1816TIP3   OH226938   3.612   5.728  14.974  0.1794 -0.2338 -0.3141
 1816TIP3    H126939   3.637   5.707  15.064  3.4145  1.6514 -0.6129
 1816TIP3    H226940   3.580   5.819  14.979  0.6611 -0.0151 -1.0782
 1817TIP3   OH226941   5.909   2.405  11.663  0.1942  0.2770 -0.4081
 1817TIP3    H126942   5.867   2.467  11.723  1.1206 -0.5027  1.1055
 1817TIP3    H226943   5.865   2.322  11.679  1.3811 -0.2518  0.2351
 1818TIP3   OH226944   3.387   3.403  12.898 -0.0007 -0.0983  0.1019
 1818TIP3    H126945   3.323   3.474  12.898  0.7595  0.5997  0.4321
 1818TIP3    H226946   3.459   3.435  12.952  0.5898 -0.9068 -0.1868
 1819TIP3   OH226947   0.919   2.774   5.710 -0.2579  0.1049 -0.4844
 1819TIP3    H126948   1.003   2.798   5.748  0.4273 -0.9001 -1.3045
 1819TIP3    H226949   0.942   2.719   5.635 -1.6805 -1.9690  0.5104
 1820TIP3   OH226950   2.421   0.306   0.925  0.3763  0.0438  0.1876
 1820TIP3    H126951   2.461   0.263   0.850  0.0166  1.1635 -0.6716
 1820TIP3    H226952   2.495   0.334   0.979  0.6587 -0.0514 -0.1494
 1821TIP3   OH226953   3.979   3.487   4.854  0.5416  0.1290 -0.3598
 1821TIP3    H126954   3.962   3.488   4.949  0.1801  1.9465 -0.4095
 1821TIP3    H226955   3.969   3.395   4.829 -2.0481 -0.0294  0.9037
 1822TIP3   OH226956   6.106   4.052  16.499 -0.1405 -0.0337  0.6834
 1822TIP3    H126957   6.102   4.019  16.588  1.1551 -1.9535  0.0968
 1822TIP3    H226958   6.165   3.992  16.453 -1.4348  0.3487 -1.6883
 1823TIP3   OH226959   1.394   4.471   4.959  0.1210 -0.4258  0.3039
 1823TIP3    H126960   1.351   4.406   4.904  1.6015 -0.0156 -1.4133
 1823TIP3    H226961   1.426   4.537   4.898  2.0113 -0.0569  1.6137
 1824TIP3   OH226962   0.791   1.189   1.876 -0.1126 -0.2428 -0.0385
 1824TIP3    H126963   0.808   1.137   1.954 -2.0143 -0.0574  0.5561
 1824TIP3    H226964   0.869   1.178   1.822  0.2260 -2.3727  0.7889
 1825TIP3   OH226965   6.260   1.873   0.346  0.3519  0.2286  0.4701
 1825TIP3    H126966   6.235   1.926   0.422  0.1271 -0.8461  1.1655
 1825TIP3    H226967   6.355   1.879   0.343  0.2488  2.5534 -0.8764
 1826TIP3   OH226968   0.439   0.023  13.938 -0.1671 -0.1456  0.2868
 1826TIP3    H126969   0.364   0.060  13.893  0.5561  2.4048  0.9880
 1826TIP3    H226970   0.511   0.029  13.874 -0.2968 -1.5443 -0.0093
 1827TIP3   OH226971   6.004   0.950   2.425  0.1701 -0.2412  0.1884
 1827TIP3    H126972   6.038   0.969   2.338  1.7089 -0.7954  0.6455
 1827TIP3    H226973   5.997   1.036   2.467 -4.8959  0.7016 -1.8516
 1828TIP3   OH226974   1.947   2.250   1.299 -0.2462 -0.2049  0.3487
 1828TIP3    H126975   1.917   2.238   1.209 -2.6825 -2.1791  1.2981
 1828TIP3    H226976   1.870   2.283   1.346  1.1750  1.5047  1.6277
 1829TIP3   OH226977   4.087   3.766   2.874  0.1343 -0.2281  0.5232
 1829TIP3    H126978   4.129   3.750   2.789  0.5745  0.3758  0.6227
 1829TIP3    H226979   4.007   3.713   2.871 -0.8886  1.3104 -1.0806
 1830TIP3   OH226980   3.134   0.882  12.664 -0.0810 -0.0951 -0.4209
 1830TIP3    H126981   3.178   0.953  12.712  0.1150 -0.0880 -0.6121
 1830TIP3    H226982   3.195   0.858  12.595  0.4304 -1.3339  0.4190
 1831TIP3   OH226983   1.431   1.744   2.226  0.1043  0.3004 -0.4501
 1831TIP3    H126984   1.460   1.654   2.211 -3.6791 -1.0947 -0.4894
 1831TIP3    H226985   1.368   1.761   2.156 -0.0812  2.6124  0.1920
 1832TIP3   OH226986   1.163   4.587   3.559 -1.1632 -0.1955  0.0091
 1832TIP3    H126987   1.165   4.612   3.651 -0.9676  0.3441 -0.1384
 1832TIP3    H226988   1.139   4.667   3.512 -1.9401 -0.6307 -0.3537
 1833TIP3   OH226989   2.978   3.387   0.044  0.2188  0.3878 -0.2265
 1833TIP3    H126990   3.034   3.309   0.042  0.3460  0.4906 -0.6972
 1833TIP3    H226991   3.030   3.455   0.002 -0.0287  0.6406 -0.1263
 1834TIP3   OH226992   5.101   3.331  11.014  0.4558 -0.7518  0.0195
 1834TIP3    H126993   5.162   3.281  10.959  1.1830 -1.3737  1.3551
 1834TIP3    H226994   5.139   3.418  11.018  0.8479 -0.9262  0.1987
 1835TIP3   OH226995   5.268   0.483  14.488  0.1583  0.6302  0.6188
 1835TIP3    H126996   5.320   0.562  14.473  2.1358 -0.6779  0.3281
 1835TIP3    H226997   5.275   0.467  14.582  1.4294 -0.2855  0.3838
 1836TIP3   OH226998   3.472   1.058  14.899  0.3646  0.0732 -0.1710
 1836TIP3    H126999   3.470   1.006  14.979  0.0652 -0.9704 -0.8319
 1836TIP3    H227000   3.558   1.100  14.899  0.0703  0.7411  1.0809
 1837TIP3   OH227001   2.952   0.743   0.501 -0.4490  0.6630 -0.5576
 1837TIP3    H127002   3.023   0.751   0.438 -0.9572 -0.0481 -1.2421
 1837TIP3    H227003   2.993   0.755   0.586  0.8322 -1.5558 -0.8071
 1838TIP3   OH227004   0.756   3.247  13.652 -0.0604 -0.0259 -0.6870
 1838TIP3    H127005   0.802   3.269  13.733 -1.8070  1.0611  0.0741
 1838TIP3    H227006   0.673   3.207  13.681 -0.6183  0.1695 -1.9290
 1839TIP3   OH227007   3.987   5.103  12.481  0.2214  0.7609 -0.4536
 1839TIP3    H127008   3.996   5.121  12.388  1.2622  0.1998 -0.4722
 1839TIP3    H227009   4.077   5.095  12.513 -0.1280  0.8472  0.5790
 1840TIP3   OH227010   1.194   0.803   2.625  0.7807 -0.4762  0.2531
 1840TIP3    H127011   1.147   0.792   2.543  1.8973 -0.3868 -0.4267
 1840TIP3    H227012   1.280   0.836   2.599  1.9234 -2.4781  1.2596
 1841TIP3   OH227013   1.240   2.499   5.728  0.6876  0.1830  0.0444
 1841TIP3    H127014   1.280   2.553   5.660 -0.6195 -1.0814 -1.8152
 1841TIP3    H227015   1.264   2.409   5.704 -1.0250 -0.3953  0.3749
 1842TIP3   OH227016   6.155   0.083   3.416  0.0134  0.3166  0.4666
 1842TIP3    H127017   6.074   0.134   3.412 -0.2027 -0.0997 -1.1785
 1842TIP3    H227018   6.210   0.120   3.347  1.4576  0.9131  1.8743
 1843TIP3   OH227019   3.523   5.341  12.647  0.0731 -0.0425 -0.9746
 1843TIP3    H127020   3.615   5.315  12.638  0.8393  0.8391  2.7272
 1843TIP3    H227021   3.475   5.259  12.657  0.9081 -0.4167  0.0730
 1844TIP3   OH227022   1.059   3.856   3.434 -0.2707 -0.1686 -0.2184
 1844TIP3    H127023   1.152   3.858   3.412 -0.5140  0.1127 -1.2764
 1844TIP3    H227024   1.048   3.928   3.497 -0.0997  1.0671 -1.5344
 1845TIP3   OH227025   5.486   1.985   5.350  0.0506 -0.0375 -0.1590
 1845TIP3    H127026   5.393   2.008   5.361  0.4186  1.1583  0.5609
 1845TIP3    H227027   5.520   1.981   5.439  1.1375  1.4434 -0.4878
 1846TIP3   OH227028   5.105   2.283   0.589 -0.1495  0.0414 -0.7561
 1846TIP3    H127029   5.191   2.241   0.593 -0.0001  0.3742 -0.4145
 1846TIP3    H227030   5.123   2.376   0.601 -0.4679  0.2276 -1.6793
 1847TIP3   OH227031   5.147   6.131   1.522 -1.0910  0.8016  0.3283
 1847TIP3    H127032   5.138   6.209   1.576 -0.9998  0.5147  0.7592
 1847TIP3    H227033   5.143   6.164   1.432  0.1653  1.4600  0.4942
 1848TIP3   OH227034   6.115   5.772   6.022 -0.6710 -0.4864  0.3554
 1848TIP3    H127035   6.081   5.816   6.100 -0.2983  0.3933  0.0352
 1848TIP3    H227036   6.210   5.779   6.029 -0.5594 -2.0065  0.7148
 1849TIP3   OH227037   3.505   5.246   5.286 -0.0277 -0.5723  0.0808
 1849TIP3    H127038   3.529   5.293   5.206  0.7720  1.6193  1.5127
 1849TIP3    H227039   3.587   5.237   5.335 -0.6291 -1.0728  1.0410
 1850TIP3   OH227040   1.252   0.442   0.045  0.0900 -0.8918 -0.0962
 1850TIP3    H127041   1.188   0.440  -0.026 -0.0104 -0.1366 -0.0348
 1850TIP3    H227042   1.331   0.404   0.008 -0.5868 -2.5136  0.0323
 1851TIP3   OH227043   6.809   3.887   5.444  0.1937  0.3593  0.1161
 1851TIP3    H127044   6.822   3.967   5.496 -1.6113  1.7055 -1.3662
 1851TIP3    H227045   6.743   3.911   5.379 -1.2676 -2.6759  0.2949
 1852TIP3   OH227046   1.861   1.233  15.154 -0.0961  0.1896  0.0842
 1852TIP3    H127047   1.796   1.303  15.140 -0.9104 -0.7125 -0.7924
 1852TIP3    H227048   1.851   1.210  15.247 -1.1212 -0.0200 -0.0701
 1853TIP3   OH227049   0.122   5.018  14.264  0.6943 -0.3242  0.1994
 1853TIP3    H127050   0.109   4.998  14.356  0.7053 -1.7479 -0.0850
 1853TIP3    H227051   0.201   5.072  14.261  1.4029 -1.3003  0.9178
 1854TIP3   OH227052   3.208   5.338  14.347 -0.2274  0.4741  0.4004
 1854TIP3    H127053   3.282   5.289  14.381 -1.5926  0.0841  3.0481
 1854TIP3    H227054   3.247   5.419  14.313  1.6295 -0.7716 -0.6214
 1855TIP3   OH227055   5.923   5.719  12.504  0.0993  0.1822  0.0532
 1855TIP3    H127056   5.956   5.650  12.446  1.9605  1.7718 -0.8909
 1855TIP3    H227057   5.842   5.684  12.539 -0.2537 -1.5271 -2.2568
 1856TIP3   OH227058   5.307   3.831   4.148  0.5022  0.8888 -0.2442
 1856TIP3    H127059   5.303   3.894   4.219  1.2992 -0.5880  1.1720
 1856TIP3    H227060   5.299   3.746   4.191  0.4876 -0.0348 -1.9836
 1857TIP3   OH227061   0.744   5.119  14.861 -0.2841 -0.2083  0.6520
 1857TIP3    H127062   0.798   5.045  14.888  1.0443  1.1032  1.7451
 1857TIP3    H227063   0.721   5.163  14.942  0.3577  1.5056 -0.0560
 1858TIP3   OH227064   4.966   1.262  11.476  0.2753  0.8718 -0.6574
 1858TIP3    H127065   4.948   1.272  11.570 -3.8770 -0.7292 -1.0792
 1858TIP3    H227066   4.990   1.170  11.466 -0.8708  0.6320 -1.3134
 1859TIP3   OH227067   3.451   4.473  15.761 -0.0948  0.2106  0.2863
 1859TIP3    H127068   3.435   4.403  15.697  0.9915  0.1031  0.1188
 1859TIP3    H227069   3.543   4.495  15.750  0.0279  0.4180  1.6123
 1860TIP3   OH227070   4.370   1.464   1.937 -0.5878  0.3119 -0.2545
 1860TIP3    H127071   4.357   1.378   1.896 -0.6057  0.3559 -0.3396
 1860TIP3    H227072   4.413   1.443   2.021 -0.1405  0.2564 -0.4945
 1861TIP3   OH227073   1.791   0.472  15.384  0.4445  0.2373 -0.4794
 1861TIP3    H127074   1.875   0.430  15.368  1.4485  1.7590  0.4912
 1861TIP3    H227075   1.764   0.441  15.470  1.1839  1.4653  0.2353
 1862TIP3   OH227076   4.296   1.207   0.032  0.1465  0.6177  0.4967
 1862TIP3    H127077   4.251   1.128   0.062 -1.5174  1.1984 -0.3073
 1862TIP3    H227078   4.292   1.267   0.107  1.9626 -0.2153  1.3247
 1863TIP3   OH227079   2.055   0.349   4.322 -0.3907 -0.2946  0.2553
 1863TIP3    H127080   2.058   0.340   4.417 -0.8172 -0.6350  0.2420
 1863TIP3    H227081   2.137   0.392   4.299  0.2434 -1.2469  0.6641
 1864TIP3   OH227082   6.639   6.000   2.335  0.0640  0.2233 -0.1223
 1864TIP3    H127083   6.673   5.911   2.334  0.9168  0.5340  0.3778
 1864TIP3    H227084   6.704   6.051   2.383 -1.6745  0.6047  2.0130
 1865TIP3   OH227085   4.661   2.168   4.304 -0.4060  0.1806  0.0848
 1865TIP3    H127086   4.642   2.255   4.340 -1.4756 -0.1249  0.2924
 1865TIP3    H227087   4.597   2.158   4.233 -1.7676 -1.3170  1.4669
 1866TIP3   OH227088   5.191   4.953  14.134 -1.0136  0.3303  0.0693
 1866TIP3    H127089   5.283   4.980  14.138 -0.9489 -0.0236  2.3928
 1866TIP3    H227090   5.185   4.900  14.055  1.4008 -1.6530  1.0691
 1867TIP3   OH227091   2.205   6.545  14.389 -0.1393  0.4410 -0.4925
 1867TIP3    H127092   2.212   6.553  14.294  0.8736 -1.3210 -0.6116
 1867TIP3    H227093   2.293   6.564  14.421 -0.0709 -0.5860 -0.0532
 1868TIP3   OH227094   3.784   4.869  16.173 -0.4283  0.0082  0.3592
 1868TIP3    H127095   3.790   4.897  16.264  3.0800  0.5545  0.0938
 1868TIP3    H227096   3.715   4.802  16.173  0.4464 -1.0946  3.7004
 1869TIP3   OH227097   0.474   4.779   4.073 -0.2578  0.2423 -0.2645
 1869TIP3    H127098   0.551   4.789   4.129  0.9044 -0.9683 -1.5757
 1869TIP3    H227099   0.443   4.868   4.060 -0.5812  0.5700  2.2678
 1870TIP3   OH227100   3.859   4.256  15.186 -0.0180  0.0641 -0.1948
 1870TIP3    H127101   3.764   4.255  15.187 -0.0249  0.4940  0.0062
 1870TIP3    H227102   3.882   4.349  15.186  0.3981 -0.0300  0.2996
 1871TIP3   OH227103   1.702   2.700  16.873  0.2002  0.1092  0.2465
 1871TIP3    H127104   1.730   2.641  16.803  0.4070 -0.2868  0.6543
 1871TIP3    H227105   1.650   2.644  16.931 -0.4050  0.5538  0.1406
 1872TIP3   OH227106   3.969   6.081  14.946  0.0358 -0.1261  0.0985
 1872TIP3    H127107   3.924   6.075  14.862  1.1464 -0.5138 -0.4918
 1872TIP3    H227108   4.062   6.076  14.924  0.3974  0.8050  1.2584
 1873TIP3   OH227109   1.239   2.474  10.612  0.2378 -0.1491  0.1675
 1873TIP3    H127110   1.181   2.540  10.650 -2.5115 -1.6337 -1.1843
 1873TIP3    H227111   1.261   2.508  10.525 -1.0489 -0.8675 -0.4655
 1874TIP3   OH227112   1.095   3.672   1.063  0.2549  0.1082 -0.0759
 1874TIP3    H127113   1.170   3.692   1.007 -1.5947  0.9681 -2.3890
 1874TIP3    H227114   1.045   3.754   1.066 -1.4736 -0.9126 -0.0282
 1875TIP3   OH227115   5.078   0.410   0.364  0.2263  0.3500  0.4121
 1875TIP3    H127116   5.120   0.441   0.284  0.0338  0.0006  0.1795
 1875TIP3    H227117   4.991   0.383   0.338  0.7064 -1.3215  0.4209
 1876TIP3   OH227118   3.235   6.583   4.907  0.0215 -0.4078 -0.4067
 1876TIP3    H127119   3.167   6.517   4.895 -0.6363  0.2310 -0.2581
 1876TIP3    H227120   3.314   6.533   4.928 -0.0917 -1.2322 -1.8386
 1877TIP3   OH227121   4.305   5.415   4.947  0.5862  0.1903  0.6993
 1877TIP3    H127122   4.317   5.329   4.906  1.5118  0.9389 -0.7017
 1877TIP3    H227123   4.388   5.431   4.993 -0.7055 -0.9742  3.6896
 1878TIP3   OH227124   1.516   4.364  14.273 -0.0948 -0.3457 -0.1131
 1878TIP3    H127125   1.459   4.438  14.255  0.4029  0.1842  0.4463
 1878TIP3    H227126   1.456   4.291  14.291 -0.5997  0.2419  0.6351
 1879TIP3   OH227127   0.944   1.448   5.513  0.0484 -0.3130 -0.3354
 1879TIP3    H127128   0.884   1.454   5.587 -0.8063  0.8597 -1.0902
 1879TIP3    H227129   0.955   1.539   5.484  0.0927 -0.7812 -1.8524
 1880TIP3   OH227130   6.087   1.268  13.742  0.4318  0.3701  0.4460
 1880TIP3    H127131   6.067   1.354  13.779  1.3580  0.3534  1.0205
 1880TIP3    H227132   6.172   1.244  13.780 -0.3453 -1.3298  1.2216
 1881TIP3   OH227133   6.773   6.094   6.056  1.0732  0.5110  0.0342
 1881TIP3    H127134   6.815   6.075   5.972 -1.2790 -1.1832 -0.8675
 1881TIP3    H227135   6.716   6.168   6.038 -0.9780 -1.0990 -0.5339
 1882TIP3   OH227136   3.620   4.774   0.710 -0.3092 -0.0840 -0.0052
 1882TIP3    H127137   3.548   4.766   0.773 -0.5486 -0.8082 -0.3559
 1882TIP3    H227138   3.682   4.706   0.737  1.1207  1.6607  1.3828
 1883TIP3   OH227139   3.340   4.001  11.540  0.1145 -0.0084  0.2541
 1883TIP3    H127140   3.303   4.005  11.452  1.2283  4.1265 -0.2301
 1883TIP3    H227141   3.264   4.007  11.598 -0.4641  3.7147 -0.6616
 1884TIP3   OH227142   3.789   6.785   4.877 -0.3310  0.4620 -0.1101
 1884TIP3    H127143   3.699   6.754   4.887 -0.0361  0.0489  1.5999
 1884TIP3    H227144   3.794   6.816   4.786 -2.7448  2.3710  0.3038
 1885TIP3   OH227145   4.283   5.901  15.539  0.2811 -0.0802 -0.0776
 1885TIP3    H127146   4.349   5.856  15.590  1.4386 -0.6046 -1.9303
 1885TIP3    H227147   4.310   5.992  15.538 -0.7309  0.2888  1.6483
 1886TIP3   OH227148   6.555   3.282  13.151  0.2465 -0.0128  0.6704
 1886TIP3    H127149   6.495   3.229  13.099  1.6120 -2.2119  1.2065
 1886TIP3    H227150   6.498   3.325  13.215 -0.9809 -0.4277 -0.0858
 1887TIP3   OH227151   0.691   3.814  11.452 -0.0921 -0.0105 -0.3123
 1887TIP3    H127152   0.786   3.810  11.460  0.0249  1.5391 -0.6744
 1887TIP3    H227153   0.669   3.741  11.395  1.2089  1.2425 -2.5438
 1888TIP3   OH227154   4.843   5.575  13.280 -0.6260 -0.8843  0.2276
 1888TIP3    H127155   4.783   5.602  13.210 -0.2859 -0.8190 -0.0417
 1888TIP3    H227156   4.803   5.608  13.360 -0.3266  0.2597 -0.0721
 1889TIP3   OH227157   5.475   3.649   1.676  0.3932 -1.2329 -0.2648
 1889TIP3    H127158   5.450   3.557   1.670  0.3098 -1.1419 -1.5487
 1889TIP3    H227159   5.496   3.674   1.586 -0.1550  0.1639 -0.0262
 1890TIP3   OH227160   4.520   4.799   0.622  0.0626 -0.2903  0.4008
 1890TIP3    H127161   4.502   4.827   0.532 -0.0442 -1.4653  0.0443
 1890TIP3    H227162   4.608   4.831   0.639  1.1785 -2.3314 -1.1068
 1891TIP3   OH227163   4.239   5.787  14.404 -0.4386  0.4641 -0.1248
 1891TIP3    H127164   4.161   5.842  14.407 -1.3987 -0.7181 -1.6477
 1891TIP3    H227165   4.244   5.758  14.313  1.8247  0.5260 -0.0727
 1892TIP3   OH227166   4.605   6.159   4.689 -0.3002  0.4655 -0.4843
 1892TIP3    H127167   4.672   6.095   4.712  0.0671  1.4591  1.4035
 1892TIP3    H227168   4.626   6.184   4.599  0.8237 -0.4811 -0.5049
 1893TIP3   OH227169   4.649   2.422   1.781  0.6451  0.0571 -0.3389
 1893TIP3    H127170   4.661   2.460   1.694 -0.8751  0.3073 -0.4681
 1893TIP3    H227171   4.698   2.480   1.839  1.9857 -0.3220 -1.0505
 1894TIP3   OH227172   0.017   4.729   4.379  0.0075  0.7955  0.4476
 1894TIP3    H127173   0.014   4.824   4.379  1.1703  0.9155 -1.9439
 1894TIP3    H227174  -0.038   4.703   4.305  0.8282 -0.2956  0.1932
 1895TIP3   OH227175   6.359   1.819  11.932 -0.1383 -0.2176 -0.6780
 1895TIP3    H127176   6.279   1.772  11.907 -0.0138 -0.0377 -1.4247
 1895TIP3    H227177   6.331   1.875  12.005 -0.7821  0.0817 -1.1340
 1896TIP3   OH227178   5.540   3.861   5.028 -0.2523 -0.2813 -0.2558
 1896TIP3    H127179   5.608   3.843   5.093  1.2717  0.0310 -1.6621
 1896TIP3    H227180   5.485   3.784   5.027 -1.1298  0.2395  2.3112
 1897TIP3   OH227181   5.220   0.232  13.886  0.2531  0.4724 -0.0544
 1897TIP3    H127182   5.147   0.237  13.825  0.7634  2.2088 -0.5781
 1897TIP3    H227183   5.292   0.196  13.833  0.0410 -0.3615  0.2114
 1898TIP3   OH227184   2.105   5.572   4.511 -0.1099  0.0357  0.0705
 1898TIP3    H127185   2.107   5.656   4.466  0.9437 -0.1793 -0.3318
 1898TIP3    H227186   2.062   5.589   4.594  0.7999  1.1472  0.3249
 1899TIP3   OH227187   2.062   1.936   4.991 -0.4915  0.4120  0.3175
 1899TIP3    H127188   2.098   1.983   5.066 -1.9272  0.7685  0.8208
 1899TIP3    H227189   1.967   1.945   5.001 -0.7192  0.0489 -1.2793
 1900TIP3   OH227190   1.997   3.211   2.000  0.5748 -0.0185 -0.4025
 1900TIP3    H127191   2.079   3.181   1.960  1.0012  0.5796 -0.0084
 1900TIP3    H227192   1.964   3.134   2.046  1.4769  0.0065  0.3200
 1901TIP3   OH227193   1.898   3.286  10.603 -0.2833 -0.0365 -0.5261
 1901TIP3    H127194   1.817   3.332  10.581  0.5990  1.1902 -1.3174
 1901TIP3    H227195   1.966   3.353  10.599  0.9307 -1.2450 -0.9077
 1902TIP3   OH227196   4.039   1.042   2.959  0.7679  0.3774 -1.0384
 1902TIP3    H127197   4.114   1.025   3.016  1.0965  0.0848 -1.5507
 1902TIP3    H227198   3.976   1.087   3.016  1.3466  0.6781 -0.6151
 1903TIP3   OH227199   6.143   0.211  16.292 -0.6358  0.0660 -0.2738
 1903TIP3    H127200   6.096   0.245  16.216  0.2734 -1.1594 -1.4370
 1903TIP3    H227201   6.085   0.144  16.328 -1.0192  0.5676  0.0510
 1904TIP3   OH227202   6.602   3.114   0.284 -0.0350 -0.7674 -0.0478
 1904TIP3    H127203   6.553   3.035   0.261 -2.2563  0.6770 -0.5884
 1904TIP3    H227204   6.592   3.121   0.379 -0.0442 -1.0153 -0.0296
 1905TIP3   OH227205   3.702   5.139  11.746  0.3456  0.1351  0.4541
 1905TIP3    H127206   3.726   5.063  11.799  1.5513  0.3663  0.2872
 1905TIP3    H227207   3.660   5.200  11.807  0.4870 -0.1665  0.8522
 1906TIP3   OH227208   4.862   1.929  16.646 -0.1552 -0.2218 -0.1124
 1906TIP3    H127209   4.796   1.895  16.586 -0.1713 -2.4841  1.1148
 1906TIP3    H227210   4.827   2.014  16.675 -2.0258 -0.9007 -0.2603
 1907TIP3   OH227211   0.244   1.655   5.873  0.3389 -0.0079  0.6283
 1907TIP3    H127212   0.197   1.738   5.861  1.9463  0.7419 -0.8144
 1907TIP3    H227213   0.251   1.646   5.968 -1.5784  0.4742  0.8680
 1908TIP3   OH227214   2.932   1.601   3.950 -0.3119  0.3279 -0.4719
 1908TIP3    H127215   2.952   1.651   4.029  0.4756  0.1278 -0.5357
 1908TIP3    H227216   2.839   1.579   3.958 -0.2497  0.3619  0.3622
 1909TIP3   OH227217   1.472   1.551   1.453  0.1938 -0.1035  0.1295
 1909TIP3    H127218   1.500   1.578   1.541  2.4974 -3.9052  0.8073
 1909TIP3    H227219   1.541   1.581   1.395 -0.4217  0.8187 -0.1512
 1910TIP3   OH227220   2.199   3.835  13.657  0.5273  0.3022  1.0847
 1910TIP3    H127221   2.212   3.808  13.566 -0.4625  2.0282  0.3874
 1910TIP3    H227222   2.158   3.760  13.699  2.2351 -1.0343  0.4961
 1911TIP3   OH227223   4.090   1.719   5.318 -0.1438  0.1840  0.3790
 1911TIP3    H127224   4.044   1.736   5.400  0.0699  1.7644  0.1951
 1911TIP3    H227225   4.140   1.799   5.301 -0.4604  0.0394 -1.4571
 1912TIP3   OH227226   3.134   1.865   0.011 -0.1156  0.6999  0.0899
 1912TIP3    H127227   3.202   1.869   0.078 -1.2682 -1.7823  1.5369
 1912TIP3    H227228   3.057   1.904   0.054 -0.3119  1.1027 -0.6088
 1913TIP3   OH227229   5.768   4.689  13.409 -0.4649  0.0084 -0.1899
 1913TIP3    H127230   5.724   4.755  13.355 -1.3918 -1.0541 -0.7716
 1913TIP3    H227231   5.731   4.606  13.380  1.9577 -0.9662 -0.7418
 1914TIP3   OH227232   1.103   6.105  15.051 -0.3822  0.3387  0.2207
 1914TIP3    H127233   1.037   6.150  14.998 -0.0177 -0.8555 -1.3241
 1914TIP3    H227234   1.059   6.087  15.134 -1.8967 -0.1259 -0.6430
 1915TIP3   OH227235   1.667   5.462   3.793 -0.8363  0.7449  0.2226
 1915TIP3    H127236   1.652   5.393   3.729  0.1713  0.7934 -0.0843
 1915TIP3    H227237   1.642   5.424   3.877 -0.4890  0.0843  0.0287
 1916TIP3   OH227238   6.231   1.708   5.318  0.2290  0.0342 -0.4645
 1916TIP3    H127239   6.179   1.781   5.353  0.4903  0.3916 -0.8074
 1916TIP3    H227240   6.243   1.649   5.392  1.8337  1.3761  0.4161
 1917TIP3   OH227241   3.117   3.817  17.097 -0.3027  0.1505  0.4026
 1917TIP3    H127242   3.148   3.729  17.116 -1.8319 -0.8549 -1.4521
 1917TIP3    H227243   3.061   3.839  17.171 -1.2576 -1.1428  0.0899
 1918TIP3   OH227244   2.471   6.104   3.645 -0.4009 -0.5140  0.2525
 1918TIP3    H127245   2.463   6.009   3.650  1.1507 -0.7035 -0.1753
 1918TIP3    H227246   2.508   6.121   3.558 -0.5847  0.4737  0.3467
 1919TIP3   OH227247   2.597   1.825  15.426  0.6253  0.9049  0.3244
 1919TIP3    H127248   2.611   1.741  15.470 -0.6799 -0.3984 -1.5680
 1919TIP3    H227249   2.600   1.890  15.496  3.4730 -0.4665  1.6371
 1920TIP3   OH227250   5.924   4.068   1.776  0.1027  0.2895  0.2957
 1920TIP3    H127251   5.850   4.033   1.826  0.6784  0.2079  1.1083
 1920TIP3    H227252   5.903   4.160   1.763  0.6445  0.7075  2.0585
 1921TIP3   OH227253   4.673   2.364   3.328  0.0210 -0.0114 -0.0590
 1921TIP3    H127254   4.708   2.383   3.415  0.2624  1.4875 -0.4595
 1921TIP3    H227255   4.583   2.335   3.344 -0.2262  1.0918  0.6512
 1922TIP3   OH227256   6.136   6.496  15.090 -0.2435 -0.2273  0.3845
 1922TIP3    H127257   6.170   6.485  15.001  1.8248  1.4477  0.8836
 1922TIP3    H227258   6.054   6.544  15.078  0.5672  0.9754 -0.5910
 1923TIP3   OH227259   4.298   3.453  12.566  0.3975 -0.2145 -0.1631
 1923TIP3    H127260   4.328   3.481  12.653 -0.7435 -1.3888  0.6573
 1923TIP3    H227261   4.370   3.476  12.507  1.7272 -0.4689  1.2836
 1924TIP3   OH227262   4.209   3.042   1.219  0.4492 -0.1207  0.1211
 1924TIP3    H127263   4.118   3.063   1.198  0.5514  0.5436  0.3038
 1924TIP3    H227264   4.254   3.045   1.135  0.8931  2.7237  0.3401
 1925TIP3   OH227265   0.158   5.438  10.428 -0.0063 -0.1916 -0.3127
 1925TIP3    H127266   0.176   5.444  10.522  0.0204  1.1253 -0.3832
 1925TIP3    H227267   0.077   5.389  10.422 -0.5488  0.5776  0.4748
 1926TIP3   OH227268   6.142   0.154   1.570  0.2627 -0.4471 -0.4795
 1926TIP3    H127269   6.199   0.231   1.575  0.2343 -0.5236  1.4452
 1926TIP3    H227270   6.104   0.146   1.657 -0.9849 -1.7167 -1.1054
 1927TIP3   OH227271   5.137   0.652   6.345  0.4690  0.0781 -0.1021
 1927TIP3    H127272   5.134   0.727   6.405  1.4096 -0.0469  0.1206
 1927TIP3    H227273   5.229   0.629   6.341  0.3522 -0.2288 -1.2297
 1928TIP3   OH227274   3.027   0.928  11.342 -0.0212 -0.1416  0.5491
 1928TIP3    H127275   3.070   0.842  11.339  1.1738  0.4394  0.2074
 1928TIP3    H227276   2.937   0.911  11.316 -0.0165 -1.4143  1.2915
 1929TIP3   OH227277   5.806   2.864  13.525 -0.3296  0.2774  0.0517
 1929TIP3    H127278   5.899   2.878  13.544 -0.8837  2.3124  1.6369
 1929TIP3    H227279   5.770   2.953  13.517 -2.0783 -0.4793 -0.9176
 1930TIP3   OH227280   3.218   3.731   5.070  0.4256  0.2480  0.2226
 1930TIP3    H127281   3.155   3.775   5.127 -0.9186  1.7157 -2.2213
 1930TIP3    H227282   3.177   3.646   5.050 -0.4199  0.8462 -0.6722
 1931TIP3   OH227283   0.103   1.018   2.995  0.1278 -0.4873  0.2977
 1931TIP3    H127284   0.187   0.973   2.993  0.2518 -0.2902 -2.1207
 1931TIP3    H227285   0.041   0.952   3.027  0.8690 -1.3054  0.0840
 1932TIP3   OH227286   6.665   0.676   0.532  0.3902 -0.3544  0.2423
 1932TIP3    H127287   6.633   0.645   0.616  1.1073 -0.3395  0.5264
 1932TIP3    H227288   6.699   0.597   0.489  0.1107 -0.3464 -0.0022
 1933TIP3   OH227289   5.180   0.031   2.983 -0.1158  0.0276 -0.7166
 1933TIP3    H127290   5.086   0.041   2.967 -0.3604 -0.6302  0.2442
 1933TIP3    H227291   5.200   0.100   3.047 -0.5547 -1.5616  1.2387
 1934TIP3   OH227292   4.910   1.028   0.846  0.2049  0.0458 -0.7707
 1934TIP3    H127293   4.846   0.971   0.803 -0.9552  0.9516 -0.2971
 1934TIP3    H227294   4.913   1.106   0.792 -0.6892  0.8727  0.3125
 1935TIP3   OH227295   2.573   1.370  16.870 -0.1436  0.1796 -0.2274
 1935TIP3    H127296   2.539   1.291  16.830  1.1243 -0.9872  0.9069
 1935TIP3    H227297   2.653   1.390  16.820 -0.3883  0.6849 -0.4281
 1936TIP3   OH227298   6.317   5.151   3.339 -0.3221 -0.4018 -0.0779
 1936TIP3    H127299   6.238   5.200   3.359 -0.4299 -0.2154 -0.9205
 1936TIP3    H227300   6.383   5.218   3.318  0.8994 -0.3863  3.2640
 1937TIP3   OH227301   3.805   0.891   2.761  0.4792 -0.1777 -0.3391
 1937TIP3    H127302   3.752   0.849   2.693  1.9984 -1.0489 -1.0397
 1937TIP3    H227303   3.763   0.866   2.843 -0.1961 -0.8518 -0.8720
 1938TIP3   OH227304   6.015   1.541   1.353  0.4800  0.4699 -0.0525
 1938TIP3    H127305   6.073   1.605   1.395  0.6275 -0.7430  1.7217
 1938TIP3    H227306   6.070   1.463   1.341 -0.0152  0.2610 -1.0469
 1939TIP3   OH227307   6.648   3.874  17.211  0.0966 -0.0865  0.0112
 1939TIP3    H127308   6.657   3.886  17.305  3.7943 -1.5729  0.0086
 1939TIP3    H227309   6.686   3.954  17.173 -0.9160  0.2856 -0.2450
 1940TIP3   OH227310   1.632   6.495  11.388 -0.2656 -0.0090 -0.6669
 1940TIP3    H127311   1.668   6.500  11.299  0.0764 -0.5206 -0.5666
 1940TIP3    H227312   1.537   6.499  11.376 -0.2998 -1.6649 -1.2087
 1941TIP3   OH227313   5.405   4.113  13.096 -0.1792 -0.3193  0.1323
 1941TIP3    H127314   5.471   4.183  13.095 -0.7996  0.4186  2.7891
 1941TIP3    H227315   5.436   4.053  13.165 -0.8908 -1.4365 -0.4921
 1942TIP3   OH227316   4.187   0.460   2.236  0.1000  0.3224  0.2937
 1942TIP3    H127317   4.181   0.543   2.282 -1.3084 -0.2261  1.1665
 1942TIP3    H227318   4.117   0.406   2.273 -1.0424 -0.2044 -2.3617
 1943TIP3   OH227319   4.072   5.366  16.137  0.1066  0.5099 -0.0580
 1943TIP3    H127320   4.014   5.291  16.122  3.0058 -2.1919  1.1183
 1943TIP3    H227321   4.055   5.391  16.228 -0.1842  0.6690 -0.1521
 1944TIP3   OH227322   3.903   6.027   0.454 -0.0777  0.4269  0.1720
 1944TIP3    H127323   3.924   6.008   0.363 -0.1178  0.3930  0.1698
 1944TIP3    H227324   3.813   5.996   0.465 -0.6308  1.8263 -0.1900
 1945TIP3   OH227325   3.891   1.759  10.750  0.5259 -0.0740 -0.3026
 1945TIP3    H127326   3.838   1.744  10.672  0.5179 -0.6462 -0.1871
 1945TIP3    H227327   3.834   1.807  10.809  0.1564 -0.6363 -0.2015
 1946TIP3   OH227328   5.220   0.454  13.071 -0.1122 -0.1756 -0.0664
 1946TIP3    H127329   5.155   0.392  13.037  0.3497 -0.4101 -0.5334
 1946TIP3    H227330   5.173   0.537  13.076 -0.5155 -0.3921 -0.1873
 1947TIP3   OH227331   3.919   2.553   1.333 -0.3761 -0.1005 -0.5525
 1947TIP3    H127332   3.907   2.642   1.365  0.1349  0.1776 -1.0994
 1947TIP3    H227333   4.010   2.531   1.354  0.2912  0.4535 -2.5900
 1948TIP3   OH227334   3.022   2.123  15.144 -0.0763 -0.4495 -0.4587
 1948TIP3    H127335   2.976   2.190  15.094 -0.5246 -0.2132  0.2523
 1948TIP3    H227336   2.968   2.110  15.222  0.7064 -0.6589  0.0632
 1949TIP3   OH227337   5.033   2.137   1.453  0.1560 -0.1999  0.0703
 1949TIP3    H127338   5.023   2.043   1.436  0.6066 -0.5340  1.5121
 1949TIP3    H227339   4.979   2.179   1.386 -0.7730 -1.5152 -0.0503
 1950TIP3   OH227340   1.675   6.800   4.107 -0.1318 -0.0193  0.3146
 1950TIP3    H127341   1.719   6.727   4.064 -1.8481  0.7748 -3.1114
 1950TIP3    H227342   1.720   6.878   4.074 -2.0949  0.6600 -0.9819
 1951TIP3   OH227343   1.498   5.181  11.387  0.6726  0.0927  0.5517
 1951TIP3    H127344   1.492   5.145  11.299  0.2557  0.7270  0.3075
 1951TIP3    H227345   1.430   5.248  11.390 -0.0205 -0.6315  1.7054
 1952TIP3   OH227346   3.455   5.933  14.364 -0.1610  0.9652 -0.0541
 1952TIP3    H127347   3.452   6.018  14.406  1.4089  0.8901  0.2784
 1952TIP3    H227348   3.406   5.944  14.282  0.7429  2.4361 -0.4298
 1953TIP3   OH227349   4.793   6.278  16.022  0.2541 -0.3361 -0.3180
 1953TIP3    H127350   4.719   6.339  16.021  0.0862 -0.5335 -0.1130
 1953TIP3    H227351   4.835   6.294  16.107 -0.2165 -1.0055  0.0491
 1954TIP3   OH227352   6.606   5.920   6.431  0.6424 -0.0042 -0.1662
 1954TIP3    H127353   6.643   5.986   6.490 -0.3773  0.6161 -0.2052
 1954TIP3    H227354   6.665   5.845   6.440  1.5565  0.7376  0.2336
 1955TIP3   OH227355   2.381   4.050   5.547 -0.1598  0.0605 -0.7649
 1955TIP3    H127356   2.423   4.031   5.462  0.7750 -0.5135 -0.1929
 1955TIP3    H227357   2.393   4.144   5.559 -0.1951  0.1278 -1.2082
 1956TIP3   OH227358   2.526   0.513   4.228 -0.0789 -0.1083  0.1058
 1956TIP3    H127359   2.475   0.467   4.161 -0.7746 -0.3225  0.7671
 1956TIP3    H227360   2.566   0.442   4.279 -0.0198  0.0468  0.2724
 1957TIP3   OH227361   3.749   3.427  12.895 -0.0919 -0.2991  0.1684
 1957TIP3    H127362   3.709   3.372  12.828 -1.5719  0.9894 -0.0637
 1957TIP3    H227363   3.806   3.368  12.944 -1.1690 -1.8864 -0.4296
 1958TIP3   OH227364   3.619   5.884  12.542 -0.7042  0.3802  0.3320
 1958TIP3    H127365   3.676   5.960  12.530  0.1500  0.0311  1.8698
 1958TIP3    H227366   3.568   5.879  12.461 -0.7696  2.5632  0.1712
 1959TIP3   OH227367   0.282   5.527  14.323  0.2004  0.5470 -0.6112
 1959TIP3    H127368   0.247   5.507  14.236 -0.8782  0.8316 -0.2562
 1959TIP3    H227369   0.213   5.500  14.384  0.9618  0.2937  0.1693
 1960TIP3   OH227370   5.055   2.354   2.563 -0.3862  0.3402  0.0099
 1960TIP3    H127371   5.015   2.404   2.634 -0.0531  0.0367  0.4166
 1960TIP3    H227372   5.149   2.372   2.571 -0.2253 -0.6283  0.3808
 1961TIP3   OH227373   6.802   4.458   2.030 -0.5914  0.1495 -0.4706
 1961TIP3    H127374   6.800   4.518   1.956  2.5867  1.4545  0.3062
 1961TIP3    H227375   6.733   4.489   2.089 -0.3620  1.7953 -1.0206
 1962TIP3   OH227376   0.756   3.469   1.793  0.5529 -0.5432  0.0909
 1962TIP3    H127377   0.661   3.459   1.799  0.4983  0.3356  1.1058
 1962TIP3    H227378   0.779   3.434   1.707 -0.7249 -0.5179 -0.2842
 1963TIP3   OH227379   2.369   2.530   5.904  0.2473 -1.1596  0.3193
 1963TIP3    H127380   2.450   2.548   5.855  0.7995  1.4962  1.9906
 1963TIP3    H227381   2.398   2.494   5.987 -0.3047 -0.8547  0.6543
 1964TIP3   OH227382   2.290   2.306  16.989 -0.0841  0.2547  0.2368
 1964TIP3    H127383   2.343   2.292  16.911 -0.2554 -1.7586  0.4398
 1964TIP3    H227384   2.354   2.320  17.059  0.1000  0.5145  0.0184
 1965TIP3   OH227385   5.011   3.347  13.334  0.1631 -0.0339 -0.0711
 1965TIP3    H127386   5.073   3.367  13.263 -0.0290  0.0237 -0.2226
 1965TIP3    H227387   5.035   3.259  13.363 -0.6718 -0.6474 -1.1725
 1966TIP3   OH227388   1.099   0.342   4.521 -0.2092  0.1165  0.0660
 1966TIP3    H127389   1.123   0.350   4.614  0.1636 -1.1315  0.0970
 1966TIP3    H227390   1.169   0.288   4.484 -1.8669 -1.8838 -0.2953
 1967TIP3   OH227391   0.330   0.645   6.788  0.1166 -0.3895 -0.1697
 1967TIP3    H127392   0.250   0.593   6.787  0.8912 -1.6151 -0.5041
 1967TIP3    H227393   0.323   0.697   6.868 -1.5712  0.4694 -0.8263
 1968TIP3   OH227394   1.311   6.202  11.918  0.0390 -0.2210 -0.4383
 1968TIP3    H127395   1.380   6.154  11.873 -1.3647 -1.0435 -1.8220
 1968TIP3    H227396   1.246   6.221  11.850  0.9530  4.7450 -0.3206
 1969TIP3   OH227397   5.882   6.812   3.187  0.4549 -0.0591 -0.2564
 1969TIP3    H127398   5.966   6.839   3.149  1.1884  0.5620  1.6932
 1969TIP3    H227399   5.827   6.793   3.111  1.8859  0.9408 -1.6161
 1970TIP3   OH227400   0.468   4.639   1.904  0.4467  0.6207  0.2754
 1970TIP3    H127401   0.507   4.574   1.845 -1.7876  0.2412 -0.8834
 1970TIP3    H227402   0.498   4.613   1.991  2.8899  0.4990 -0.5292
 1971TIP3   OH227403   2.061   1.698  15.431  0.3637  0.3694 -0.0245
 1971TIP3    H127404   2.001   1.692  15.357  1.8545  0.6482 -1.3139
 1971TIP3    H227405   2.005   1.708  15.508 -1.2973 -1.7752 -0.8879
 1972TIP3   OH227406   4.903   2.953  12.930  0.0595  1.0566  0.4106
 1972TIP3    H127407   4.889   2.942  12.836  0.7513  2.6188  0.0862
 1972TIP3    H227408   4.990   2.918  12.946  0.2939  1.5662  0.2879
 1973TIP3   OH227409   4.922   5.005  16.875  0.5719  0.7538  0.1167
 1973TIP3    H127410   4.981   4.954  16.931  0.5444 -0.5444 -0.9823
 1973TIP3    H227411   4.979   5.039  16.806  0.7682  3.0907  1.3527
 1974TIP3   OH227412   2.053   1.937   1.348  0.0597  0.1560 -0.1174
 1974TIP3    H127413   1.985   1.888   1.302 -0.0677 -0.3714  0.6198
 1974TIP3    H227414   2.121   1.950   1.282 -0.0188 -0.7831 -0.4030
 1975TIP3   OH227415   1.120   5.324   6.191  0.2636  0.3743  0.5010
 1975TIP3    H127416   1.089   5.414   6.195 -0.4691  0.1196  0.6539
 1975TIP3    H227417   1.053   5.273   6.237  0.2363 -0.3638 -0.3282
 1976TIP3   OH227418   3.932   3.474   6.040  0.5633 -0.2930 -0.1090
 1976TIP3    H127419   3.914   3.380   6.043 -1.9429  0.1349  1.8608
 1976TIP3    H227420   3.977   3.493   6.122 -1.3882  0.5409  0.8597
 1977TIP3   OH227421   1.021   0.874  15.720 -0.1832 -0.3268 -0.0880
 1977TIP3    H127422   1.063   0.938  15.663  0.0784 -0.8426 -0.4864
 1977TIP3    H227423   0.988   0.925  15.794 -0.6410  0.3731 -0.7588
 1978TIP3   OH227424   4.651   6.015   0.414  0.4733 -0.2331 -0.1995
 1978TIP3    H127425   4.598   6.084   0.376 -0.9790 -0.9966  0.3504
 1978TIP3    H227426   4.636   5.939   0.358  1.2204 -0.3932 -0.1952
 1979TIP3   OH227427   3.090   2.533  16.664  0.7474 -0.1528  0.5712
 1979TIP3    H127428   3.005   2.575  16.652  1.3028  0.4751 -1.6765
 1979TIP3    H227429   3.128   2.576  16.741 -0.3230  0.6673  0.6639
 1980TIP3   OH227430   4.136   5.669  15.603 -0.3867  0.1177 -0.1376
 1980TIP3    H127431   4.169   5.758  15.593 -1.7769  0.5859 -0.8254
 1980TIP3    H227432   4.054   5.680  15.651 -1.5825 -0.5681 -1.9542
 1981TIP3   OH227433   6.002   1.960  15.282  0.7614 -0.6177  0.3947
 1981TIP3    H127434   6.044   1.928  15.362  0.0736 -0.3288  0.8893
 1981TIP3    H227435   5.917   1.915  15.280  0.6829 -0.4576 -0.0580
 1982TIP3   OH227436   3.274   5.857   4.887  0.2514 -0.1498 -0.2934
 1982TIP3    H127437   3.262   5.857   4.982 -1.5099  0.0751 -0.4828
 1982TIP3    H227438   3.320   5.939   4.869 -1.7008  1.1069  0.1586
 1983TIP3   OH227439   1.923   5.056   1.370  0.0312 -0.0562 -0.8955
 1983TIP3    H127440   1.857   5.031   1.435 -0.0204  0.9469 -0.5490
 1983TIP3    H227441   1.967   4.974   1.347 -0.3441 -0.5053 -0.0359
 1984TIP3   OH227442   0.200   0.824   3.974 -0.4468  0.3583  0.2113
 1984TIP3    H127443   0.205   0.764   4.049  0.4230  0.0347 -0.0975
 1984TIP3    H227444   0.289   0.857   3.964 -0.4370  0.0013 -1.0107
 1985TIP3   OH227445   2.688   3.757  16.871 -0.1234  0.6200  0.4139
 1985TIP3    H127446   2.672   3.811  16.793  3.2058  2.6725  0.9370
 1985TIP3    H227447   2.715   3.672  16.835 -0.8878  0.7851 -0.5976
 1986TIP3   OH227448   4.274   2.328   2.767  0.4874  0.6651  0.2846
 1986TIP3    H127449   4.213   2.354   2.697  0.9775 -0.2652 -0.5152
 1986TIP3    H227450   4.360   2.352   2.733  1.0064 -2.1907 -0.6615
 1987TIP3   OH227451   5.017   2.967  11.470  0.2289 -0.4679 -0.0658
 1987TIP3    H127452   5.074   3.031  11.428 -1.0080  0.7806  0.0721
 1987TIP3    H227453   5.075   2.915  11.525  1.0075  2.0997  1.7276
 1988TIP3   OH227454   1.777   6.575   0.777  0.1186  0.5875 -0.1399
 1988TIP3    H127455   1.708   6.627   0.735 -0.2705  0.2624  0.0798
 1988TIP3    H227456   1.730   6.520   0.840  0.4511 -0.4091 -0.7328
 1989TIP3   OH227457   6.421   2.565   6.172 -0.8984 -0.5166 -0.2012
 1989TIP3    H127458   6.391   2.592   6.259 -0.4724 -3.2956  0.9090
 1989TIP3    H227459   6.374   2.483   6.154  0.8396 -1.2965 -1.4975
 1990TIP3   OH227460   4.222   6.407   4.840  0.2149  0.6659  0.1429
 1990TIP3    H127461   4.230   6.427   4.747  0.7760  1.0540  0.2745
 1990TIP3    H227462   4.128   6.399   4.854  0.1458  0.0760 -0.5654
 1991TIP3   OH227463   5.832   6.038  15.833 -0.2962  0.3727 -0.0876
 1991TIP3    H127464   5.925   6.061  15.840  0.1647 -0.9052 -1.4895
 1991TIP3    H227465   5.826   5.949  15.868 -1.0223  0.4743  0.0673
 1992TIP3   OH227466   6.321   4.475   0.739  0.1536 -0.0474 -0.1101
 1992TIP3    H127467   6.402   4.503   0.781  0.8341  0.8784 -1.9429
 1992TIP3    H227468   6.279   4.419   0.803  1.1449  1.2636  1.7773
 1993TIP3   OH227469   4.280   5.279   2.476 -0.2380 -0.1341 -0.1381
 1993TIP3    H127470   4.340   5.331   2.529  0.3786 -1.7258  0.7818
 1993TIP3    H227471   4.329   5.261   2.395  0.1114 -0.5108  0.1541
 1994TIP3   OH227472   0.520   3.947   1.065  0.4809 -0.1173  0.0169
 1994TIP3    H127473   0.576   4.024   1.064  0.2644  0.0384 -0.1828
 1994TIP3    H227474   0.565   3.883   1.010  1.7176 -0.8935  1.8181
 1995TIP3   OH227475   5.936   1.789  16.950  0.2130 -0.6832  0.6276
 1995TIP3    H127476   5.938   1.805  17.044 -1.2969  0.1171  0.5465
 1995TIP3    H227477   5.991   1.858  16.913 -1.6439  0.9362  0.7309
 1996TIP3   OH227478   1.619   3.966  11.763  0.1891  0.1919  0.1242
 1996TIP3    H127479   1.543   3.942  11.710  0.6562 -2.1060  0.4110
 1996TIP3    H227480   1.687   3.904  11.737  1.3171  0.8660  1.3640
 1997TIP3   OH227481   0.086   3.929  13.437  0.2780  0.1990  0.1021
 1997TIP3    H127482   0.121   3.945  13.525  0.1951 -0.0478  0.1810
 1997TIP3    H227483   0.109   4.007  13.388 -1.8378  1.4479  0.9773
 1998TIP3   OH227484   3.354   5.126   3.452 -0.2749 -0.5061  0.2112
 1998TIP3    H127485   3.307   5.208   3.467  0.1634 -0.4812  1.5954
 1998TIP3    H227486   3.286   5.061   3.435 -0.7752 -0.2703  1.2269
 1999TIP3   OH227487   6.528   0.124   0.412  0.3272 -0.2744  0.4778
 1999TIP3    H127488   6.511   0.083   0.328  0.0390 -0.9266  0.8522
 1999TIP3    H227489   6.622   0.146   0.410  0.5049 -1.0373  0.3141
 2000TIP3   OH227490   4.675   3.499   4.835  0.5699  0.2287  0.2631
 2000TIP3    H127491   4.614   3.562   4.874 -0.2231 -0.7231  0.6000
 2000TIP3    H227492   4.695   3.536   4.749 -1.1482  0.1675 -0.1980
 2001TIP3   OH227493   3.619   2.290   1.093  0.2448 -0.1446  0.3141
 2001TIP3    H127494   3.626   2.374   1.138 -0.4347 -0.0619  0.2740
 2001TIP3    H227495   3.651   2.225   1.156 -1.1265 -0.0833  1.1002
 2002TIP3   OH227496   5.021   0.227   3.813 -0.7377  0.4226  0.0412
 2002TIP3    H127497   5.080   0.234   3.739 -0.6347  0.2063  0.1010
 2002TIP3    H227498   5.070   0.178   3.879 -0.8600  0.5352  0.2195
 2003TIP3   OH227499   3.219   4.937  16.802 -0.0423 -0.1097 -0.0331
 2003TIP3    H127500   3.166   4.981  16.736 -0.9361 -0.7919  0.2159
 2003TIP3    H227501   3.221   4.846  16.776 -0.5292 -0.4173  0.9490
 2004TIP3   OH227502   0.823   1.802   0.271 -0.5178  0.3506  0.1690
 2004TIP3    H127503   0.794   1.861   0.341  0.0629 -0.5487  1.2180
 2004TIP3    H227504   0.906   1.841   0.241 -0.3774  0.3376  0.5260
 2005TIP3   OH227505   4.027   3.399   2.422  0.2804 -0.2090 -0.2333
 2005TIP3    H127506   3.936   3.385   2.398 -0.0695  0.5856  0.5716
 2005TIP3    H227507   4.077   3.378   2.343 -0.5266 -1.4392 -0.4430
 2006TIP3   OH227508   6.331   3.456   1.932  0.1790  0.0780  0.1981
 2006TIP3    H127509   6.370   3.422   2.013  1.2860  0.1200 -0.3087
 2006TIP3    H227510   6.313   3.378   1.880  2.2233  0.1776 -0.7397
 2007TIP3   OH227511   5.976   3.540   3.426  0.4094  0.5817  0.6915
 2007TIP3    H127512   5.903   3.598   3.447  0.2042  1.2388 -1.5703
 2007TIP3    H227513   5.947   3.492   3.349  2.0421  0.2763  0.2311
 2008TIP3   OH227514   4.136   5.385   5.422  0.2837  0.1977 -0.6045
 2008TIP3    H127515   4.102   5.473   5.440 -0.1593  0.0824 -0.8596
 2008TIP3    H227516   4.145   5.383   5.327 -0.4594 -0.3020 -0.6715
 2009TIP3   OH227517   3.344   3.090  14.227  0.1726 -0.1653  0.0348
 2009TIP3    H127518   3.328   3.093  14.132 -0.9930  1.3308  0.2366
 2009TIP3    H227519   3.271   3.040  14.262 -0.0902  0.3743  0.2616
 2010TIP3   OH227520   1.769   3.792   0.165  0.2888 -0.1385  0.0894
 2010TIP3    H127521   1.703   3.776   0.232  0.8798 -1.1092  0.4608
 2010TIP3    H227522   1.788   3.886   0.172 -1.4541  0.2714 -0.4269
 2011TIP3   OH227523   2.237   1.049  15.312 -0.3502  0.3345  0.3651
 2011TIP3    H127524   2.198   1.126  15.354  1.2164  1.9955 -1.0466
 2011TIP3    H227525   2.325   1.044  15.348  0.2779  0.5108 -1.0713
 2012TIP3   OH227526   3.379   5.128  11.797  0.2789  0.0413  0.1575
 2012TIP3    H127527   3.290   5.129  11.762 -0.0583 -0.3185  0.9867
 2012TIP3    H227528   3.434   5.111  11.721 -0.4005 -0.2428 -0.2824
 2013TIP3   OH227529   1.079   1.133   6.728 -0.4093 -0.1566  0.5489
 2013TIP3    H127530   1.135   1.169   6.659 -0.4029 -2.0001 -0.4745
 2013TIP3    H227531   1.039   1.056   6.688  0.1518 -1.7217  2.8082
 2014TIP3   OH227532   3.953   5.477  12.585 -0.4494  0.4451 -0.2281
 2014TIP3    H127533   3.943   5.525  12.667  0.9103  1.1646 -0.4522
 2014TIP3    H227534   4.047   5.464  12.577 -0.6819 -0.9656 -0.9273
 2015TIP3   OH227535   5.753   1.310   0.225 -0.0943 -0.2166 -0.2291
 2015TIP3    H127536   5.785   1.228   0.265 -0.0537 -0.9053 -1.6186
 2015TIP3    H227537   5.819   1.375   0.249 -0.4252 -0.4272  1.3973
 2016TIP3   OH227538   5.493   6.776   0.541  0.1925 -0.1519 -0.2487
 2016TIP3    H127539   5.444   6.697   0.564 -0.3463  0.0372 -0.7253
 2016TIP3    H227540   5.568   6.745   0.490  0.1639 -0.3798 -0.1539
 2017TIP3   OH227541   3.589   1.294  12.343 -0.3843  0.7665  0.4173
 2017TIP3    H127542   3.531   1.301  12.267  0.1725 -2.6796 -0.4888
 2017TIP3    H227543   3.671   1.334  12.314 -0.9687  1.8813  0.2228
 2018TIP3   OH227544   5.431   0.253   3.076  0.3223 -0.1619 -0.3564
 2018TIP3    H127545   5.393   0.300   3.150  1.6810  1.1635 -0.4547
 2018TIP3    H227546   5.503   0.202   3.113 -1.9569 -3.4835  0.0072
 2019TIP3   OH227547   3.260   1.132  12.711 -0.0954  0.1906  0.3520
 2019TIP3    H127548   3.344   1.157  12.672  0.5555 -0.0191  1.5366
 2019TIP3    H227549   3.241   1.202  12.774 -0.5126 -0.0529  0.4991
 2020TIP3   OH227550   6.182   1.070   0.458 -0.6764 -0.5213  0.3496
 2020TIP3    H127551   6.129   1.149   0.471  0.9786  0.3074  2.8535
 2020TIP3    H227552   6.208   1.073   0.366 -2.6026  0.5326 -0.2129
 2021TIP3   OH227553   2.224   4.958   3.680 -0.1302 -0.3561 -0.3630
 2021TIP3    H127554   2.268   4.880   3.646  1.0001  0.1746 -0.1675
 2021TIP3    H227555   2.140   4.926   3.713  0.0160 -1.3644 -0.9397
 2022TIP3   OH227556   0.112   0.466   6.024  0.0250 -0.5939  0.3106
 2022TIP3    H127557   0.130   0.539   6.083  0.8490  0.9027 -1.6621
 2022TIP3    H227558   0.198   0.430   6.003 -0.3183 -1.6648  0.6365
 2023TIP3   OH227559   0.587   3.602   4.147 -0.9686 -0.9444  0.6554
 2023TIP3    H127560   0.567   3.586   4.055 -1.8595  0.9608  0.4627
 2023TIP3    H227561   0.679   3.580   4.156 -1.2354 -2.5848 -0.3206
 2024TIP3   OH227562   0.231   3.408  17.091  0.0453 -0.0185 -0.0971
 2024TIP3    H127563   0.138   3.433  17.094  0.2750  0.8760  0.0808
 2024TIP3    H227564   0.235   3.337  17.026 -0.5259  1.0589 -1.3757
 2025TIP3   OH227565   5.183   3.623   5.346  0.2492  0.0856  0.2783
 2025TIP3    H127566   5.263   3.589   5.307  0.9067  1.7949  0.0743
 2025TIP3    H227567   5.113   3.576   5.300  0.9347  2.2751 -3.4193
 2026TIP3   OH227568   5.846   3.892   4.211  0.5330  0.1635  0.8600
 2026TIP3    H127569   5.851   3.976   4.166 -0.9927  0.0871  0.4709
 2026TIP3    H227570   5.764   3.853   4.179  2.1990 -2.4200 -0.5626
 2027TIP3   OH227571   6.494   5.861  13.172 -0.5357 -0.8214  0.1462
 2027TIP3    H127572   6.484   5.905  13.087  2.1288 -0.7343 -0.2273
 2027TIP3    H227573   6.476   5.769  13.153 -0.7554 -0.6830 -0.3408
 2028TIP3   OH227574   5.933   0.249  11.360 -0.6466 -0.0846  0.2053
 2028TIP3    H127575   5.896   0.303  11.430 -0.2890 -0.9249  1.0583
 2028TIP3    H227576   6.025   0.276  11.355 -0.8612  0.5666 -0.5346
 2029TIP3   OH227577   6.662   4.968   1.205  0.1687  0.2792  0.0180
 2029TIP3    H127578   6.610   5.007   1.135 -0.8696 -1.7626 -0.4129
 2029TIP3    H227579   6.639   5.018   1.283 -1.1092  0.5279 -0.4991
 2030TIP3   OH227580   6.799   3.238  11.560 -0.1581  0.5709 -0.4266
 2030TIP3    H127581   6.858   3.206  11.492  0.2315 -0.4815  0.3891
 2030TIP3    H227582   6.851   3.237  11.640 -1.4124 -0.8825  0.4092
 2031TIP3   OH227583   6.562   0.792   4.778  0.6521 -0.8456 -0.3170
 2031TIP3    H127584   6.648   0.815   4.743  0.3200  3.3422  1.0723
 2031TIP3    H227585   6.500   0.833   4.718 -0.0607  1.4699  1.8430
 2032TIP3   OH227586   5.839   6.206   2.958 -0.6074 -0.4292 -0.2121
 2032TIP3    H127587   5.873   6.291   2.930 -0.4047 -0.5309 -0.2818
 2032TIP3    H227588   5.746   6.220   2.972 -0.5526 -0.1690 -0.1142
 2033TIP3   OH227589   2.350   3.580  12.076 -0.5047 -0.3275  0.3337
 2033TIP3    H127590   2.271   3.598  12.127 -0.2252 -0.3401  0.7711
 2033TIP3    H227591   2.332   3.495  12.034 -0.8276 -0.2043  0.2172
 2034TIP3   OH227592   6.055   2.800   0.957 -0.3009 -0.1598  0.2283
 2034TIP3    H127593   6.092   2.825   1.041 -0.1363 -2.5429  0.9616
 2034TIP3    H227594   6.046   2.882   0.909  0.1312  1.2176  2.3367
 2035TIP3   OH227595   0.811   6.770  14.066 -0.2447  0.2408  0.3071
 2035TIP3    H127596   0.872   6.696  14.058 -1.1476 -0.4437 -0.4680
 2035TIP3    H227597   0.841   6.832  14.000 -0.1099  0.0982  0.2323
 2036TIP3   OH227598   2.586   5.976  12.127 -0.5418 -0.3091 -0.0918
 2036TIP3    H127599   2.681   5.983  12.124 -0.4297 -0.4099  1.8943
 2036TIP3    H227600   2.568   5.886  12.097  0.0691 -0.6027  0.3929
 2037TIP3   OH227601   4.155   4.779  16.052  0.3574  0.1554  0.2803
 2037TIP3    H127602   4.090   4.710  16.037  0.2469 -0.1238  1.9095
 2037TIP3    H227603   4.161   4.824  15.968 -2.3888  0.5566  0.2128
 2038TIP3   OH227604   2.103   0.358   6.147 -0.1273  0.2319 -0.2988
 2038TIP3    H127605   2.187   0.327   6.182  1.6422  2.9052 -1.8350
 2038TIP3    H227606   2.059   0.279   6.118  2.7510 -1.1916 -1.2473
 2039TIP3   OH227607   2.443   6.410  16.385  0.0300  0.0892 -0.6243
 2039TIP3    H127608   2.535   6.434  16.373  0.0411  0.7173  0.5721
 2039TIP3    H227609   2.404   6.485  16.429 -0.3547 -1.3077  1.5886
 2040TIP3   OH227610   6.481   3.420  15.331 -0.2162  0.2525  0.3988
 2040TIP3    H127611   6.458   3.502  15.287  0.3418 -0.1644 -0.7098
 2040TIP3    H227612   6.567   3.437  15.369  0.4350 -0.1617 -0.8312
 2041TIP3   OH227613   4.144   6.377   2.298 -0.3020 -0.2162  0.4871
 2041TIP3    H127614   4.075   6.410   2.357  1.4022  1.4817  1.6593
 2041TIP3    H227615   4.224   6.385   2.350  0.9051 -1.3037 -1.1467
 2042TIP3   OH227616   1.528   6.154  13.579  0.6440 -0.1752  0.1371
 2042TIP3    H127617   1.589   6.149  13.652  1.6485 -1.6332 -0.7395
 2042TIP3    H227618   1.442   6.166  13.619  1.2521 -0.2475  1.4991
 2043TIP3   OH227619   3.061   4.889  11.435  0.3258  0.4285 -0.4161
 2043TIP3    H127620   3.132   4.833  11.465 -2.3191 -4.4221 -2.0309
 2043TIP3    H227621   3.070   4.890  11.339 -1.1866  0.3975 -0.5889
 2044TIP3   OH227622   6.052   3.979  15.789 -1.0692  0.0675  0.4692
 2044TIP3    H127623   6.111   3.903  15.796 -1.3364 -0.0226  2.0713
 2044TIP3    H227624   6.009   3.968  15.704 -0.4637 -1.1170  0.2990
 2045TIP3   OH227625   2.966   2.504  13.576  0.1398  0.8812  0.1564
 2045TIP3    H127626   2.966   2.494  13.481  0.8366  1.6442  0.0743
 2045TIP3    H227627   2.904   2.575  13.593 -0.1862  0.5683  0.3014
 2046TIP3   OH227628   2.241   3.237  13.335 -0.2524  0.0646 -0.0255
 2046TIP3    H127629   2.159   3.202  13.372  0.0347 -0.6832 -0.0823
 2046TIP3    H227630   2.258   3.182  13.259 -0.0488  0.6579 -0.4123
 2047TIP3   OH227631   5.383   0.699   3.418 -0.0463  0.0754 -0.0266
 2047TIP3    H127632   5.428   0.616   3.403  0.2186  0.4299 -1.4175
 2047TIP3    H227633   5.398   0.719   3.510 -0.4908 -1.6200  0.4346
 2048TIP3   OH227634   0.748   4.677   4.203  0.2726  0.6817  0.4261
 2048TIP3    H127635   0.788   4.660   4.118 -1.4402  0.1556 -0.3052
 2048TIP3    H227636   0.770   4.768   4.222  0.1016  1.0062 -0.8906
 2049TIP3   OH227637   0.882   5.030   1.356 -0.4701  0.1696  0.3339
 2049TIP3    H127638   0.830   5.071   1.426  0.4754  0.8562  0.6534
 2049TIP3    H227639   0.969   5.067   1.367 -0.2690  0.1750 -1.1264
 2050TIP3   OH227640   4.288   4.982  13.671 -0.2231 -0.3595 -0.3192
 2050TIP3    H127641   4.277   4.920  13.599  0.9835 -0.3124 -0.5636
 2050TIP3    H227642   4.303   5.066  13.628 -0.3131 -0.1754  0.0042
 2051TIP3   OH227643   6.350   0.036  16.328  0.1248  0.8513  0.5556
 2051TIP3    H127644   6.405   0.007  16.255 -1.2483 -2.4717  0.6708
 2051TIP3    H227645   6.316   0.121  16.299  0.4777  0.1711 -2.2120
 2052TIP3   OH227646   1.686   0.915  13.989 -0.3381 -0.0236  0.0782
 2052TIP3    H127647   1.690   1.010  13.979 -1.0748 -0.0618 -0.6247
 2052TIP3    H227648   1.648   0.901  14.076 -1.2207  0.3415 -0.2362
 2053TIP3   OH227649   0.120   1.895  11.808 -0.0113  0.3148 -0.0604
 2053TIP3    H127650   0.183   1.828  11.780 -1.9672 -1.5433 -0.3188
 2053TIP3    H227651   0.055   1.897  11.738 -1.5995  0.2579  1.3570
 2054TIP3   OH227652   2.568   6.654   1.886 -0.3898  0.9261 -0.3251
 2054TIP3    H127653   2.620   6.616   1.815  2.3929  2.6502  0.6244
 2054TIP3    H227654   2.536   6.579   1.935  1.4229 -0.2764 -0.8746
 2055TIP3   OH227655   6.240   4.879   3.305 -0.1252 -0.4909 -0.0536
 2055TIP3    H127656   6.306   4.858   3.238 -0.7297  1.3764 -1.3068
 2055TIP3    H227657   6.247   4.973   3.317  0.3840 -0.8004  3.0533
 2056TIP3   OH227658   1.676   3.402   6.268 -0.3053 -0.6260  0.4546
 2056TIP3    H127659   1.750   3.450   6.229 -2.8300  0.9047 -2.9900
 2056TIP3    H227660   1.716   3.341   6.330  3.6546  1.2260 -0.0008
 2057TIP3   OH227661   0.581   5.275  12.971  0.3652 -0.2007 -0.3124
 2057TIP3    H127662   0.545   5.329  13.042  1.9230 -0.6840  0.8970
 2057TIP3    H227663   0.512   5.275  12.904 -1.3533 -0.0818  1.3737
 2058TIP3   OH227664   3.178   1.387   3.839 -0.0932 -0.4711 -0.1415
 2058TIP3    H127665   3.116   1.323   3.874 -0.0803 -0.6212 -0.3903
 2058TIP3    H227666   3.132   1.428   3.765  0.3625 -1.1036 -0.7975
 2059TIP3   OH227667   0.372   6.428  11.939 -0.0118  0.0835  0.4124
 2059TIP3    H127668   0.351   6.335  11.943  1.2112 -0.1941  1.3769
 2059TIP3    H227669   0.441   6.435  11.874 -0.1093  0.3141  0.3322
 2060TIP3   OH227670   4.528   3.076   3.444  0.2222  0.6262  0.3134
 2060TIP3    H127671   4.561   3.147   3.388 -0.2151  1.5008  1.1260
 2060TIP3    H227672   4.520   3.117   3.530 -3.0155  0.4875  0.1746
 2061TIP3   OH227673   3.738   5.851  11.159  0.2789  0.2032 -0.6093
 2061TIP3    H127674   3.683   5.808  11.093  1.0688  0.2496 -1.3147
 2061TIP3    H227675   3.754   5.938  11.123 -0.4705  0.7528  0.3377
 2062TIP3   OH227676   2.872   3.893   1.567  0.2007  0.4338  0.1348
 2062TIP3    H127677   2.884   3.961   1.633 -2.1393 -1.2034  2.4535
 2062TIP3    H227678   2.794   3.921   1.518  0.6017  0.5212 -0.4710
 2063TIP3   OH227679   0.188   0.482  11.607 -0.1130  0.5349 -0.3983
 2063TIP3    H127680   0.213   0.486  11.700  0.2454 -4.0546 -0.0376
 2063TIP3    H227681   0.095   0.501  11.606 -0.5359 -1.0888  1.3016
 2064TIP3   OH227682   5.603   0.536  17.135  0.7063 -0.1828  0.5119
 2064TIP3    H127683   5.608   0.443  17.116 -0.5869 -0.1825  0.0190
 2064TIP3    H227684   5.670   0.552  17.201  0.4686 -1.5997  1.1221
 2065TIP3   OH227685   1.550   6.016   0.550  0.4956 -0.2018 -0.3091
 2065TIP3    H127686   1.621   6.077   0.530  1.0967 -1.2053 -1.3547
 2065TIP3    H227687   1.531   6.032   0.643 -0.0967  2.2767 -0.7871
 2066TIP3   OH227688   1.327   5.874  16.197 -0.0996  0.4836 -0.5062
 2066TIP3    H127689   1.311   5.838  16.110  0.4213  1.7198 -1.1448
 2066TIP3    H227690   1.422   5.881  16.203 -0.1016 -0.1131  0.3961
 2067TIP3   OH227691   5.100   1.236   4.102  0.0737 -0.3518  0.5389
 2067TIP3    H127692   5.068   1.147   4.086  2.0952 -0.8147 -1.4213
 2067TIP3    H227693   5.078   1.284   4.022 -0.9617  0.9658  1.5667
 2068TIP3   OH227694   2.564   0.312   3.688  0.5697  0.7581  0.3591
 2068TIP3    H127695   2.511   0.248   3.735 -0.9127  1.5184 -0.2288
 2068TIP3    H227696   2.632   0.260   3.645 -0.0396 -0.3057  0.6585
 2069TIP3   OH227697   1.075   6.251  13.709  0.6756  0.0890  0.3021
 2069TIP3    H127698   1.166   6.250  13.736  1.0311  1.7934 -0.6993
 2069TIP3    H227699   1.027   6.220  13.785  1.6896  3.7840  2.7018
 2070TIP3   OH227700   2.322   4.848   4.315 -0.5285 -0.2472  0.9401
 2070TIP3    H127701   2.382   4.779   4.342  1.3921  0.7613 -0.4740
 2070TIP3    H227702   2.286   4.818   4.232  1.0890  0.7895 -0.2005
 2071TIP3   OH227703   2.999   3.975  10.793 -0.0367  0.0270  0.6338
 2071TIP3    H127704   3.089   3.953  10.818 -0.0839  0.1518  0.9189
 2071TIP3    H227705   2.981   3.919  10.717  0.9334  1.3372 -0.6300
 2072TIP3   OH227706   0.207   4.683   3.832  0.2895  0.2261  0.2215
 2072TIP3    H127707   0.292   4.661   3.792 -0.3175  0.7452 -1.4446
 2072TIP3    H227708   0.146   4.620   3.795 -0.2913  0.6763  0.3981
 2073TIP3   OH227709   2.750   4.834  16.568 -0.0409 -0.3211 -0.1431
 2073TIP3    H127710   2.706   4.768  16.621 -2.0776  0.0374 -1.3056
 2073TIP3    H227711   2.767   4.791  16.484  0.0013  0.1760 -0.3955
 2074TIP3   OH227712   6.648   3.770  16.854 -0.2451 -0.3824  0.7900
 2074TIP3    H127713   6.657   3.760  16.760  0.3833 -0.6112  0.8692
 2074TIP3    H227714   6.718   3.830  16.878 -1.1458  0.6461  0.9519
 2075TIP3   OH227715   6.426   3.040  13.074 -0.3925 -0.0821 -0.0481
 2075TIP3    H127716   6.472   2.997  13.145 -1.1307  0.3344  0.7005
 2075TIP3    H227717   6.461   2.999  12.995 -0.0588 -1.0449  0.5747
 2076TIP3   OH227718   2.323   1.659   6.583  0.4128 -0.4072  0.4718
 2076TIP3    H127719   2.306   1.683   6.492 -1.1696  0.6586  1.0087
 2076TIP3    H227720   2.392   1.719   6.612  0.2864 -0.1478  0.2339
 2077TIP3   OH227721   5.649   0.281   0.226  0.1091  0.1577 -0.7139
 2077TIP3    H127722   5.688   0.348   0.282 -2.4615  0.4348  0.9161
 2077TIP3    H227723   5.708   0.276   0.151  1.6808  2.5069  0.2239
 2078TIP3   OH227724   4.616   5.897   2.781 -0.0614  0.4385  0.0182
 2078TIP3    H127725   4.690   5.868   2.833  1.0270  0.5505 -1.4144
 2078TIP3    H227726   4.539   5.878   2.836  0.9865  0.1398  1.4403
 2079TIP3   OH227727   5.695   2.433   3.326  0.3982  0.9317 -0.0335
 2079TIP3    H127728   5.606   2.468   3.320  0.2730  1.2998  2.8098
 2079TIP3    H227729   5.684   2.338   3.315 -0.6312  0.7834  1.8195
 2080TIP3   OH227730   1.615   3.888  16.547  0.3987  0.8711  0.0904
 2080TIP3    H127731   1.538   3.916  16.595  0.3190  0.6259  0.1048
 2080TIP3    H227732   1.689   3.914  16.603  0.5166  3.8840 -1.2538
 2081TIP3   OH227733   1.728   6.270   2.934 -0.0986  0.1695  0.1198
 2081TIP3    H127734   1.725   6.325   2.856  0.5260  2.2134  1.4407
 2081TIP3    H227735   1.747   6.331   3.005  0.6555 -1.7936  1.7020
 2082TIP3   OH227736   0.498   0.732   5.695  0.6687 -0.0813 -0.1243
 2082TIP3    H127737   0.539   0.719   5.609  0.9655 -0.9687  0.1453
 2082TIP3    H227738   0.445   0.654   5.709  0.3401  0.2203  0.3508
 2083TIP3   OH227739   0.106   2.957  14.687 -0.3631 -0.3425 -0.4764
 2083TIP3    H127740   0.081   2.936  14.597  1.4735 -0.7501 -0.9376
 2083TIP3    H227741   0.032   2.926  14.741  0.0912 -3.6852 -1.5235
 2084TIP3   OH227742   5.977   4.763  12.743 -0.1445  0.1318 -0.2467
 2084TIP3    H127743   5.977   4.859  12.739  0.9747  0.0912 -1.7720
 2084TIP3    H227744   5.884   4.739  12.741 -0.5640  1.2069  2.2631
 2085TIP3   OH227745   3.946   6.576   1.852  0.0763 -0.2998 -0.4885
 2085TIP3    H127746   3.924   6.630   1.928  1.0236 -0.7212  0.1054
 2085TIP3    H227747   3.895   6.496   1.864  0.4239 -0.4778 -0.1327
 2086TIP3   OH227748   6.454   1.707   4.279  0.0126 -0.1904 -0.2838
 2086TIP3    H127749   6.544   1.679   4.297  0.6096  1.7189 -0.0724
 2086TIP3    H227750   6.401   1.630   4.299  1.4583 -0.9092  1.0901
 2087TIP3   OH227751   2.540   0.001  15.163  0.3726 -0.0053  0.8696
 2087TIP3    H127752   2.517  -0.035  15.249  0.5525 -3.0329 -0.2265
 2087TIP3    H227753   2.457   0.029  15.126  0.3403  1.7325  2.1418
 2088TIP3   OH227754   0.512   5.427  12.318 -0.0398  0.1096  0.1955
 2088TIP3    H127755   0.563   5.447  12.240 -0.4732  0.8601  0.0968
 2088TIP3    H227756   0.578   5.406  12.385  0.2966 -1.7369 -0.6613
 2089TIP3   OH227757   3.173   5.894  17.009 -0.5444 -0.3604  0.1152
 2089TIP3    H127758   3.123   5.814  17.025  1.5808 -1.9389 -0.6225
 2089TIP3    H227759   3.192   5.928  17.097  0.7188 -2.1604  0.6015
 2090TIP3   OH227760   4.206   6.660  14.275 -0.4764 -0.1001  0.5637
 2090TIP3    H127761   4.215   6.674  14.369 -0.4362 -1.0237  0.7035
 2090TIP3    H227762   4.261   6.584  14.256  1.5265  1.5435 -0.6382
 2091TIP3   OH227763   1.300   5.715  12.185  0.5676  0.2904 -0.1072
 2091TIP3    H127764   1.219   5.728  12.235  0.3921 -0.2180 -0.2500
 2091TIP3    H227765   1.364   5.687  12.250 -0.1825 -2.4286 -0.4126
 2092TIP3   OH227766   1.128   2.056  10.617 -0.5468 -0.2149  0.3554
 2092TIP3    H127767   1.100   2.096  10.535 -0.8746 -0.2811  0.4365
 2092TIP3    H227768   1.215   2.021  10.597 -0.6398 -0.2619  0.0259
 2093TIP3   OH227769   2.374   1.120   1.336  0.2985 -0.1654 -0.6149
 2093TIP3    H127770   2.363   1.028   1.360  2.1192  0.1984  2.0427
 2093TIP3    H227771   2.286   1.149   1.310 -0.8875 -1.9436  1.1798
 2094TIP3   OH227772   1.291   4.021   5.806  0.0811  0.4129 -0.2892
 2094TIP3    H127773   1.341   3.945   5.837  0.3211  1.2680  1.4864
 2094TIP3    H227774   1.353   4.093   5.809 -0.5482  0.9724 -0.5932
 2095TIP3   OH227775   5.700   5.006  17.000 -0.4128 -0.2013  0.4250
 2095TIP3    H127776   5.612   5.027  17.033 -0.1345  0.6685  0.6356
 2095TIP3    H227777   5.721   4.922  17.040 -1.5621 -0.9330 -0.4390
 2096TIP3   OH227778   1.826   3.655  15.452  0.4290 -0.2122  0.1850
 2096TIP3    H127779   1.771   3.608  15.515 -0.1124  0.9238  0.5876
 2096TIP3    H227780   1.878   3.587  15.410  0.0436 -1.1099  1.1228
 2097TIP3   OH227781   0.536   1.635   1.308  0.2993 -0.3208 -0.0412
 2097TIP3    H127782   0.568   1.554   1.269  0.3911 -0.3593  0.1136
 2097TIP3    H227783   0.540   1.620   1.402  0.3878 -0.1080 -0.0097
 2098TIP3   OH227784   4.032   5.113  14.969  0.0653 -0.5910 -0.4381
 2098TIP3    H127785   4.081   5.195  14.966  0.0104 -0.5402  0.0238
 2098TIP3    H227786   3.942   5.138  14.949 -0.6332  0.0121  2.8349
 2099TIP3   OH227787   0.511   1.266   5.442 -0.2812  0.2474  0.5215
 2099TIP3    H127788   0.541   1.355   5.428 -1.0595  0.5032  0.4563
 2099TIP3    H227789   0.420   1.266   5.413 -0.4983 -0.3939  1.1726
 2100TIP3   OH227790   4.805   4.183  11.243 -0.0373  0.5917 -0.3933
 2100TIP3    H127791   4.779   4.259  11.190 -0.7281 -0.2755 -1.3455
 2100TIP3    H227792   4.880   4.146  11.196  1.8871  2.0182  1.3593
 2101TIP3   OH227793   5.068   6.075   2.382  0.5018  0.1423 -0.4027
 2101TIP3    H127794   5.020   6.088   2.464  1.0396 -3.6050  0.6986
 2101TIP3    H227795   5.004   6.035   2.323  0.8911  0.0208 -0.7450
 2102TIP3   OH227796   3.495   6.092  14.106  0.1682 -0.0539 -0.2727
 2102TIP3    H127797   3.401   6.077  14.110  0.2729 -0.4938  1.3146
 2102TIP3    H227798   3.514   6.101  14.013 -1.3284 -0.6603 -0.6702
 2103TIP3   OH227799   6.333   6.356  12.690 -0.3359  0.2659 -0.3805
 2103TIP3    H127800   6.299   6.337  12.603 -0.5464  0.3231 -0.3117
 2103TIP3    H227801   6.361   6.271  12.723 -0.6624  0.1752 -0.3337
 2104TIP3   OH227802   3.257   3.983   4.707  0.5280  0.1199 -0.4130
 2104TIP3    H127803   3.218   3.924   4.643  0.3146 -0.0966 -0.0901
 2104TIP3    H227804   3.196   3.981   4.782 -0.5309  2.2505 -1.1307
 2105TIP3   OH227805   4.163   4.934   3.833 -0.3051  0.1850  0.6072
 2105TIP3    H127806   4.108   4.999   3.789  0.8088 -0.7069 -2.3777
 2105TIP3    H227807   4.218   4.985   3.892 -1.3456  1.5977  0.4079
 2106TIP3   OH227808   2.116   5.223  15.424  0.0177 -0.0515  0.5104
 2106TIP3    H127809   2.123   5.219  15.328  2.3050 -0.5201  0.6260
 2106TIP3    H227810   2.050   5.158  15.446 -1.0129  0.5180 -0.7762
 2107TIP3   OH227811   2.932   2.121  13.473 -0.2162  0.5044 -0.7774
 2107TIP3    H127812   2.979   2.120  13.389 -2.7842 -0.0270 -2.3095
 2107TIP3    H227813   2.880   2.201  13.470  0.5263  1.1025  0.9041
 2108TIP3   OH227814   1.842   4.641   3.283  0.2863 -0.3198 -0.2689
 2108TIP3    H127815   1.900   4.618   3.355  0.0059  0.9978  0.4006
 2108TIP3    H227816   1.900   4.647   3.207  0.8883  0.0927  0.2136
 2109TIP3   OH227817   2.305   1.516   5.436  0.5790 -0.0465 -0.1833
 2109TIP3    H127818   2.256   1.588   5.475  1.0412 -0.2533  0.8097
 2109TIP3    H227819   2.381   1.557   5.395  0.7239  0.0570  0.1848
 2110TIP3   OH227820   2.684   6.179   0.033  0.1680  0.4138 -0.3605
 2110TIP3    H127821   2.767   6.203   0.074  0.3410 -0.6590 -0.0584
 2110TIP3    H227822   2.631   6.144   0.104 -0.8666  1.8093 -0.3912
 2111TIP3   OH227823   5.310   0.301   1.277 -0.2428  0.1365 -0.3613
 2111TIP3    H127824   5.354   0.268   1.356 -1.8661 -1.9656 -0.2634
 2111TIP3    H227825   5.276   0.386   1.304  1.5483  0.6889  0.3264
 2112TIP3   OH227826   4.142   3.429  15.777 -0.0010  0.6796 -0.3990
 2112TIP3    H127827   4.228   3.460  15.748  0.6236 -1.1809 -0.6429
 2112TIP3    H227828   4.158   3.343  15.815 -1.6383  0.6935  0.4246
 2113TIP3   OH227829   1.143   0.139   0.866 -0.2602  0.7810  0.0830
 2113TIP3    H127830   1.073   0.193   0.830  1.6712  0.9011 -4.1087
 2113TIP3    H227831   1.194   0.199   0.920 -1.3447  1.6229  0.2019
 2114TIP3   OH227832   2.973   2.398  15.792  0.2572  0.0904 -0.1810
 2114TIP3    H127833   3.063   2.411  15.761  0.3087 -0.7578 -0.4154
 2114TIP3    H227834   2.936   2.486  15.797  1.2383  0.4920  0.3349
 2115TIP3   OH227835   4.061   6.752   3.881 -0.0339 -0.0960  0.6612
 2115TIP3    H127836   4.034   6.843   3.867  0.5331  0.1594  1.1799
 2115TIP3    H227837   4.050   6.711   3.796  0.6469  0.7056  0.1693
 2116TIP3   OH227838   4.697   4.838   4.103 -0.1401  0.1644 -0.2258
 2116TIP3    H127839   4.609   4.860   4.136 -1.0938 -1.8017 -1.2568
 2116TIP3    H227840   4.710   4.747   4.130  2.4265  0.9427  1.5203
 2117TIP3   OH227841   2.005   1.272   6.504  0.1859  0.7000 -0.0459
 2117TIP3    H127842   1.919   1.234   6.520  0.4100 -0.3777 -1.2280
 2117TIP3    H227843   2.064   1.224   6.563  0.3503 -0.3302 -1.0142
 2118TIP3   OH227844   2.008   1.936  13.786 -0.6177  0.2494  0.1304
 2118TIP3    H127845   1.999   1.937  13.882 -1.9187 -1.3310  0.0651
 2118TIP3    H227846   2.099   1.963  13.771 -0.8444  2.1213  1.6920
 2119TIP3   OH227847   5.607   0.770   5.841 -0.1480  0.2732 -0.1682
 2119TIP3    H127848   5.576   0.756   5.931  0.1031 -0.9943 -0.2689
 2119TIP3    H227849   5.628   0.683   5.809 -0.2392  0.7219 -1.4741
 2120TIP3   OH227850   2.439   1.676   5.697 -0.0629 -0.4717 -0.0675
 2120TIP3    H127851   2.438   1.753   5.640  0.2529 -1.2950 -1.2302
 2120TIP3    H227852   2.506   1.619   5.658  0.6615 -0.7712  1.5416
 2121TIP3   OH227853   3.141   4.109   1.103  0.0898 -0.2548 -1.1551
 2121TIP3    H127854   3.085   4.077   1.174  1.2999 -3.1392 -1.3470
 2121TIP3    H227855   3.228   4.117   1.144 -0.0798  2.8290 -1.1863
 2122TIP3   OH227856   4.813   2.508   5.902  0.5422 -0.2193 -0.5941
 2122TIP3    H127857   4.802   2.603   5.905  1.4478 -0.1122 -0.5170
 2122TIP3    H227858   4.902   2.493   5.932  0.6585 -1.0429 -1.3034
 2123TIP3   OH227859   2.384   0.268   3.457 -0.1369  0.0377 -0.5856
 2123TIP3    H127860   2.431   0.298   3.379  0.4360 -0.9793 -0.6557
 2123TIP3    H227861   2.450   0.267   3.526  0.2281 -2.1990 -0.8763
 2124TIP3   OH227862   3.769   3.726   5.047 -0.2177 -0.0398 -0.2765
 2124TIP3    H127863   3.713   3.696   4.975  0.0076 -0.7172 -0.1751
 2124TIP3    H227864   3.708   3.759   5.112 -0.6915 -2.6677  0.7370
 2125TIP3   OH227865   0.671   4.994   2.236 -0.2065 -0.2735 -0.5295
 2125TIP3    H127866   0.625   4.964   2.157 -0.1765 -0.2735 -0.5472
 2125TIP3    H227867   0.691   5.086   2.219 -2.2366  0.4023  0.4289
 2126TIP3   OH227868   4.031   6.524  16.625 -0.2483 -0.5551 -0.0773
 2126TIP3    H127869   4.070   6.499  16.708  0.3358 -0.5349 -0.3451
 2126TIP3    H227870   4.104   6.552  16.570 -0.4585 -1.7748 -1.0423
 2127TIP3   OH227871   2.133   4.901   3.197  1.0186 -0.0263 -0.2690
 2127TIP3    H127872   2.201   4.863   3.252  1.2120  1.8176  0.8271
 2127TIP3    H227873   2.100   4.827   3.145  2.6053 -1.2931  0.4571
 2128TIP3   OH227874   4.195   0.532  12.070 -0.7003 -0.0069  0.6380
 2128TIP3    H127875   4.193   0.438  12.090  0.6152 -0.5984 -1.6214
 2128TIP3    H227876   4.121   0.545  12.011 -0.0884  0.0656 -0.1244
 2129TIP3   OH227877   3.677   2.721   5.309  0.5578 -0.0350  0.4638
 2129TIP3    H127878   3.644   2.640   5.348  1.3838 -1.8940 -2.4408
 2129TIP3    H227879   3.761   2.696   5.270  1.3215  2.4937  0.3328
 2130TIP3   OH227880   5.407   3.454  13.803  0.2290  0.1646  0.2517
 2130TIP3    H127881   5.356   3.530  13.773 -1.7311 -1.4231 -0.6844
 2130TIP3    H227882   5.450   3.422  13.724 -3.0999 -2.6510 -0.6689
 2131TIP3   OH227883   4.587   6.064  16.073 -0.2721 -0.2651 -0.0926
 2131TIP3    H127884   4.656   6.083  16.137 -0.8502  2.7925 -0.2368
 2131TIP3    H227885   4.622   6.095  15.990 -2.5844  3.8026  0.2136
 2132TIP3   OH227886   4.375   2.378   5.576  0.0045  0.0869 -0.2785
 2132TIP3    H127887   4.413   2.301   5.534 -0.3204 -0.7561  0.9308
 2132TIP3    H227888   4.302   2.403   5.519 -0.3303 -0.9377 -0.3064
 2133TIP3   OH227889   2.929   0.482  13.925  0.0978 -0.3449 -0.8739
 2133TIP3    H127890   2.837   0.479  13.899 -0.4491 -0.1096  0.8995
 2133TIP3    H227891   2.965   0.558  13.879 -0.6959 -0.1876 -1.2474
 2134TIP3   OH227892   4.526   5.689   0.790 -0.3193  0.3685  0.0171
 2134TIP3    H127893   4.538   5.614   0.848  1.2953  0.0536 -0.6570
 2134TIP3    H227894   4.446   5.730   0.820  0.0107 -0.2746  1.9105
 2135TIP3   OH227895   6.790   5.702   1.627 -0.1619  0.3435 -0.5210
 2135TIP3    H127896   6.728   5.660   1.686  1.7676 -1.3671  0.4320
 2135TIP3    H227897   6.791   5.646   1.550 -1.2539  1.5176 -1.4427
 2136TIP3   OH227898   0.382   1.452  16.414  0.4526  0.0199  0.1652
 2136TIP3    H127899   0.468   1.420  16.387 -0.3685 -1.2781 -1.0306
 2136TIP3    H227900   0.351   1.389  16.478 -0.3567 -0.5626 -0.7662
 2137TIP3   OH227901   2.785   1.567  12.536  0.3813  0.3239  0.5231
 2137TIP3    H127902   2.746   1.574  12.449 -0.4733 -0.6898  0.8013
 2137TIP3    H227903   2.837   1.487  12.532 -0.4719 -0.2829  1.2333
 2138TIP3   OH227904   3.203   1.167  14.228  0.3349 -0.0640 -0.2985
 2138TIP3    H127905   3.120   1.127  14.203  0.7453 -2.0683  1.2582
 2138TIP3    H227906   3.269   1.123  14.174  0.5638  0.2397 -0.2703
 2139TIP3   OH227907   6.453   6.055   0.902  0.0076 -0.5202 -0.1840
 2139TIP3    H127908   6.397   6.017   0.970  0.3544  1.1427  1.1180
 2139TIP3    H227909   6.542   6.045   0.935  0.1273  1.0438  0.0522
 2140TIP3   OH227910   0.966   3.798  11.462  0.5188  0.1879 -0.3328
 2140TIP3    H127911   1.017   3.838  11.532  1.4530  1.9048 -1.8853
 2140TIP3    H227912   0.992   3.706  11.462  4.9534  1.1720 -1.9337
 2141TIP3   OH227913   0.235   1.449  11.433 -0.2935  0.0938 -0.4373
 2141TIP3    H127914   0.229   1.398  11.352  1.6001  0.3360 -0.7775
 2141TIP3    H227915   0.324   1.485  11.432 -0.5382  0.8446  1.3235
 2142TIP3   OH227916   0.665   0.729  11.397  0.0072 -0.2876 -0.0613
 2142TIP3    H127917   0.626   0.662  11.341  0.0761 -0.3085 -0.0843
 2142TIP3    H227918   0.704   0.681  11.469  0.1044 -0.2765 -0.1066
 2143TIP3   OH227919   2.033   5.702   1.872 -0.5153 -0.2499 -0.1360
 2143TIP3    H127920   2.096   5.634   1.896  0.7908  0.4769 -1.3571
 2143TIP3    H227921   2.033   5.702   1.776  0.1561  2.0049 -0.1915
 2144TIP3   OH227922   0.658   2.926   5.700 -0.1560 -0.6529 -0.2711
 2144TIP3    H127923   0.596   2.950   5.631  1.2023  0.3177 -1.1999
 2144TIP3    H227924   0.663   3.003   5.755  0.3636 -0.6478 -0.3200
 2145TIP3   OH227925   3.872   1.923  15.920 -0.1177  0.0335  0.6117
 2145TIP3    H127926   3.827   1.852  15.965  0.0072 -1.5691 -1.6358
 2145TIP3    H227927   3.950   1.940  15.973 -0.9904 -0.3267  2.0626
 2146TIP3   OH227928   3.782   3.724   3.636  0.5575  0.1848  0.0902
 2146TIP3    H127929   3.845   3.772   3.690  0.2601 -0.4212  0.9954
 2146TIP3    H227930   3.835   3.686   3.566  0.9508  0.9434 -0.0435
 2147TIP3   OH227931   6.361   6.152   2.732  0.5180  0.7434  0.8745
 2147TIP3    H127932   6.308   6.117   2.803  1.2909 -0.8444  0.7361
 2147TIP3    H227933   6.411   6.076   2.701  1.8942  1.8959  0.1603
 2148TIP3   OH227934   3.135   5.673   1.894 -0.1675  1.0033 -0.2520
 2148TIP3    H127935   3.106   5.613   1.962 -0.5648  1.0228 -0.4016
 2148TIP3    H227936   3.230   5.678   1.905  0.0372 -0.5929 -1.0073
 2149TIP3   OH227937   3.940   6.422   4.831 -0.3014 -0.3880  0.5249
 2149TIP3    H127938   3.889   6.342   4.849  1.2217 -1.8680 -1.3019
 2149TIP3    H227939   3.905   6.455   4.749 -0.3021  0.3050  0.8003
 2150TIP3   OH227940   4.595   2.709   0.801  0.1850  0.3885  0.5675
 2150TIP3    H127941   4.523   2.693   0.740 -0.3845 -1.2128  1.5933
 2150TIP3    H227942   4.609   2.804   0.797 -1.2170  0.5868 -0.4797
 2151TIP3   OH227943   0.490   4.908   0.104 -0.1429 -0.3751  0.1675
 2151TIP3    H127944   0.418   4.859   0.065 -1.4416  0.1438  1.7731
 2151TIP3    H227945   0.538   4.946   0.030 -2.6024  0.7552 -0.9493
 2152TIP3   OH227946   3.115   1.398   4.450 -0.1118 -0.6273 -0.1493
 2152TIP3    H127947   3.107   1.365   4.361  1.9659 -0.1269 -0.5690
 2152TIP3    H227948   3.044   1.462   4.458 -1.1851 -1.6668 -0.9371
 2153TIP3   OH227949   5.988   4.709  14.913  0.1080  0.7826  0.0820
 2153TIP3    H127950   5.953   4.643  14.853 -0.2117  0.5879  0.4738
 2153TIP3    H227951   6.072   4.673  14.942 -0.8480 -0.3057  1.6416
 2154TIP3   OH227952   6.081   2.467  13.556  0.4947 -0.8874 -0.6165
 2154TIP3    H127953   6.045   2.523  13.487 -0.9192 -3.0188 -1.7164
 2154TIP3    H227954   6.170   2.445  13.525  1.1727  0.8999 -0.0297
 2155TIP3   OH227955   5.472   1.253  11.531 -0.2722  0.2235 -0.3589
 2155TIP3    H127956   5.403   1.320  11.524 -1.0147 -0.1018  2.5567
 2155TIP3    H227957   5.532   1.287  11.597  0.3204 -1.2096 -0.1282
 2156TIP3   OH227958   5.452   4.885  11.163  0.5417  0.3885  0.4672
 2156TIP3    H127959   5.531   4.832  11.155  0.1600 -0.0778 -0.3196
 2156TIP3    H227960   5.414   4.858  11.246  0.3483 -0.5881  0.0733
 2157TIP3   OH227961   2.586   6.156  14.894  1.1673 -0.3856  0.4697
 2157TIP3    H127962   2.631   6.241  14.892  0.2150  0.1481  0.7243
 2157TIP3    H227963   2.565   6.143  14.987 -1.6450  0.7604  0.1087
 2158TIP3   OH227964   2.431   1.337  14.461  0.0266 -0.4410 -0.1765
 2158TIP3    H127965   2.341   1.366  14.446 -0.3885 -0.7135  1.5256
 2158TIP3    H227966   2.450   1.279  14.388 -0.9303  0.1711 -0.9389
 2159TIP3   OH227967   5.174   2.873  13.769  0.1201  0.3024  0.2836
 2159TIP3    H127968   5.165   2.969  13.775 -0.1493  0.3555 -0.8758
 2159TIP3    H227969   5.256   2.859  13.723  0.4047 -0.0450  0.8813
 2160TIP3   OH227970   3.141   4.583  13.289  0.0449 -0.5282 -0.1973
 2160TIP3    H127971   3.215   4.617  13.238  1.5785 -0.4269  1.9612
 2160TIP3    H227972   3.073   4.649  13.279  1.0527  0.5130 -0.4276
 2161TIP3   OH227973   6.670   5.588   5.041 -0.2867  0.7622 -0.2885
 2161TIP3    H127974   6.620   5.597   4.960  1.1737  0.0001 -1.3116
 2161TIP3    H227975   6.753   5.548   5.014  0.2462  0.5197  1.5792
 2162TIP3   OH227976   1.935   6.249  13.481  0.3104 -0.1222  0.4318
 2162TIP3    H127977   1.939   6.163  13.439  1.9529  0.4316 -0.6126
 2162TIP3    H227978   1.933   6.312  13.409  1.4549  0.7908  1.1607
 2163TIP3   OH227979   2.521   0.596  16.428  0.0864  0.2211 -0.0310
 2163TIP3    H127980   2.513   0.600  16.333 -0.0381  1.0453  0.0091
 2163TIP3    H227981   2.434   0.618  16.461  0.4614  1.2804  0.2848
 2164TIP3   OH227982   1.794   4.011  12.652  0.0604  0.0068 -0.0056
 2164TIP3    H127983   1.879   4.050  12.630  0.5070 -1.6094 -1.3438
 2164TIP3    H227984   1.737   4.037  12.580 -0.2126 -0.0505  0.1898
 2165TIP3   OH227985   1.081   6.007   4.266 -0.4587  0.3479  0.4666
 2165TIP3    H127986   1.015   6.046   4.208 -0.3427  2.4444  1.6864
 2165TIP3    H227987   1.161   6.004   4.213 -0.6830  0.9634  0.0886
 2166TIP3   OH227988   6.526   3.788  13.258 -0.8157  0.0343  0.5263
 2166TIP3    H127989   6.546   3.864  13.312 -1.9221  0.3434  0.5185
 2166TIP3    H227990   6.486   3.824  13.179 -3.0050 -0.6091  1.2804
 2167TIP3   OH227991   5.138   5.259   4.743  0.4551  0.0792 -0.1666
 2167TIP3    H127992   5.169   5.338   4.787  2.0466 -0.4749 -0.2366
 2167TIP3    H227993   5.094   5.290   4.664 -1.5134  1.0300  1.2076
 2168TIP3   OH227994   2.803   4.702  12.600  0.0935  0.1464  0.3720
 2168TIP3    H127995   2.747   4.769  12.561  0.2655  1.8810  2.8725
 2168TIP3    H227996   2.882   4.704  12.546 -0.8164  0.2362 -1.0157
 2169TIP3   OH227997   4.628   4.761  16.719  0.0604 -0.0686  0.5267
 2169TIP3    H127998   4.548   4.811  16.732  0.3026  0.1343  1.3031
 2169TIP3    H227999   4.605   4.693  16.655 -0.3777  0.7781 -0.2349
 2170TIP3   OH228000   5.071   4.464  13.812  0.8459 -0.4837  0.9420
 2170TIP3    H128001   5.128   4.393  13.842 -0.8756 -1.9880  0.7821
 2170TIP3    H228002   5.013   4.423  13.748 -0.7942  0.8506  1.4959
 2171TIP3   OH228003   0.051   4.142   0.257  0.1056  0.2302  0.4253
 2171TIP3    H128004  -0.017   4.104   0.202  1.1678  0.0710 -0.8374
 2171TIP3    H228005   0.133   4.106   0.223  0.8029 -0.0365  2.2723
 2172TIP3   OH228006   4.311   0.254   2.849 -0.1388 -0.2676 -0.1762
 2172TIP3    H128007   4.303   0.161   2.829  0.1706  0.0427 -1.9325
 2172TIP3    H228008   4.228   0.292   2.822  0.2991  0.1815 -0.9283
 2173TIP3   OH228009   5.683   3.215  14.653 -0.7534  0.4201  0.7156
 2173TIP3    H128010   5.675   3.121  14.635 -1.0405  0.6019 -0.1643
 2173TIP3    H228011   5.712   3.219  14.744 -1.3933 -0.5068  0.9832
 2174TIP3   OH228012   0.770   0.320   2.186  0.6565 -0.5482  0.1093
 2174TIP3    H128013   0.702   0.253   2.191  0.9785 -0.8061  1.3076
 2174TIP3    H228014   0.738   0.391   2.242  0.6561 -0.0061 -0.5664
 2175TIP3   OH228015   5.435   1.451   0.924  0.0512 -0.0938  0.4399
 2175TIP3    H128016   5.344   1.449   0.955  0.1884 -0.8256  0.8100
 2175TIP3    H228017   5.438   1.389   0.852  0.1532  0.2874  0.1114
 2176TIP3   OH228018   1.106   4.994  11.349  0.1059 -0.3795  0.1173
 2176TIP3    H128019   1.043   4.935  11.391  1.4802 -0.3920  2.3702
 2176TIP3    H228020   1.139   4.945  11.274 -0.3606 -1.5915  0.6737
 2177TIP3   OH228021   1.322   6.628   1.252 -0.7517 -0.6108 -0.3091
 2177TIP3    H128022   1.416   6.641   1.238 -0.5443  1.8009  2.3763
 2177TIP3    H228023   1.313   6.535   1.271  1.5866 -0.4417  2.0736
 2178TIP3   OH228024   2.101   6.063   4.878 -0.1431 -0.3531  0.4118
 2178TIP3    H128025   2.182   6.047   4.927  1.0724  1.3525 -0.8634
 2178TIP3    H228026   2.113   6.014   4.797  1.0980  2.1715 -1.0908
 2179TIP3   OH228027   5.402   2.057   4.269  0.1713 -0.1760  0.5939
 2179TIP3    H128028   5.474   2.008   4.229 -1.6127 -1.9399 -0.6109
 2179TIP3    H228029   5.386   2.130   4.209  0.0954 -0.5291  0.1872
 2180TIP3   OH228030   0.776   2.222  16.039 -0.0170 -0.0249 -0.0483
 2180TIP3    H128031   0.785   2.153  16.105  1.4654 -0.9327 -1.1212
 2180TIP3    H228032   0.732   2.180  15.965  0.2946  0.3433 -0.4572
 2181TIP3   OH228033   4.033   5.158  16.994 -0.0590  0.6211  0.3364
 2181TIP3    H128034   4.066   5.118  17.075  0.3071 -0.5425 -0.3598
 2181TIP3    H228035   3.948   5.116  16.980 -0.6507  1.6561  0.7051
 2182TIP3   OH228036   3.312   3.373   5.597 -0.3726  0.3136  0.0246
 2182TIP3    H128037   3.293   3.463   5.624 -0.3264 -0.1175  1.5890
 2182TIP3    H228038   3.395   3.352   5.640  0.2308 -0.1019 -1.2819
 2183TIP3   OH228039   4.255   3.230   2.953  0.2319  0.1568  0.2405
 2183TIP3    H128040   4.250   3.319   2.989  2.5488  0.3975  0.1399
 2183TIP3    H228041   4.346   3.221   2.925  0.0095 -2.1985  0.0722
 2184TIP3   OH228042   2.578   3.290  13.226 -0.7952  0.2270 -0.4487
 2184TIP3    H128043   2.587   3.204  13.267 -1.3626  1.1468  1.7517
 2184TIP3    H228044   2.666   3.311  13.194  0.2293  0.2803  2.1528
 2185TIP3   OH228045   4.676   2.702  12.270 -0.6420  0.5810 -0.2210
 2185TIP3    H128046   4.760   2.670  12.303 -1.2267  1.0009  1.7709
 2185TIP3    H228047   4.665   2.788  12.309 -1.3547  1.1679 -1.6338
 2186TIP3   OH228048   4.283   1.392  16.826  0.2914  0.2130 -0.3907
 2186TIP3    H128049   4.189   1.388  16.810 -0.1419 -1.6284  2.0078
 2186TIP3    H228050   4.310   1.300  16.834  1.8524  0.7434  1.0705
 2187TIP3   OH228051   6.071   6.146  14.030 -0.0731 -0.0062 -0.7473
 2187TIP3    H128052   6.016   6.225  14.027  0.5137  0.5248  1.2210
 2187TIP3    H228053   6.015   6.078  13.993 -1.6346  0.7722  0.0492
 2188TIP3   OH228054   2.223   4.206  13.002  0.3890  0.2102 -0.0816
 2188TIP3    H128055   2.240   4.145  13.074  0.6507  1.1689  0.6987
 2188TIP3    H228056   2.310   4.228  12.968  0.2920  0.0858 -0.4072
 2189TIP3   OH228057   3.865   2.530  15.946 -0.5574  0.1276 -0.6363
 2189TIP3    H128058   3.858   2.458  15.883  2.1740 -0.2934 -0.5724
 2189TIP3    H228059   3.827   2.606  15.901  1.7483 -0.0392 -3.0886
 2190TIP3   OH228060   1.017   1.617  10.993  0.5604  0.0990  0.3548
 2190TIP3    H128061   1.054   1.571  10.917  0.2973  0.0460  0.2556
 2190TIP3    H228062   0.924   1.624  10.973  0.5941  0.6406  0.3922
 2191TIP3   OH228063   2.400   5.304   3.211  0.6838  0.4303  0.2092
 2191TIP3    H128064   2.454   5.244   3.261  1.1379  0.6328 -0.0300
 2191TIP3    H228065   2.381   5.376   3.272  1.0389  0.5620  0.1679
 2192TIP3   OH228066   2.750   4.952   2.317  0.0063  0.3524 -0.3878
 2192TIP3    H128067   2.811   4.893   2.273 -2.2235 -3.5927  1.2590
 2192TIP3    H228068   2.769   4.941   2.410 -0.6452  2.1605 -0.0112
 2193TIP3   OH228069   4.769   3.756   5.497 -0.1375  0.0721 -0.0262
 2193TIP3    H128070   4.712   3.680   5.485  0.5967 -0.5194  0.1612
 2193TIP3    H228071   4.743   3.792   5.582  2.1830 -2.4054  1.9491
 2194TIP3   OH228072   6.697   4.660   4.155 -0.3809  0.1911  0.2607
 2194TIP3    H128073   6.621   4.646   4.099  0.6762 -0.5848 -1.0362
 2194TIP3    H228074   6.764   4.695   4.097  0.5505 -0.0195  1.1680
 2195TIP3   OH228075   4.062   4.914  14.535 -0.8484 -0.3772 -0.5023
 2195TIP3    H128076   4.007   4.956  14.469 -1.1727 -0.0331 -0.0117
 2195TIP3    H228077   4.105   4.986  14.581  0.0028 -0.6329 -0.8554
 2196TIP3   OH228078   5.406   2.412   3.047 -0.2163 -0.5750 -0.1947
 2196TIP3    H128079   5.384   2.401   2.955 -0.0453  0.1097 -0.3213
 2196TIP3    H228080   5.500   2.426   3.048 -0.0987 -1.3207  0.1581
 2197TIP3   OH228081   3.131   3.752  16.467 -0.1855 -0.7130  0.5375
 2197TIP3    H128082   3.129   3.845  16.490 -0.0579 -1.2867  3.2071
 2197TIP3    H228083   3.204   3.744  16.406  1.6788  0.5752  2.4354
 2198TIP3   OH228084   2.460   2.492   5.359 -0.0543  0.0876  0.1448
 2198TIP3    H128085   2.432   2.444   5.437  0.4340  0.2841  0.4476
 2198TIP3    H228086   2.395   2.469   5.292  1.0232 -2.3254 -0.2129
 2199TIP3   OH228087   6.555   3.723   3.201 -0.2014  0.1184 -0.5509
 2199TIP3    H128088   6.584   3.633   3.191  1.1837  0.5379 -0.4397
 2199TIP3    H228089   6.587   3.768   3.123 -3.7966 -0.1331 -2.4156
 2200TIP3   OH228090   1.137   3.863   0.793 -0.3700  0.2064 -0.0383
 2200TIP3    H128091   1.134   3.823   0.706  0.3986 -1.1882  0.5400
 2200TIP3    H228092   1.209   3.818   0.838 -1.9162 -0.4437  1.9439
 2201TIP3   OH228093   6.254   1.172  11.340 -0.0849  0.1063  0.2864
 2201TIP3    H128094   6.181   1.115  11.316  1.3769 -1.4417 -0.7062
 2201TIP3    H228095   6.232   1.256  11.301 -0.5643 -0.7805 -1.4514
 2202TIP3   OH228096   4.031   4.726  16.501 -0.2734  0.0504  0.5690
 2202TIP3    H128097   4.115   4.695  16.534  0.4055 -0.7289 -1.7559
 2202TIP3    H228098   4.017   4.678  16.420 -1.0723  2.9896 -1.1874
 2203TIP3   OH228099   4.375   4.554  11.832 -0.1826  0.3603  0.2066
 2203TIP3    H128100   4.411   4.641  11.819 -3.1856  1.9195  1.2703
 2203TIP3    H228101   4.406   4.503  11.757  1.9167  2.1975 -0.2627
 2204TIP3   OH228102   1.274   5.152  17.005 -0.6070 -0.4920 -0.0603
 2204TIP3    H128103   1.244   5.082  17.063  1.7147  0.2617  2.2468
 2204TIP3    H228104   1.322   5.108  16.936  0.4944 -1.2487  1.1402
 2205TIP3   OH228105   6.399   0.555  12.584  0.0294  0.0410  0.0571
 2205TIP3    H128106   6.382   0.626  12.522 -0.8469 -0.3277 -0.1406
 2205TIP3    H228107   6.475   0.584  12.634  0.1590  0.7683 -0.5492
 2206TIP3   OH228108   4.323   4.913   5.254  0.5968 -0.1427  0.0859
 2206TIP3    H128109   4.376   4.887   5.179 -0.3012  1.4655 -1.1913
 2206TIP3    H228110   4.248   4.959   5.215 -0.5022 -0.2714  1.9314
 2207TIP3   OH228111   1.880   6.075   5.347  0.0802 -0.0680 -0.2179
 2207TIP3    H128112   1.969   6.110   5.353  0.4264 -0.9927  0.1370
 2207TIP3    H228113   1.828   6.149   5.314  0.5784  1.1480  1.5723
 2208TIP3   OH228114   0.270   5.716   1.689  0.3422 -0.0983  0.1737
 2208TIP3    H128115   0.295   5.692   1.778  0.2621  0.4997  0.3654
 2208TIP3    H228116   0.190   5.767   1.700  0.1331 -0.3235 -0.2738
 2209TIP3   OH228117   5.223   1.424  12.028 -0.2419  0.6956 -0.0390
 2209TIP3    H128118   5.271   1.495  11.985 -0.2734  0.4402 -0.5096
 2209TIP3    H228119   5.166   1.468  12.091  1.3201  0.9419  1.2580
 2210TIP3   OH228120   6.452   6.709  11.710 -0.0626 -0.5897  0.9007
 2210TIP3    H128121   6.462   6.704  11.805  1.4901 -0.3217  0.7687
 2210TIP3    H228122   6.488   6.794  11.686 -0.0111 -0.8542  0.0136
 2211TIP3   OH228123   5.344   4.796   0.307  0.3233 -0.1321  0.1513
 2211TIP3    H128124   5.322   4.793   0.214 -3.2111 -1.1330  0.8624
 2211TIP3    H228125   5.357   4.704   0.331  0.6253  0.0645  0.7536
 2212TIP3   OH228126   6.266   3.196  14.368  0.0196 -0.3213  0.5557
 2212TIP3    H128127   6.288   3.124  14.427  2.0673 -1.1409 -1.0658
 2212TIP3    H228128   6.258   3.155  14.282 -1.6283  1.0122  0.0296
 2213TIP3   OH228129   3.700   1.931  12.018 -0.0714 -0.5501  0.2253
 2213TIP3    H128130   3.630   1.994  11.996  1.5824  0.5625 -2.2968
 2213TIP3    H228131   3.751   1.976  12.086 -0.4017 -0.3174  0.3259
 2214TIP3   OH228132   0.120   4.869   5.983  0.1403  0.2919 -0.0336
 2214TIP3    H128133   0.178   4.828   5.920 -0.7568 -0.7836 -0.2005
 2214TIP3    H228134   0.178   4.919   6.041  1.4098 -1.9472  0.7334
 2215TIP3   OH228135   3.111   5.727  14.874 -0.0769  0.3917 -0.0690
 2215TIP3    H128136   3.136   5.648  14.827  0.5475  0.3991  0.2529
 2215TIP3    H228137   3.106   5.701  14.966 -0.4450  0.5901 -0.0262
 2216TIP3   OH228138   3.223   3.618  15.408  0.4147 -0.6504  0.0132
 2216TIP3    H128139   3.146   3.610  15.465 -0.0672  0.2286 -0.4966
 2216TIP3    H228140   3.199   3.567  15.330  0.5953 -0.8778  0.1069
 2217TIP3   OH228141   6.286   5.466  12.720 -0.1139  0.0109 -0.6443
 2217TIP3    H128142   6.242   5.381  12.711 -0.1520 -0.1293  0.6385
 2217TIP3    H228143   6.341   5.472  12.643  0.7686 -1.7345 -0.2168
 2218TIP3   OH228144   5.735   4.094   1.219  0.0164 -0.0307 -1.1721
 2218TIP3    H128145   5.670   4.155   1.184 -0.7268 -1.2485 -1.9812
 2218TIP3    H228146   5.713   4.010   1.179 -0.6821 -1.4695  1.9271
 2219TIP3   OH228147   5.072   5.767   5.794  0.3554 -0.4651 -0.4625
 2219TIP3    H128148   5.106   5.712   5.864 -0.1493 -0.4360 -0.1937
 2219TIP3    H228149   4.977   5.770   5.808  0.2826 -0.2055 -0.9601
 2220TIP3   OH228150   5.065   1.727   5.196 -0.2903  0.4847 -0.7654
 2220TIP3    H128151   5.072   1.693   5.107  0.0379 -0.3738 -0.4278
 2220TIP3    H228152   4.977   1.701   5.225  0.2254 -0.7684 -0.2498
 2221TIP3   OH228153   0.612   4.373   5.994 -0.0741  0.1638 -0.0897
 2221TIP3    H128154   0.674   4.405   6.059 -1.1910  1.2306  0.5083
 2221TIP3    H228155   0.535   4.348   6.046 -1.0456  1.1882 -0.9922
 2222TIP3   OH228156   5.198   4.717  12.772  0.5109  0.2271 -0.3341
 2222TIP3    H128157   5.146   4.776  12.827  0.5846  1.2849 -1.3601
 2222TIP3    H228158   5.133   4.672  12.717  0.5686  0.5674 -0.6866
 2223TIP3   OH228159   0.602   2.328   2.026 -0.5478 -0.5538  0.1518
 2223TIP3    H128160   0.645   2.268   2.087  0.6157 -0.9421 -0.9899
 2223TIP3    H228161   0.591   2.276   1.946 -1.8396  0.0037 -0.0609
 2224TIP3   OH228162   0.243   0.285  13.247 -0.4419 -0.5627  0.7962
 2224TIP3    H128163   0.198   0.324  13.323  0.2459 -1.7551  1.8608
 2224TIP3    H228164   0.173   0.265  13.186 -0.9125  1.4704  0.5781
 2225TIP3   OH228165   5.285   5.807   4.703  0.0179 -0.2989 -0.1730
 2225TIP3    H128166   5.377   5.789   4.724 -0.5149 -2.1197  0.7744
 2225TIP3    H228167   5.263   5.744   4.634 -0.4117  0.4409 -0.7287
 2226TIP3   OH228168   2.864   2.720   3.814  0.3908  0.4525  0.4738
 2226TIP3    H128169   2.769   2.721   3.823  0.2253 -0.1301 -0.9858
 2226TIP3    H228170   2.889   2.812   3.811 -0.0538  0.6137  1.3927
 2227TIP3   OH228171   3.955   2.912  10.575  0.0958  0.4949  0.2592
 2227TIP3    H128172   3.919   2.884  10.659  1.5049 -0.8927  0.4660
 2227TIP3    H228173   4.044   2.940  10.596  0.0302  1.3763 -0.5904
 2228TIP3   OH228174   4.239   6.047   3.180 -0.0712  0.1651  0.0981
 2228TIP3    H128175   4.189   6.018   3.256 -1.1583  0.5025 -0.4699
 2228TIP3    H228176   4.183   6.027   3.105  0.7385  0.3646 -0.5788
 2229TIP3   OH228177   6.750   0.234  11.244 -0.4319  0.2628 -0.6592
 2229TIP3    H128178   6.718   0.153  11.203 -1.7470 -0.7673  2.1586
 2229TIP3    H228179   6.673   0.289  11.253  0.4135  1.8186 -2.3270
 2230TIP3   OH228180   5.265   4.357  12.502  0.2479  0.0390 -0.4255
 2230TIP3    H128181   5.279   4.262  12.502 -0.8988 -0.1613 -1.6356
 2230TIP3    H228182   5.192   4.371  12.562  0.0234  0.0665 -0.6978
 2231TIP3   OH228183   6.716   5.770  12.003  0.3513 -0.2634 -0.2488
 2231TIP3    H128184   6.781   5.720  11.953  1.3161  0.4576  0.2577
 2231TIP3    H228185   6.751   5.774  12.092  2.4559  4.6306 -0.9823
 2232TIP3   OH228186   1.139   5.141   5.287  0.1807  0.5686 -0.4059
 2232TIP3    H128187   1.045   5.156   5.273  0.0904  0.3227 -0.0520
 2232TIP3    H228188   1.155   5.054   5.251  0.6026  1.2407 -1.9562
 2233TIP3   OH228189   0.884   4.709  14.512  1.1342 -0.6176 -0.2096
 2233TIP3    H128190   0.842   4.693  14.597 -1.9437 -0.1765 -1.5388
 2233TIP3    H228191   0.920   4.798  14.520 -1.2576  0.4149 -0.0743
 2234TIP3   OH228192   0.380   4.572   5.681  0.0682 -0.2061 -0.2609
 2234TIP3    H128193   0.309   4.634   5.666  0.2354 -0.2408 -1.2410
 2234TIP3    H228194   0.459   4.625   5.680  0.0955 -0.2331  0.3576
 2235TIP3   OH228195   6.806   0.676   2.387  0.1838  0.2066  0.0514
 2235TIP3    H128196   6.725   0.629   2.365  1.5074 -1.0796 -2.5601
 2235TIP3    H228197   6.848   0.620   2.452 -0.2521  0.0319  0.1926
 2236TIP3   OH228198   0.682   5.814  15.743 -1.1829 -0.3614  0.6352
 2236TIP3    H128199   0.633   5.880  15.793 -0.0902  1.2430 -0.2994
 2236TIP3    H228200   0.764   5.858  15.721 -0.0866 -2.3277  0.5939
 2237TIP3   OH228201   3.157   4.592   1.324  0.2579  0.1857  0.1207
 2237TIP3    H128202   3.201   4.647   1.258 -0.2496  1.8109  1.0786
 2237TIP3    H228203   3.198   4.506   1.314  1.6751  0.9233 -0.9039
 2238TIP3   OH228204   2.814   5.759   2.106  0.3840  0.0104 -0.0691
 2238TIP3    H128205   2.900   5.736   2.070 -0.1256  0.0376 -1.3383
 2238TIP3    H228206   2.825   5.849   2.138  1.9166 -1.2220  3.4264
 2239TIP3   OH228207   4.894   5.806   4.451  0.0693  0.5806 -0.1676
 2239TIP3    H128208   4.861   5.754   4.524 -2.9710  2.9498  0.3548
 2239TIP3    H228209   4.953   5.870   4.491 -1.6327  1.9109  0.3618
 2240TIP3   OH228210   2.617   2.990  13.573  0.5799  0.1467  1.0208
 2240TIP3    H128211   2.653   3.054  13.511 -0.5255 -0.0577  0.1175
 2240TIP3    H228212   2.680   2.987  13.644  3.3656 -1.6051 -1.3145
 2241TIP3   OH228213   6.299   1.561   5.556 -0.0606  0.7521 -1.0550
 2241TIP3    H128214   6.390   1.572   5.527  0.3162  1.0586  0.2125
 2241TIP3    H228215   6.294   1.469   5.584 -0.7720  0.0692 -3.1575
 2242TIP3   OH228216   5.398   0.057   0.079 -0.4945 -0.2128  0.0704
 2242TIP3    H128217   5.365  -0.022   0.121 -0.7895  1.1184  2.5022
 2242TIP3    H228218   5.492   0.042   0.070 -0.6868 -1.2096 -0.4403
 2243TIP3   OH228219   4.035   5.259   3.405  0.4225  0.4135 -1.0928
 2243TIP3    H128220   3.950   5.276   3.365  0.7246  1.1347 -1.4602
 2243TIP3    H228221   4.084   5.340   3.391  1.2620 -0.0874 -1.1222
 2244TIP3   OH228222   2.032   2.478   5.248  0.0407 -0.1517 -0.6427
 2244TIP3    H128223   1.974   2.554   5.240  0.4030  0.2585  0.5040
 2244TIP3    H228224   2.089   2.499   5.322 -0.8501 -2.1983  0.7124
 2245TIP3   OH228225   2.769   6.645   1.071 -0.2622  0.4199 -0.4882
 2245TIP3    H128226   2.837   6.636   1.138  0.0826 -1.7299 -1.0310
 2245TIP3    H228227   2.687   6.627   1.118 -0.0179 -1.1263 -0.5862
 2246TIP3   OH228228   3.757   1.053  12.400 -0.3579  0.1744  0.2027
 2246TIP3    H128229   3.679   1.107  12.389 -1.1102 -0.6803  1.1381
 2246TIP3    H228230   3.734   0.992  12.471  0.9198 -0.5254  0.0405
 2247TIP3   OH228231   3.419   1.280   4.227  0.3591  0.2768  0.0841
 2247TIP3    H128232   3.328   1.298   4.251  0.4782 -0.0068  0.7794
 2247TIP3    H228233   3.434   1.191   4.257  0.4901 -0.1572 -1.1904
 2248TIP3   OH228234   5.740   4.372  12.904 -0.0666  0.6375  0.1929
 2248TIP3    H128235   5.739   4.454  12.854  0.9306  1.6874  1.8026
 2248TIP3    H228236   5.827   4.335  12.885 -0.5301 -0.0973 -0.5624
 2249TIP3   OH228237   0.391   3.037   6.166 -0.2249 -0.2264  0.0139
 2249TIP3    H128238   0.302   3.035   6.131 -0.3146 -1.1181  0.2677
 2249TIP3    H228239   0.414   3.129   6.169 -1.4968  0.0898  0.8223
 2250TIP3   OH228240   2.350   2.610  14.036  0.4233  0.5597 -0.6213
 2250TIP3    H128241   2.441   2.580  14.029  0.9215  0.7389  2.9247
 2250TIP3    H228242   2.344   2.684  13.976  2.7412  0.7209 -0.7608
 2251TIP3   OH228243   3.808   1.496  13.384  0.3653 -0.5600 -0.4231
 2251TIP3    H128244   3.855   1.559  13.330  0.6653  1.3022  1.8210
 2251TIP3    H228245   3.762   1.440  13.322 -0.2760  2.1483 -2.5917
 2252TIP3   OH228246   3.627   5.605   0.498 -0.2445  0.4704 -0.1786
 2252TIP3    H128247   3.699   5.549   0.528 -2.0079  0.2918  4.3704
 2252TIP3    H228248   3.574   5.547   0.444  1.8660  0.0810 -2.0097
 2253TIP3   OH228249   4.065   5.173  15.412 -0.3517  0.4816  0.0736
 2253TIP3    H128250   4.005   5.101  15.396  0.1134  0.0732  0.1447
 2253TIP3    H228251   4.099   5.158  15.500  1.9968 -0.9005 -0.9641
 2254TIP3   OH228252   0.032   1.978  16.402  0.2276 -0.3259 -0.4965
 2254TIP3    H128253  -0.054   1.958  16.438  0.4179  1.4558  1.1700
 2254TIP3    H228254   0.020   1.977  16.307 -0.9302 -2.7629 -0.3901
 2255TIP3   OH228255   4.050   0.141  14.408 -0.0460 -0.0577  0.3918
 2255TIP3    H128256   4.058   0.057  14.454  1.4256  0.1742  0.5904
 2255TIP3    H228257   4.099   0.202  14.462 -0.2451  0.7220 -0.3041
 2256TIP3   OH228258   2.748   4.722  11.056  0.0353  0.1145  0.3706
 2256TIP3    H128259   2.732   4.652  10.993  0.3631 -0.3198  0.7654
 2256TIP3    H228260   2.833   4.701  11.094  1.1443  1.8342 -0.9712
 2257TIP3   OH228261   5.465   4.228  16.290  0.1458 -0.0215 -0.2658
 2257TIP3    H128262   5.471   4.138  16.322  2.4283 -0.0920 -0.7022
 2257TIP3    H228263   5.408   4.223  16.213  2.4244 -1.6672 -1.9555
 2258TIP3   OH228264   6.632   0.316  14.697 -0.0745 -0.1110  0.3515
 2258TIP3    H128265   6.560   0.376  14.715  2.6562  3.3285  0.8836
 2258TIP3    H228266   6.590   0.233  14.674 -4.1154  1.7537  0.2988
 2259TIP3   OH228267   2.207   2.757   5.909 -0.2660 -0.3881 -0.4720
 2259TIP3    H128268   2.270   2.686   5.898  0.5539  0.0013  1.4122
 2259TIP3    H228269   2.145   2.723   5.974  1.2356  1.2626  1.9524
 2260TIP3   OH228270   0.634   2.769  16.915 -0.6336  0.1676  0.7262
 2260TIP3    H128271   0.543   2.741  16.924 -0.3866 -0.1200  2.6787
 2260TIP3    H228272   0.629   2.864  16.908 -1.1110  0.1094  0.1997
 2261TIP3   OH228273   6.166   6.622   3.483  0.3780 -0.2631 -0.1992
 2261TIP3    H128274   6.249   6.609   3.529  0.6608  0.5065 -0.4838
 2261TIP3    H228275   6.174   6.708   3.442 -1.0798  0.4113  0.8582
 2262TIP3   OH228276   4.002   2.838   2.816  0.2858 -0.3396  0.2450
 2262TIP3    H128277   3.950   2.882   2.749 -0.9182 -0.2790  1.1748
 2262TIP3    H228278   4.082   2.889   2.822 -0.8476  1.4447  0.9156
 2263TIP3   OH228279   5.119   3.470  15.327 -0.6963 -0.3028 -0.0394
 2263TIP3    H128280   5.080   3.383  15.313 -0.1866 -0.5991  0.3560
 2263TIP3    H228281   5.167   3.488  15.247  1.1201 -1.4140  0.7499
 2264TIP3   OH228282   5.442   3.175   1.596 -1.0139 -0.5583  0.7037
 2264TIP3    H128283   5.397   3.095   1.569 -2.0360 -0.4055  1.8691
 2264TIP3    H228284   5.505   3.147   1.663 -0.9691 -0.4685  0.6998
 2265TIP3   OH228285   0.147   0.992   5.449  0.0638  0.1468 -0.1001
 2265TIP3    H128286   0.105   0.926   5.394  0.6953  0.0149 -0.4251
 2265TIP3    H228287   0.196   1.047   5.388  1.5920 -0.6085  0.4129
 2266TIP3   OH228288   2.915   6.225   0.178  0.4758  0.1694  0.5296
 2266TIP3    H128289   2.969   6.189   0.248 -0.5942  0.1158  1.3408
 2266TIP3    H228290   2.908   6.319   0.198  0.9602  0.3369 -0.0476
 2267TIP3   OH228291   5.782   5.775   6.759  0.2712  0.0965 -0.0316
 2267TIP3    H128292   5.876   5.791   6.765  0.3131  0.0571 -0.5572
 2267TIP3    H228293   5.772   5.682   6.780  0.3474  0.0997  0.0210
 2268TIP3   OH228294   4.363   2.691   0.613  0.4518 -0.0433 -0.9592
 2268TIP3    H128295   4.312   2.654   0.541  0.3495 -0.4536 -0.6763
 2268TIP3    H228296   4.382   2.781   0.585 -0.8225  0.2636 -0.8622
 2269TIP3   OH228297   1.038   1.714   4.171 -0.0266  0.3873  0.3960
 2269TIP3    H128298   1.077   1.650   4.230 -0.8237  0.9595  1.5809
 2269TIP3    H228299   0.946   1.716   4.195 -0.2527  1.0791 -0.4694
 2270TIP3   OH228300   4.821   2.026   3.275  1.0397 -0.1332  0.0540
 2270TIP3    H128301   4.904   2.023   3.227  0.7726  1.0157 -0.5158
 2270TIP3    H228302   4.754   2.030   3.206  0.7002  2.6973  0.4463
 2271TIP3   OH228303   6.223   3.762  15.783 -0.2223 -0.1195 -0.1090
 2271TIP3    H128304   6.178   3.681  15.758 -0.7070 -0.4311  1.6455
 2271TIP3    H228305   6.286   3.776  15.713 -0.4098 -1.7970 -0.6709
 2272TIP3   OH228306   4.237   6.335  12.973 -0.0813 -0.1775 -0.0082
 2272TIP3    H128307   4.154   6.353  13.016 -0.2309 -0.1406 -0.3057
 2272TIP3    H228308   4.285   6.418  12.977 -0.6110  0.1986 -1.0292
 2273TIP3   OH228309   1.939   1.582  11.165 -0.1426  0.5007 -0.5464
 2273TIP3    H128310   1.961   1.506  11.110 -0.3006  0.2170 -0.2240
 2273TIP3    H228311   2.009   1.586  11.230  0.3399  1.1713 -1.1017
 2274TIP3   OH228312   2.684   1.076  11.279 -0.0583 -0.3132 -0.1739
 2274TIP3    H128313   2.717   0.989  11.256 -2.3022 -1.4968  0.7809
 2274TIP3    H228314   2.725   1.135  11.216  1.7242 -2.0021 -0.6867
 2275TIP3   OH228315   6.795   2.011  13.834  0.1008 -0.2080  0.1146
 2275TIP3    H128316   6.812   2.053  13.750  2.1923 -0.8767  0.1518
 2275TIP3    H228317   6.877   1.968  13.857 -0.3785  0.0304  2.5650
 2276TIP3   OH228318   5.065   4.843  13.196  0.1145  0.4686  0.3925
 2276TIP3    H128319   5.069   4.750  13.173 -0.2392  0.1872  1.3824
 2276TIP3    H228320   5.136   4.855  13.259  1.6185  1.4086 -1.4035
 2277TIP3   OH228321   6.340   2.478  13.894 -0.1219  0.6081  0.0403
 2277TIP3    H128322   6.341   2.574  13.897  1.7144  0.6162  0.1296
 2277TIP3    H228323   6.382   2.456  13.811 -0.4429 -0.1221  0.0705
 2278TIP3   OH228324   1.817   2.098  13.237 -0.2886  0.4480 -0.2483
 2278TIP3    H128325   1.788   2.053  13.317 -0.5998  0.8718 -0.1157
 2278TIP3    H228326   1.738   2.141  13.205 -0.5486 -0.9804 -1.6497
 2279TIP3   OH228327   4.508   1.039  15.336 -0.4845  0.0966 -0.1695
 2279TIP3    H128328   4.450   0.998  15.272  1.6884 -1.0829 -1.4932
 2279TIP3    H228329   4.480   1.130  15.339 -0.7681  0.1588 -2.7129
 2280TIP3   OH228330   6.813   3.258  11.109  0.0233 -0.0999 -0.4986
 2280TIP3    H128331   6.783   3.275  11.019 -1.5320 -1.7146 -0.3412
 2280TIP3    H228332   6.795   3.340  11.156 -0.9706  0.1143 -1.2194
 2281TIP3   OH228333   2.642   3.553  10.472 -0.2945  0.6184 -0.0300
 2281TIP3    H128334   2.620   3.636  10.429  0.8391  1.4507  0.9561
 2281TIP3    H228335   2.730   3.532  10.441 -1.8621 -2.2401 -3.2445
 2282TIP3   OH228336   2.849   1.307   4.650  0.1872  0.1519  0.5145
 2282TIP3    H128337   2.931   1.257   4.649 -0.7728 -1.4644  0.2929
 2282TIP3    H228338   2.870   1.385   4.702  1.3643 -1.1451  2.1075
 2283TIP3   OH228339   3.797   4.820  16.643 -0.1566  0.4669 -0.8164
 2283TIP3    H128340   3.871   4.787  16.592 -0.1243 -0.2680 -0.3168
 2283TIP3    H228341   3.738   4.745  16.651 -0.3153  0.6668 -0.0595
 2284TIP3   OH228342   4.931   2.085   5.460  0.1397  0.2194 -0.4854
 2284TIP3    H128343   4.884   2.166   5.479  0.7481  0.2314  1.0419
 2284TIP3    H228344   5.020   2.100   5.491 -0.4423 -2.0588  2.7272
 2285TIP3   OH228345   5.233   3.967  11.276 -0.3078  0.5547 -0.2870
 2285TIP3    H128346   5.268   3.922  11.199 -1.2286 -0.5937 -0.0592
 2285TIP3    H228347   5.228   4.059  11.250  0.4378  0.3510 -1.2014
 2286TIP3   OH228348   3.129   1.179   5.668  0.5346 -0.6278 -0.1159
 2286TIP3    H128349   3.088   1.208   5.587  2.3760 -0.4507 -1.0433
 2286TIP3    H228350   3.090   1.234   5.736  1.7321  2.0292 -1.4311
 2287TIP3   OH228351   0.912   6.767   5.433 -0.5779 -0.0767  0.3779
 2287TIP3    H128352   0.869   6.839   5.387 -0.0005 -1.0831 -1.8985
 2287TIP3    H228353   1.000   6.800   5.452  0.6170 -0.8990 -3.0200
 2288TIP3   OH228354   1.620   3.780   0.372  0.4937 -0.2861 -0.7698
 2288TIP3    H128355   1.702   3.819   0.403  0.3456  0.3224 -1.1240
 2288TIP3    H228356   1.567   3.770   0.451  0.6263  0.0075 -0.6415
 2289TIP3   OH228357   3.596   1.844   2.371  0.3548  0.1233 -0.3114
 2289TIP3    H128358   3.550   1.769   2.334  0.5426 -0.2218  0.1424
 2289TIP3    H228359   3.688   1.831   2.345  0.5768 -0.3874  0.6696
 2290TIP3   OH228360   5.280   2.226  15.476 -0.4807 -0.0499 -0.8523
 2290TIP3    H128361   5.252   2.250  15.388  0.2067  3.9208 -0.1868
 2290TIP3    H228362   5.367   2.263  15.485 -0.9822  0.7672  1.8344
 2291TIP3   OH228363   6.346   4.850  13.706 -0.8534 -0.0195  0.3915
 2291TIP3    H128364   6.412   4.878  13.769 -0.8460  3.0421 -0.7533
 2291TIP3    H228365   6.270   4.905  13.725 -0.8792  0.9494 -2.0963
 2292TIP3   OH228366   5.612   4.521   0.334  0.5127 -0.1234  0.3906
 2292TIP3    H128367   5.648   4.447   0.382  0.7093  1.4255  2.8115
 2292TIP3    H228368   5.559   4.568   0.398  1.6637  2.7022 -0.5455
 2293TIP3   OH228369   4.921   4.805  12.044  0.0803  0.3962 -0.2901
 2293TIP3    H128370   4.833   4.781  12.071  0.6414  0.2023  1.5215
 2293TIP3    H228371   4.952   4.864  12.113  1.3859  0.4102 -0.8523
 2294TIP3   OH228372   3.691   3.464  16.648 -0.2243 -0.3122  0.3120
 2294TIP3    H128373   3.664   3.518  16.574 -0.8230 -0.4938  0.3878
 2294TIP3    H228374   3.756   3.404  16.613 -2.8093 -2.6445 -0.9261
 2295TIP3   OH228375   3.691   0.371   5.886  0.0554 -0.0427 -0.1818
 2295TIP3    H128376   3.738   0.394   5.966 -1.5843 -0.8731  1.0962
 2295TIP3    H228377   3.647   0.289   5.908 -0.9074  0.0223 -1.7462
 2296TIP3   OH228378   3.385   0.187  12.722  0.1735  0.5285  0.2921
 2296TIP3    H128379   3.447   0.198  12.794  1.6437 -1.2924 -0.5971
 2296TIP3    H228380   3.394   0.266  12.669  0.7030  0.9064  0.9412
 2297TIP3   OH228381   5.442   3.375  15.695  0.0088  0.4413  0.2211
 2297TIP3    H128382   5.525   3.331  15.679  0.3816  1.5626 -1.1806
 2297TIP3    H228383   5.382   3.338  15.630 -0.1487  0.7591  0.1820
 2298TIP3   OH228384   1.943   0.638  16.494  0.3082  0.3982  0.0249
 2298TIP3    H128385   1.848   0.638  16.487  0.0814  2.0621  2.1961
 2298TIP3    H228386   1.968   0.730  16.491  1.6029  0.1659  1.7172
 2299TIP3   OH228387   0.423   3.994  12.264 -0.2367  0.7466  0.1372
 2299TIP3    H128388   0.347   3.958  12.310 -0.5668  1.7027  0.3854
 2299TIP3    H228389   0.478   4.030  12.334  1.3741 -1.5023  0.1351
 2300TIP3   OH228390   6.227   1.837  13.418 -0.1752 -0.4325 -0.1761
 2300TIP3    H128391   6.238   1.757  13.470 -0.2399 -0.6993 -0.5676
 2300TIP3    H228392   6.207   1.806  13.330 -1.7249  0.0077 -0.0080
 2301TIP3   OH228393   3.160   3.442   3.563  0.1822 -0.1717 -0.2989
 2301TIP3    H128394   3.143   3.488   3.480 -0.5257 -1.3612 -0.8316
 2301TIP3    H228395   3.238   3.389   3.546  0.3016 -0.0840 -0.0449
 2302TIP3   OH228396   5.546   1.992   3.643  0.1312 -0.4348  0.1771
 2302TIP3    H128397   5.632   1.958   3.617 -0.4568 -0.5847 -1.7186
 2302TIP3    H228398   5.537   2.074   3.594 -0.4408  0.0507  1.0671
 2303TIP3   OH228399   1.700   0.599   0.362  0.1753 -0.2938  0.2291
 2303TIP3    H128400   1.712   0.671   0.424  0.2070  0.2708 -0.4112
 2303TIP3    H228401   1.675   0.524   0.415 -0.3359  0.3186  0.8598
 2304TIP3   OH228402   4.465   4.423   6.096  0.0370 -0.0209 -0.1311
 2304TIP3    H128403   4.435   4.345   6.143 -1.1450  0.2612 -0.3928
 2304TIP3    H228404   4.503   4.478   6.164  1.2879 -0.9919 -0.0028
 2305TIP3   OH228405   3.075   4.026  16.257 -0.0845  0.0026  0.4808
 2305TIP3    H128406   3.068   4.044  16.164  0.4548 -0.4381  0.3499
 2305TIP3    H228407   3.003   4.075  16.297  0.2781  0.9910 -0.0543
 2306TIP3   OH228408   3.498   2.117  12.009 -0.3609 -0.0060 -0.5231
 2306TIP3    H128409   3.418   2.158  11.975 -0.5176 -0.0561 -0.2149
 2306TIP3    H228410   3.568   2.177  11.982 -0.4886 -0.0125 -0.8813
 2307TIP3   OH228411   5.378   4.299   2.436  0.1725 -0.1974 -0.1186
 2307TIP3    H128412   5.463   4.277   2.473  0.0980  1.2386  0.9810
 2307TIP3    H228413   5.396   4.368   2.372 -0.1462  0.0778  0.0813
 2308TIP3   OH228414   4.267   4.185   4.179 -0.0924  0.2015 -0.0053
 2308TIP3    H128415   4.335   4.190   4.245  1.7022  0.3765 -1.7669
 2308TIP3    H228416   4.286   4.258   4.119 -1.2506 -0.3257 -1.0773
 2309TIP3   OH228417   0.203   4.769  14.565  0.2566 -0.3713  0.0965
 2309TIP3    H128418   0.163   4.752  14.650 -0.0430  0.2724  0.0862
 2309TIP3    H228419   0.197   4.686  14.519  0.2279 -0.6659  0.6226
 2310TIP3   OH228420   3.428   3.576   1.771 -0.1835 -0.0632  0.2212
 2310TIP3    H128421   3.401   3.665   1.793 -0.0927  0.0990 -0.3185
 2310TIP3    H228422   3.365   3.548   1.705 -0.8985 -0.8095  1.1868
 2311TIP3   OH228423   1.972   4.285  14.210 -0.2666  0.7465  0.3313
 2311TIP3    H128424   1.889   4.278  14.163  0.0574  0.6189 -0.2389
 2311TIP3    H228425   2.033   4.319  14.145 -0.2353  2.4257  1.1971
 2312TIP3   OH228426   5.922   6.472   0.848  0.3714  0.2272  0.2954
 2312TIP3    H128427   5.973   6.553   0.853 -0.1216  0.5063  0.8927
 2312TIP3    H228428   5.890   6.458   0.937  1.9141 -1.6081  0.6177
 2313TIP3   OH228429   2.209   2.049  12.410  0.1829  0.2551  0.0642
 2313TIP3    H128430   2.221   1.978  12.473  0.6075 -0.4720 -0.8279
 2313TIP3    H228431   2.118   2.041  12.382 -0.3208  1.2064  1.3050
 2314TIP3   OH228432   4.229   4.227   4.706 -0.4195  0.2245  0.2366
 2314TIP3    H128433   4.183   4.298   4.661 -0.3021 -0.4527 -1.0018
 2314TIP3    H228434   4.304   4.207   4.649  0.4741  0.1780  1.3794
 2315TIP3   OH228435   6.314   1.148   3.349 -0.4070 -0.3951 -0.0519
 2315TIP3    H128436   6.401   1.184   3.334 -0.3376 -0.3661  0.4218
 2315TIP3    H228437   6.265   1.171   3.270 -0.1470  0.0784 -0.0769
 2316TIP3   OH228438   6.440   4.591   5.900 -0.2808  0.1885  0.4848
 2316TIP3    H128439   6.436   4.496   5.912  1.3810 -0.0185 -0.2278
 2316TIP3    H228440   6.476   4.602   5.811 -0.9660  1.4931  0.3484
 2317TIP3   OH228441   6.375   6.728  16.562  0.8897  0.0523  0.1243
 2317TIP3    H128442   6.460   6.703  16.527  1.5690  0.4744  1.3793
 2317TIP3    H228443   6.343   6.796  16.503 -0.1466 -2.3512 -2.2719
 2318TIP3   OH228444   5.782   4.463  14.918  0.1857 -0.8873  0.5284
 2318TIP3    H128445   5.785   4.448  14.824  2.3771  1.2758  0.1473
 2318TIP3    H228446   5.739   4.548  14.928  1.2590 -0.4028  1.3172
 2319TIP3   OH228447   2.547   3.931  16.718 -0.2871 -0.3764  0.0361
 2319TIP3    H128448   2.461   3.909  16.682 -0.4258 -0.9029  0.6606
 2319TIP3    H228449   2.558   4.024  16.702  0.3593 -0.8497 -2.8454
 2320TIP3   OH228450   4.252   0.164  16.901 -0.5707 -0.1834  0.1732
 2320TIP3    H128451   4.192   0.204  16.839 -1.6726 -0.1332  1.2442
 2320TIP3    H228452   4.299   0.238  16.940 -0.5146 -0.1542  0.0518
 2321TIP3   OH228453   4.583   1.444   3.544 -0.2580  0.0773  0.1745
 2321TIP3    H128454   4.656   1.383   3.541 -1.5155 -1.4849  0.2603
 2321TIP3    H228455   4.512   1.396   3.587 -1.8321  0.9955 -1.2555
 2322TIP3   OH228456   4.687   3.877  12.918 -0.4411  0.0751 -0.1956
 2322TIP3    H128457   4.681   3.878  13.014  0.4888 -0.1981 -0.1239
 2322TIP3    H228458   4.615   3.820  12.890 -0.4230 -0.2347  0.3682
 2323TIP3   OH228459   2.005   2.484  15.236  0.0516 -0.5146  0.4856
 2323TIP3    H128460   1.985   2.456  15.325  1.8820 -1.0794  0.7488
 2323TIP3    H228461   2.085   2.536  15.244  2.9021 -4.1629 -1.2454
 2324TIP3   OH228462   4.282   4.602   6.409 -0.1031 -0.2123 -0.2020
 2324TIP3    H128463   4.220   4.659   6.364  0.9011  0.9548 -0.1454
 2324TIP3    H228464   4.363   4.611   6.359 -0.0872 -2.1566 -0.6140
 2325TIP3   OH228465   1.457   4.327  17.095 -0.0596  0.0882 -0.4053
 2325TIP3    H128466   1.478   4.352  17.005 -0.5766  0.1673 -0.5062
 2325TIP3    H228467   1.361   4.330  17.099 -0.0337  0.2716  0.2002
 2326TIP3   OH228468   5.374   3.764   2.985  0.0721  0.0979 -0.2895
 2326TIP3    H128469   5.352   3.748   2.893  1.0490  3.1508 -1.1575
 2326TIP3    H228470   5.291   3.788   3.025 -0.1888 -0.2316 -0.6175
 2327TIP3   OH228471   1.769   0.981   5.928  0.3222 -0.1700  0.4165
 2327TIP3    H128472   1.861   1.006   5.932 -0.1566  1.5681  2.5831
 2327TIP3    H228473   1.771   0.886   5.917  2.3168  0.0061 -1.2759
 2328TIP3   OH228474   0.483   3.170   4.471  0.1691  0.4004  0.1084
 2328TIP3    H128475   0.483   3.199   4.563  2.5294  1.2935 -0.0966
 2328TIP3    H228476   0.525   3.241   4.424  1.1212 -1.0434 -1.3149
 2329TIP3   OH228477   2.880   2.743  12.415 -0.3068 -0.3568  0.2562
 2329TIP3    H128478   2.854   2.767  12.504 -1.7543 -0.2943 -0.1563
 2329TIP3    H228479   2.929   2.818  12.382  2.6999 -1.4190  1.8998
 2330TIP3   OH228480   2.334   2.906  11.604 -0.1791  0.0069  0.2905
 2330TIP3    H128481   2.366   2.940  11.687  0.8755  0.1788 -0.1758
 2330TIP3    H228482   2.258   2.853  11.628 -0.4570  0.7977  1.2632
 2331TIP3   OH228483   6.439   1.347  12.477 -0.2313  0.0660 -0.2667
 2331TIP3    H128484   6.466   1.283  12.411  0.7024 -0.5317  0.6563
 2331TIP3    H228485   6.509   1.412  12.476 -2.3265  2.5454 -2.9512
 2332TIP3   OH228486   6.754   1.892  15.095  0.2244  0.2081  0.9786
 2332TIP3    H128487   6.813   1.959  15.128  0.1643 -0.0356  1.5869
 2332TIP3    H228488   6.809   1.816  15.082  0.2799  0.3530  0.3466
 2333TIP3   OH228489   1.672   1.399  14.074 -0.9685  0.1149  0.3791
 2333TIP3    H128490   1.609   1.382  14.144  0.8148  0.5572  2.1966
 2333TIP3    H228491   1.753   1.422  14.120  0.6152 -0.7052 -1.8476
 2334TIP3   OH228492   6.355   1.379   0.430  0.2001 -0.2923 -0.6703
 2334TIP3    H128493   6.393   1.466   0.426  0.6874 -0.3936  0.8551
 2334TIP3    H228494   6.274   1.390   0.480  0.1009 -0.6613 -0.7460
 2335TIP3   OH228495   2.868   5.943   0.734  0.1272 -0.3221  0.3198
 2335TIP3    H128496   2.877   6.037   0.747 -0.2312 -0.5464  2.6189
 2335TIP3    H228497   2.778   5.924   0.760  0.4346 -1.3856  0.6682
 2336TIP3   OH228498   1.144   0.755   3.077  0.3960 -0.2236  0.0071
 2336TIP3    H128499   1.111   0.806   3.003  1.7731 -0.8181 -1.0617
 2336TIP3    H228500   1.102   0.669   3.067 -0.8333  0.2304  1.0013
 2337TIP3   OH228501   2.345   5.490  15.746  0.2103  0.0129  0.3752
 2337TIP3    H128502   2.355   5.584  15.764 -3.1308  0.2116  1.9172
 2337TIP3    H228503   2.302   5.487  15.660  2.2797 -0.2851 -0.7077
 2338TIP3   OH228504   2.148   4.064  11.724 -0.5713  0.4275 -0.3567
 2338TIP3    H128505   2.144   3.969  11.736  0.1086  0.2791 -1.2208
 2338TIP3    H228506   2.123   4.078  11.632  1.5377  0.8709 -0.9215
 2339TIP3   OH228507   0.605   4.350   3.755 -0.0669 -0.3498 -0.4474
 2339TIP3    H128508   0.645   4.335   3.841 -1.2756 -0.3725  0.1425
 2339TIP3    H228509   0.565   4.436   3.763  1.4560  0.5098 -1.6729
 2340TIP3   OH228510   5.968   0.293  14.368 -0.2922 -0.6746 -0.0211
 2340TIP3    H128511   5.884   0.279  14.323  0.5122 -0.8685 -1.5493
 2340TIP3    H228512   5.980   0.214  14.420  0.2806 -2.0467 -2.0996
 2341TIP3   OH228513   5.542   1.323  16.200  0.0350 -0.2292  0.2982
 2341TIP3    H128514   5.495   1.293  16.122  0.4722  1.2974 -0.5839
 2341TIP3    H228515   5.475   1.325  16.269 -0.8508  0.3965 -0.5521
 2342TIP3   OH228516   4.071   0.218   4.880 -0.1503 -0.4272 -0.3659
 2342TIP3    H128517   4.065   0.123   4.880 -1.4669 -0.3712  0.9510
 2342TIP3    H228518   3.988   0.248   4.842 -0.8780  0.1976  1.6236
 2343TIP3   OH228519   4.353   2.057  15.274  0.6206  0.1572 -0.1767
 2343TIP3    H128520   4.439   2.072  15.235  1.7933 -0.2128  2.0495
 2343TIP3    H228521   4.361   2.095  15.362 -0.8182 -1.6406  0.7940
 2344TIP3   OH228522   5.107   4.657  15.348  0.3476  0.1675  0.5174
 2344TIP3    H128523   5.023   4.631  15.384  0.2985 -0.2651  0.0881
 2344TIP3    H228524   5.168   4.590  15.378  0.4005  0.0793  0.2164
 2345TIP3   OH228525   1.347   5.259   1.276  0.8979 -0.5149  0.5494
 2345TIP3    H128526   1.332   5.198   1.348  2.9606  0.9846  2.3992
 2345TIP3    H228527   1.385   5.205   1.206 -1.7011 -2.1034  0.2538
 2346TIP3   OH228528   0.674   6.074   3.205 -0.1305  0.3131 -0.3631
 2346TIP3    H128529   0.642   6.164   3.197  0.7751  0.5600 -1.4547
 2346TIP3    H228530   0.673   6.057   3.299 -1.7946  0.8963 -0.2329
 2347TIP3   OH228531   6.426   0.869   1.804  0.0937 -0.1905 -0.3388
 2347TIP3    H128532   6.396   0.779   1.794 -0.7014 -0.3291  2.4004
 2347TIP3    H228533   6.365   0.908   1.866  1.3516  1.7832 -0.2323
 2348TIP3   OH228534   3.763   5.660  14.443  0.3211 -0.3751 -0.2916
 2348TIP3    H128535   3.789   5.569  14.430  0.2320 -0.5415  0.6386
 2348TIP3    H228536   3.751   5.669  14.537 -0.4756  0.3893 -0.4503
 2349TIP3   OH228537   2.632   3.547   3.839 -0.3303 -0.0781 -0.1322
 2349TIP3    H128538   2.574   3.621   3.823  0.2185  0.8092  1.7585
 2349TIP3    H228539   2.606   3.514   3.925  1.2495 -0.3366  0.2773
 2350TIP3   OH228540   0.700   0.233  13.855 -0.2239  0.6628 -0.3404
 2350TIP3    H128541   0.753   0.187  13.791 -0.0137  1.1924 -0.5536
 2350TIP3    H228542   0.682   0.318  13.815 -1.4594  0.3913 -0.3809
 2351TIP3   OH228543   3.610   5.408  15.755  0.3540  0.2491  0.2829
 2351TIP3    H128544   3.672   5.411  15.682  1.4524 -0.2869  1.1628
 2351TIP3    H228545   3.615   5.317  15.786  1.3955  0.9382  2.2605
 2352TIP3   OH228546   0.962   1.147  11.940 -0.1271  0.1242  0.1716
 2352TIP3    H128547   1.036   1.087  11.951 -0.4828 -0.4573 -0.5682
 2352TIP3    H228548   0.884   1.092  11.945 -0.4635  0.5437 -0.3556
 2353TIP3   OH228549   1.578   5.031  15.652 -0.2859  0.0669 -0.2416
 2353TIP3    H128550   1.592   5.078  15.570  0.2877 -0.3285 -0.3796
 2353TIP3    H228551   1.652   5.057  15.707  0.3493 -1.0876 -0.5197
 2354TIP3   OH228552   4.491   0.880   0.070 -0.1080 -0.5914  0.4074
 2354TIP3    H128553   4.495   0.816   0.141  0.9999 -0.7900  0.1821
 2354TIP3    H228554   4.400   0.876   0.040 -0.3737 -1.1261  1.2449
 2355TIP3   OH228555   5.628   3.413  12.470 -0.3247 -0.2419  0.2766
 2355TIP3    H128556   5.665   3.466  12.399  1.0234 -0.9428  0.4192
 2355TIP3    H228557   5.653   3.323  12.448  1.7659 -0.3197  2.5331
 2356TIP3   OH228558   2.895   0.673  14.375 -0.4013 -0.6593  0.0549
 2356TIP3    H128559   2.952   0.597  14.390  1.2726 -0.1398 -2.8780
 2356TIP3    H228560   2.873   0.668  14.282 -0.1381  2.4720 -0.2711
 2357TIP3   OH228561   1.096   0.853   1.658  0.3862 -0.0720  0.8922
 2357TIP3    H128562   1.162   0.892   1.600  0.4156  0.3372  1.1958
 2357TIP3    H228563   1.094   0.760   1.633 -1.3231  0.5083 -1.4187
 2358TIP3   OH228564   6.072   6.126   5.022 -0.1610  0.4465  0.2502
 2358TIP3    H128565   6.132   6.112   4.948  0.1788 -0.0320  0.6157
 2358TIP3    H228566   6.118   6.091   5.098 -1.4943 -1.3330  0.3042
 2359TIP3   OH228567   6.599   3.189   2.310  0.2543 -0.1885  0.3370
 2359TIP3    H128568   6.590   3.133   2.388  0.3191 -2.6150 -1.2996
 2359TIP3    H228569   6.694   3.195   2.296  0.2556  0.5101  0.5924
 2360TIP3   OH228570   5.631   0.630  16.613  0.2945 -0.6654  0.0435
 2360TIP3    H128571   5.653   0.549  16.660  1.6310 -0.1265  0.4026
 2360TIP3    H228572   5.691   0.630  16.538  0.6753  0.2447  0.3430
 2361TIP3   OH228573   1.479   1.185  15.531 -0.2599  0.0165  0.2134
 2361TIP3    H128574   1.518   1.137  15.458 -1.4697  0.2505 -0.6124
 2361TIP3    H228575   1.543   1.176  15.602  0.7419 -0.5798 -0.7302
 2362TIP3   OH228576   4.213   0.694  14.439  0.2927 -0.2301  0.6303
 2362TIP3    H128577   4.186   0.748  14.512  1.1148  1.8419 -0.5075
 2362TIP3    H228578   4.299   0.661  14.465 -0.4614 -1.5483  1.5724
 2363TIP3   OH228579   6.751   2.897   1.555  0.1006 -0.2480  0.0050
 2363TIP3    H128580   6.813   2.897   1.628 -0.8607  0.9845  0.8526
 2363TIP3    H228581   6.774   2.975   1.504  1.2476 -1.4971 -1.4723
 2364TIP3   OH228582   5.994   2.624   5.422 -0.2315  0.0606 -0.1818
 2364TIP3    H128583   5.976   2.678   5.499  1.3631  0.6561 -0.1761
 2364TIP3    H228584   5.935   2.550   5.429  1.0756 -0.8287  2.6095
 2365TIP3   OH228585   4.647   3.090  16.968  0.4233  0.0816  0.1481
 2365TIP3    H128586   4.588   3.128  17.032  0.5618  0.1641  0.2264
 2365TIP3    H228587   4.593   3.026  16.921  0.7592 -1.2401  1.4985
 2366TIP3   OH228588   3.927   4.438  12.751  0.6566  0.1576 -0.3698
 2366TIP3    H128589   3.837   4.469  12.743  0.9126  0.9940 -0.1523
 2366TIP3    H228590   3.925   4.349  12.718 -0.5381 -0.3268  0.8940
 2367TIP3   OH228591   3.715   3.411   3.534 -0.4206 -0.0063 -0.0304
 2367TIP3    H128592   3.769   3.488   3.548  0.2561 -0.3727 -0.5862
 2367TIP3    H228593   3.705   3.373   3.621 -1.1466  0.9427  0.3235
 2368TIP3   OH228594   0.852   4.196  14.266 -0.2788 -0.0277  0.3396
 2368TIP3    H128595   0.776   4.222  14.317 -0.1610 -0.8676  0.9522
 2368TIP3    H228596   0.862   4.266  14.201 -2.8412 -0.9036 -1.1584
 2369TIP3   OH228597   3.434   2.618  13.556  0.0867 -0.1092 -0.0495
 2369TIP3    H128598   3.521   2.656  13.566  0.0947 -0.4416  1.3491
 2369TIP3    H228599   3.443   2.529  13.590 -0.2558 -0.9537 -2.0348
 2370TIP3   OH228600   1.406   5.396   0.705  0.3475  0.1409  0.7894
 2370TIP3    H128601   1.451   5.444   0.774 -2.6402  0.6964  2.5122
 2370TIP3    H228602   1.388   5.310   0.743 -0.2668  0.0211  0.2504
 2371TIP3   OH228603   4.181   6.417  16.839  1.0316  0.2266 -0.2169
 2371TIP3    H128604   4.133   6.384  16.915  0.5140 -0.2648 -0.7466
 2371TIP3    H228605   4.221   6.339  16.801 -0.2674  0.1542 -1.5278
 2372TIP3   OH228606   6.443   2.141  13.140 -0.0312  0.4304  0.4954
 2372TIP3    H128607   6.528   2.186  13.142 -0.8374  2.1338 -1.1987
 2372TIP3    H228608   6.462   2.054  13.176  2.6585  0.3923 -0.7769
 2373TIP3   OH228609   1.820   2.911  16.763  0.2317 -0.3006 -0.1571
 2373TIP3    H128610   1.858   2.936  16.848 -0.7147  1.7927 -0.2867
 2373TIP3    H228611   1.745   2.856  16.786 -0.1391  0.4202  0.3995
 2374TIP3   OH228612   4.199   4.914   5.514  0.0332 -0.4342  0.4938
 2374TIP3    H128613   4.210   5.009   5.517  3.2055 -0.6745 -0.1270
 2374TIP3    H228614   4.208   4.891   5.421 -2.5280 -1.2590  0.3674
 2375TIP3   OH228615   4.455   2.955   2.705 -0.0812  0.1165 -0.1612
 2375TIP3    H128616   4.362   2.979   2.699  0.1634  0.8468 -1.3701
 2375TIP3    H228617   4.498   3.036   2.732  0.1884 -0.3089  0.7396
 2376TIP3   OH228618   0.973   0.649  15.912  0.1324 -0.1435  0.0474
 2376TIP3    H128619   0.931   0.734  15.928  0.8923  0.5835 -1.5958
 2376TIP3    H228620   0.924   0.610  15.840  1.0508 -0.1409 -0.6068
 2377TIP3   OH228621   2.650   2.628  14.705 -0.4171  0.3637 -0.0118
 2377TIP3    H128622   2.588   2.685  14.751 -0.3617  0.1150  0.3727
 2377TIP3    H228623   2.603   2.600  14.626 -0.1914  1.4990 -0.5638
 2378TIP3   OH228624   1.088   6.313  12.392  0.0746 -0.5714  0.3512
 2378TIP3    H128625   1.137   6.328  12.311 -3.1848  1.7641 -1.3990
 2378TIP3    H228626   1.016   6.256  12.365 -0.3277 -0.8533  1.9537
 2379TIP3   OH228627   5.836   4.716   3.330  0.0715  0.0865  0.1313
 2379TIP3    H128628   5.888   4.721   3.250  1.2039  0.1825  0.8450
 2379TIP3    H228629   5.892   4.668   3.392 -0.3095  0.9911  1.2093
 2380TIP3   OH228630   2.182   4.071   3.960  0.4421  0.2412  0.2773
 2380TIP3    H128631   2.219   4.090   3.874  0.2856  2.0998  0.5814
 2380TIP3    H228632   2.102   4.123   3.964  1.1295  1.2783  2.0256
 2381TIP3   OH228633   3.883   1.770   2.254 -0.1750  0.1891  0.0395
 2381TIP3    H128634   3.898   1.676   2.248 -1.0486  0.0289  0.2317
 2381TIP3    H228635   3.912   1.804   2.169 -1.4527 -0.4940 -0.7069
 2382TIP3   OH228636   4.352   0.382  15.214 -0.7179  0.0496 -0.0319
 2382TIP3    H128637   4.266   0.367  15.254 -1.0358  1.1482 -0.2630
 2382TIP3    H228638   4.332   0.400  15.122 -0.3333  1.0969  0.0714
 2383TIP3   OH228639   0.460   3.185   3.939  0.5301 -0.6604  0.1152
 2383TIP3    H128640   0.485   3.189   3.847 -0.1008  1.7035 -0.0398
 2383TIP3    H228641   0.496   3.265   3.977 -2.1207  0.1909  1.0775
 2384TIP3   OH228642   6.273   2.090   0.884 -0.1137 -0.1313 -0.0623
 2384TIP3    H128643   6.350   2.055   0.930 -1.3818 -2.0750  0.7102
 2384TIP3    H228644   6.254   2.172   0.929  2.5262  1.3885 -1.4516
 2385TIP3   OH228645   0.010   0.347  13.411  0.7806 -0.2094 -0.0416
 2385TIP3    H128646  -0.007   0.344  13.505 -0.3161 -1.2865 -0.2532
 2385TIP3    H228647   0.032   0.439  13.393 -1.1581  0.4851  0.9174
 2386TIP3   OH228648   2.510   3.104   2.154  0.0578  0.2449  0.2828
 2386TIP3    H128649   2.596   3.129   2.120  0.3350 -2.0193 -0.9052
 2386TIP3    H228650   2.452   3.108   2.078 -0.2906 -0.6823  0.4795
 2387TIP3   OH228651   3.073   6.194  16.269  0.3249  0.5320 -0.3971
 2387TIP3    H128652   3.106   6.280  16.293 -1.0821  1.3377 -1.2248
 2387TIP3    H228653   3.132   6.164  16.199 -0.3429  1.7443 -1.5312
 2388TIP3   OH228654   5.878   0.203   2.859 -0.4041 -0.4082  0.1033
 2388TIP3    H128655   5.796   0.228   2.818  0.6820  1.0275 -1.3331
 2388TIP3    H228656   5.876   0.244   2.945 -0.9975 -0.0250 -0.0923
 2389TIP3   OH228657   4.283   3.024   4.168  0.2095  0.0396  0.0017
 2389TIP3    H128658   4.196   3.059   4.151  1.4658  2.1428 -2.9008
 2389TIP3    H228659   4.287   2.944   4.115 -0.0162 -0.2189  0.3668
 2390TIP3   OH228660   5.717   4.883  12.526  0.0098  0.3381 -0.1888
 2390TIP3    H128661   5.717   4.801  12.478  0.3196  0.8378 -1.0707
 2390TIP3    H228662   5.631   4.921  12.509 -0.9923 -0.7711  1.9853
 2391TIP3   OH228663   4.697   2.515  11.268  0.1627 -0.0197  0.1935
 2391TIP3    H128664   4.742   2.585  11.221  0.2721 -0.0999  0.1777
 2391TIP3    H228665   4.732   2.434  11.230  0.7674 -0.0915  0.8964
 2392TIP3   OH228666   5.187   4.509  12.286  0.3104 -0.2852  0.3289
 2392TIP3    H128667   5.095   4.494  12.266  0.6721 -1.6237 -0.4327
 2392TIP3    H228668   5.203   4.459  12.365  1.0496 -2.5347 -1.1486
 2393TIP3   OH228669   4.568   2.519   1.513  0.2358 -0.3517 -0.1095
 2393TIP3    H128670   4.556   2.614   1.504  0.8601 -0.3525 -1.1826
 2393TIP3    H228671   4.479   2.484   1.513  0.0181  0.1836 -0.5200
 2394TIP3   OH228672   6.234   1.455  11.550 -0.3793  0.0705  1.0448
 2394TIP3    H128673   6.277   1.425  11.470  0.2325 -0.4655  1.5682
 2394TIP3    H228674   6.156   1.502  11.519 -2.5103 -3.6255  0.1647
 2395TIP3   OH228675   2.913   1.479   5.302  0.4127 -0.0374 -0.3249
 2395TIP3    H128676   2.819   1.495   5.312  0.2348  0.9795 -2.7753
 2395TIP3    H228677   2.919   1.406   5.240  1.2203  0.1833 -0.5209
 2396TIP3   OH228678   1.251   4.577   2.673 -0.3246 -0.6966  0.0608
 2396TIP3    H128679   1.260   4.672   2.665 -0.6537 -0.4862  1.8019
 2396TIP3    H228680   1.235   4.562   2.766  0.2654 -2.5159 -0.0870
 2397TIP3   OH228681   4.232   3.950   0.282  0.2699  0.9227  0.4592
 2397TIP3    H128682   4.229   4.010   0.208  0.4389  0.8026  0.3538
 2397TIP3    H228683   4.323   3.920   0.284  0.6622  2.0969  1.6466
 2398TIP3   OH228684   4.261   0.780  11.430  0.3223 -0.4329 -0.9632
 2398TIP3    H128685   4.346   0.773  11.386  0.5549 -0.7849 -0.4597
 2398TIP3    H228686   4.260   0.869  11.465  0.3895 -0.3547 -1.1562
 2399TIP3   OH228687   1.169   5.360   0.029  0.1686  0.4896 -0.2540
 2399TIP3    H128688   1.169   5.286   0.090 -0.6163 -0.6252 -1.5298
 2399TIP3    H228689   1.226   5.332  -0.042  0.2306  1.3170 -0.5345
 2400TIP3   OH228690   3.404   5.308  16.668  0.4598  0.0573  0.0007
 2400TIP3    H128691   3.315   5.287  16.640  1.5259 -3.6940 -1.1683
 2400TIP3    H228692   3.402   5.300  16.763 -0.4234 -0.0606 -0.0217
 2401TIP3   OH228693   6.662   1.247   5.510 -0.1514  0.1461 -0.0109
 2401TIP3    H128694   6.614   1.182   5.458 -1.0673  0.6130  0.2307
 2401TIP3    H228695   6.675   1.205   5.594 -0.6462  0.2261  0.1091
 2402TIP3   OH228696   4.771   6.435   0.894 -0.0213 -0.2183  0.2821
 2402TIP3    H128697   4.820   6.360   0.861 -0.4922 -0.2965 -0.2597
 2402TIP3    H228698   4.730   6.403   0.974 -0.5473 -0.6697 -0.1615
 2403TIP3   OH228699   0.242   0.960   6.819 -0.1868 -0.4165 -0.0348
 2403TIP3    H128700   0.209   1.049   6.834  1.4022  0.0082  1.2543
 2403TIP3    H228701   0.226   0.944   6.726 -2.3395  0.4054  0.1328
 2404TIP3   OH228702   5.484   3.569  13.299 -0.5193  1.1691  0.1225
 2404TIP3    H128703   5.430   3.644  13.273  0.0593  1.7050  0.4483
 2404TIP3    H228704   5.540   3.551  13.223 -2.4906 -0.6735 -1.0111
 2405TIP3   OH228705   2.163   6.653  11.748  0.5097 -0.0377  0.0636
 2405TIP3    H128706   2.123   6.640  11.662 -3.3611  1.5102  1.4405
 2405TIP3    H228707   2.187   6.745  11.750  0.0023  0.0873  0.8242
 2406TIP3   OH228708   4.126   0.531  16.865 -0.2525 -0.2099  0.4305
 2406TIP3    H128709   4.184   0.608  16.871  0.8871 -1.0304  0.1852
 2406TIP3    H228710   4.047   0.564  16.823  0.5594  0.6547 -0.4628
 2407TIP3   OH228711   5.255   4.214  10.450  0.3759 -0.0958  0.1947
 2407TIP3    H128712   5.224   4.189  10.537  0.3421  0.0534  0.2256
 2407TIP3    H228713   5.348   4.191  10.450  0.3868 -0.0509  0.2863
 2408TIP3   OH228714   4.011   6.764   3.602  0.6599 -0.1931  0.5514
 2408TIP3    H128715   3.948   6.693   3.591 -0.7849  0.8486  1.7643
 2408TIP3    H228716   4.056   6.770   3.517 -0.1424 -1.6316  0.0000
 2409TIP3   OH228717   6.764   3.168  13.621 -0.8458 -0.3359 -0.4701
 2409TIP3    H128718   6.748   3.116  13.543 -1.3537  0.8907 -1.2177
 2409TIP3    H228719   6.701   3.240  13.616  0.7519  1.1633 -0.2418
 2410TIP3   OH228720   3.547   2.429   2.425 -0.5503 -0.0111  0.1110
 2410TIP3    H128721   3.475   2.386   2.380 -0.7105 -0.3546  0.6821
 2410TIP3    H228722   3.508   2.460   2.507 -0.0607 -0.1613  0.4051
 2411TIP3   OH228723   4.492   2.434  12.567 -0.2921  0.2766 -0.0620
 2411TIP3    H128724   4.432   2.439  12.493  1.3220  0.3582 -1.4349
 2411TIP3    H228725   4.521   2.343  12.569 -0.3649  0.2613  0.5068
 2412TIP3   OH228726   5.640   4.105   5.914 -0.2301 -0.5531 -0.9436
 2412TIP3    H128727   5.655   4.195   5.943  3.3103 -0.1588 -3.4164
 2412TIP3    H228728   5.690   4.052   5.976 -1.9718 -0.9096  0.2535
 2413TIP3   OH228729   5.227   0.082  16.770  0.1530  0.3057  0.1489
 2413TIP3    H128730   5.173   0.059  16.846  0.3865 -0.9009 -0.0340
 2413TIP3    H228731   5.174   0.145  16.722  0.0985  1.2781  1.4244
 2414TIP3   OH228732   2.051   0.851  11.995  0.3361 -0.3122 -0.2498
 2414TIP3    H128733   2.055   0.760  12.026 -0.0570 -0.3236 -0.2261
 2414TIP3    H228734   2.093   0.848  11.908  1.4061 -0.2848  0.2455
 2415TIP3   OH228735   6.481   3.944  11.103  0.2179  0.2558  0.4430
 2415TIP3    H128736   6.496   3.867  11.048 -0.7900  0.2868  0.1037
 2415TIP3    H228737   6.448   4.011  11.043 -1.0240  0.2440  1.0883
 2416TIP3   OH228738   0.293   5.396   6.311  0.2223  0.6191 -0.4488
 2416TIP3    H128739   0.221   5.366   6.366  0.1801 -0.4388 -1.0446
 2416TIP3    H228740   0.372   5.367   6.357  0.3616  2.7098  0.7518
 2417TIP3   OH228741   3.458   5.178  12.355  0.1160 -0.0926 -0.5447
 2417TIP3    H128742   3.504   5.101  12.320  0.2626 -0.5309  0.5697
 2417TIP3    H228743   3.477   5.177  12.449 -2.6386 -0.6264  0.1017
 2418TIP3   OH228744   3.001   6.016   4.489 -0.3716 -0.0162  0.2492
 2418TIP3    H128745   2.995   6.065   4.571  1.3983 -0.3484  0.6107
 2418TIP3    H228746   3.071   5.952   4.504  0.4816  0.3833 -1.7619
 2419TIP3   OH228747   3.027   3.233  15.086  0.1058  0.0254  0.4419
 2419TIP3    H128748   3.005   3.260  14.997  0.8970 -2.3436 -0.5441
 2419TIP3    H228749   2.982   3.150  15.097 -1.6870  1.1934  3.0798
 2420TIP3   OH228750   1.269   3.776  13.685 -0.0073 -0.2005 -0.5220
 2420TIP3    H128751   1.267   3.842  13.755 -0.6445  0.0009 -0.7240
 2420TIP3    H228752   1.229   3.820  13.610 -1.3684 -1.1391 -0.3747
 2421TIP3   OH228753   1.004   4.069   0.876 -0.4571  0.1470 -0.5490
 2421TIP3    H128754   1.049   3.985   0.879 -0.0184  0.3917 -0.3727
 2421TIP3    H228755   0.953   4.072   0.956  1.7776  1.3129  0.9205
 2422TIP3   OH228756   2.690   0.299   2.374  0.2399 -0.1723  0.1677
 2422TIP3    H128757   2.631   0.299   2.448 -1.3960  3.0133 -0.9638
 2422TIP3    H228758   2.777   0.315   2.412 -0.3047 -0.2803  1.4961
 2423TIP3   OH228759   3.157   0.739  16.418 -0.4599  0.3450 -0.0170
 2423TIP3    H128760   3.227   0.676  16.403 -0.8206  0.3588 -2.1385
 2423TIP3    H228761   3.200   0.825  16.410 -0.7379  0.3636 -1.9173
 2424TIP3   OH228762   3.969   0.213   0.688  0.1516  0.2722 -0.5508
 2424TIP3    H128763   4.054   0.243   0.719 -0.2663  0.1885  0.7478
 2424TIP3    H228764   3.989   0.145   0.625  1.0522 -0.0457  0.0621
 2425TIP3   OH228765   3.915   6.504  10.551  0.4187 -0.3624 -0.0396
 2425TIP3    H128766   3.928   6.481  10.459  0.3533  0.1399 -0.1791
 2425TIP3    H228767   3.980   6.572  10.568  1.9894 -2.0168  0.9243
 2426TIP3   OH228768   0.829   4.477  11.111  0.4993 -0.2476 -0.3259
 2426TIP3    H128769   0.771   4.401  11.099 -0.5768  0.8171 -2.4527
 2426TIP3    H228770   0.889   4.473  11.036 -0.5862  1.7994 -1.3841
 2427TIP3   OH228771   1.457   1.638   5.776  0.3891  0.2479  0.3759
 2427TIP3    H128772   1.368   1.668   5.759 -0.4138 -2.0059  0.3130
 2427TIP3    H228773   1.447   1.548   5.809  2.5983  0.1682  1.0117
 2428TIP3   OH228774   6.680   5.230  12.665 -0.4219  0.5192  0.0951
 2428TIP3    H128775   6.602   5.273  12.629 -0.5572 -0.0377 -0.2836
 2428TIP3    H228776   6.670   5.239  12.760 -0.5220  1.1853  0.0313
 2429TIP3   OH228777   2.513   6.141   0.256  0.4281  0.7795 -0.4301
 2429TIP3    H128778   2.435   6.099   0.219 -1.3896  2.8108  0.8354
 2429TIP3    H228779   2.553   6.073   0.310 -0.3592 -0.3709 -1.2332
 2430TIP3   OH228780   3.730   5.777   1.841 -0.0164  0.2924  0.6994
 2430TIP3    H128781   3.643   5.806   1.813  0.5612  0.6514 -0.8762
 2430TIP3    H228782   3.771   5.856   1.878  0.5767  0.8982 -1.0936
 2431TIP3   OH228783   4.947   5.269   4.379 -0.2614 -0.0699  0.2217
 2431TIP3    H128784   4.925   5.320   4.457 -1.8070  0.3674 -0.4640
 2431TIP3    H228785   4.877   5.289   4.316  0.8279 -0.5629 -1.2122
 2432TIP3   OH228786   4.347   2.322   1.516  0.1538 -0.2650  0.3310
 2432TIP3    H128787   4.393   2.238   1.517 -0.1434 -0.6128 -3.3191
 2432TIP3    H228788   4.258   2.299   1.488  0.1746  1.2538 -1.1130
 2433TIP3   OH228789   5.975   4.124  13.422  0.1406  0.5026 -0.3850
 2433TIP3    H128790   6.017   4.210  13.419  1.4441 -0.1254 -2.1978
 2433TIP3    H228791   5.929   4.118  13.338  0.0167 -0.5541 -0.2480
 2434TIP3   OH228792   1.323   6.404  13.121 -0.2914  0.0797 -0.2018
 2434TIP3    H128793   1.354   6.314  13.133  0.6678  0.5157  0.7857
 2434TIP3    H228794   1.312   6.413  13.026 -1.1231 -1.2899 -0.2650
 2435TIP3   OH228795   6.491   2.467  12.353 -0.5410  0.1477 -0.5338
 2435TIP3    H128796   6.479   2.373  12.340  0.8046 -0.4502  1.9396
 2435TIP3    H228797   6.405   2.505  12.336 -1.0953 -1.4933 -1.6484
 2436TIP3   OH228798   4.899   2.077   0.188 -0.1580  0.5381  0.2144
 2436TIP3    H128799   4.869   2.056   0.099 -1.0334  1.9107  0.1632
 2436TIP3    H228800   4.845   2.022   0.245  0.4955 -0.4449 -0.0847
 2437TIP3   OH228801   6.501   3.575   6.590 -0.1155  0.3448  0.2908
 2437TIP3    H128802   6.422   3.627   6.599 -0.5705 -0.5843  2.1704
 2437TIP3    H228803   6.487   3.500   6.648  1.1056 -1.1394 -1.2407
 2438TIP3   OH228804   3.509   5.609  13.942 -0.7127 -0.2732  0.9402
 2438TIP3    H128805   3.528   5.645  13.855 -2.0338 -2.0502 -0.1582
 2438TIP3    H228806   3.530   5.680  14.003  0.8771  0.8103 -0.7592
 2439TIP3   OH228807   5.127   2.969  12.034  0.5616 -0.0526 -0.1648
 2439TIP3    H128808   5.108   2.878  12.058  2.2827 -0.3893  0.1017
 2439TIP3    H228809   5.111   3.019  12.115 -1.9996  0.1971 -0.7479
 2440TIP3   OH228810   4.922   0.412   3.569  0.4752  0.3745  0.4684
 2440TIP3    H128811   4.851   0.476   3.571  0.6690  0.6250  3.1872
 2440TIP3    H228812   4.889   0.340   3.515 -0.6859  1.7048 -0.6525
 2441TIP3   OH228813   4.258   4.459   5.620 -0.1571  0.5009  0.4013
 2441TIP3    H128814   4.288   4.469   5.711 -2.0884 -1.3604  1.3479
 2441TIP3    H228815   4.227   4.368   5.615  0.6637  0.2992 -2.4041
 2442TIP3   OH228816   4.315   2.328  12.209  0.5019 -0.1916  0.4004
 2442TIP3    H128817   4.308   2.283  12.293  1.2077  1.0407  1.1582
 2442TIP3    H228818   4.377   2.276  12.159  0.4859 -0.6446  0.8433
 2443TIP3   OH228819   3.779   6.420   2.124  0.0043 -0.7075  0.1975
 2443TIP3    H128820   3.823   6.414   2.209 -0.0572 -0.1491  0.2728
 2443TIP3    H228821   3.731   6.338   2.116  0.1944 -0.8600  0.6005
 2444TIP3   OH228822   1.335   4.103  16.429  0.6414 -0.4306 -0.4342
 2444TIP3    H128823   1.398   4.086  16.499  0.7323 -2.2129 -0.9057
 2444TIP3    H228824   1.388   4.136  16.356  0.6746  0.4515 -0.0295
 2445TIP3   OH228825   0.376   1.305  12.147 -0.2941  0.1538 -0.0508
 2445TIP3    H128826   0.371   1.382  12.090 -0.0027  0.3341  0.1677
 2445TIP3    H228827   0.364   1.231  12.088  0.5899  0.3090 -0.4467
 2446TIP3   OH228828   6.363   1.249   1.236 -0.0204 -0.5106  0.1090
 2446TIP3    H128829   6.343   1.246   1.142  0.6391  1.4590 -0.1232
 2446TIP3    H228830   6.458   1.240   1.241 -0.1582 -1.9078  0.7056
 2447TIP3   OH228831   6.610   0.279   1.504  0.2990 -0.0343  0.0748
 2447TIP3    H128832   6.691   0.298   1.551  2.7402 -0.2984 -3.5936
 2447TIP3    H228833   6.596   0.185   1.517 -0.7878  0.4040  2.5225
 2448TIP3   OH228834   0.153   3.073   3.198  0.5279 -0.1120  0.0462
 2448TIP3    H128835   0.191   3.156   3.228  0.9940 -0.3441  0.0894
 2448TIP3    H228836   0.075   3.100   3.149 -1.4350  0.2330  3.0810
 2449TIP3   OH228837   3.165   5.539   1.290 -0.4684  0.2973 -0.0187
 2449TIP3    H128838   3.144   5.586   1.371 -0.1196  1.4989 -0.6048
 2449TIP3    H228839   3.165   5.447   1.316  0.6845  0.6894  1.6090
 2450TIP3   OH228840   1.290   3.887   4.943  0.6198  0.0368 -0.1155
 2450TIP3    H128841   1.212   3.836   4.924  0.8088 -0.7600  1.1219
 2450TIP3    H228842   1.361   3.822   4.947  0.8051  0.2872  1.8365
 2451TIP3   OH228843   0.465   2.267  14.527  0.2659  0.6138 -0.5204
 2451TIP3    H128844   0.487   2.275  14.434 -1.5125  0.3076 -1.0103
 2451TIP3    H228845   0.425   2.181  14.535 -2.0548  1.6285 -0.0686
 2452TIP3   OH228846   0.864   6.123   4.127  0.1962 -0.1282 -0.3253
 2452TIP3    H128847   0.791   6.164   4.081  1.4674 -0.9995 -3.3464
 2452TIP3    H228848   0.880   6.181   4.202 -3.0389  0.4816  0.0461
 2453TIP3   OH228849   1.409   1.141  16.682 -0.5281 -0.1636 -0.2540
 2453TIP3    H128850   1.366   1.138  16.767  0.0393  0.2382  0.0564
 2453TIP3    H228851   1.502   1.127  16.701 -0.4945 -0.9043 -0.8965
 2454TIP3   OH228852   1.594   3.017  10.863  0.3008  0.0968 -0.0911
 2454TIP3    H128853   1.521   2.955  10.866  1.9927 -2.0754  3.7338
 2454TIP3    H228854   1.661   2.972  10.812 -0.0743  0.9501 -1.3734
 2455TIP3   OH228855   3.167   1.983   5.005  0.2603  0.3114  0.0800
 2455TIP3    H128856   3.136   2.049   5.066 -1.7577 -1.0534  0.6011
 2455TIP3    H228857   3.094   1.922   4.995  2.2966 -2.3795  0.3439
 2456TIP3   OH228858   1.424   2.105  16.186  0.0631  0.2280 -0.0439
 2456TIP3    H128859   1.366   2.042  16.143 -1.3855  0.8364  0.9679
 2456TIP3    H228860   1.449   2.063  16.268 -1.1406  1.0320  0.7724
 2457TIP3   OH228861   1.717   1.936   3.968 -0.5365  0.1830  0.4439
 2457TIP3    H128862   1.678   1.979   3.891  0.8345 -1.7458 -1.4530
 2457TIP3    H228863   1.642   1.912   4.022 -1.4694  2.9508  0.5472
 2458TIP3   OH228864   3.871   4.051  10.655 -0.3159 -0.2790  0.1265
 2458TIP3    H128865   3.791   4.023  10.699 -3.1993  0.4234 -4.0586
 2458TIP3    H228866   3.862   4.146  10.646  1.0655 -0.1663 -0.3608
 2459TIP3   OH228867   0.437   4.034   5.672 -0.0063 -0.1252 -0.4335
 2459TIP3    H128868   0.525   4.069   5.661  0.7722 -1.6309  0.6059
 2459TIP3    H228869   0.405   4.019   5.583  0.8835  0.1928 -0.8143
 2460TIP3   OH228870   3.597   4.647   2.638 -0.4708 -0.1149  0.3691
 2460TIP3    H128871   3.571   4.681   2.724  0.6822 -0.1627  0.7556
 2460TIP3    H228872   3.549   4.564   2.629 -0.0488 -0.4670  1.2855
 2461TIP3   OH228873   2.242   5.599  15.224 -0.1035 -0.0054  0.7767
 2461TIP3    H128874   2.237   5.621  15.131 -0.4795 -1.9502  0.2938
 2461TIP3    H228875   2.336   5.593  15.241  0.0216  1.9896  0.9747
 2462TIP3   OH228876   0.414   2.526  10.430  0.7800 -0.1157  0.5551
 2462TIP3    H128877   0.497   2.503  10.472  0.4503  0.9620  1.8569
 2462TIP3    H228878   0.422   2.619  10.410  0.1320 -0.1597  0.0613
 2463TIP3   OH228879   4.954   6.769   1.878 -0.0483  0.1883  0.8166
 2463TIP3    H128880   5.013   6.696   1.858  0.1458  0.7810 -0.9608
 2463TIP3    H228881   4.866   6.730   1.876 -0.0484  0.1725 -1.3857
 2464TIP3   OH228882   6.704   0.372  16.661  0.0328  0.4576 -0.4416
 2464TIP3    H128883   6.623   0.422  16.663 -0.0805  0.2583  0.8780
 2464TIP3    H228884   6.702   0.325  16.578 -0.7746  1.1416 -0.8192
 2465TIP3   OH228885   4.874   4.072  12.774 -0.1545 -0.0673  0.3492
 2465TIP3    H128886   4.826   4.044  12.852 -2.1463  0.8818 -0.4595
 2465TIP3    H228887   4.811   4.063  12.703  0.6498  1.8526 -0.6823
 2466TIP3   OH228888   5.487   5.410   0.537  0.3636 -0.2848 -0.3072
 2466TIP3    H128889   5.573   5.452   0.531  0.9874 -1.3871  0.4971
 2466TIP3    H228890   5.494   5.334   0.480  0.5991 -1.4450  1.2238
 2467TIP3   OH228891   5.026   6.577   3.170 -0.3850 -0.1604 -0.3240
 2467TIP3    H128892   5.072   6.505   3.213  0.2054  0.3850 -0.0207
 2467TIP3    H228893   5.040   6.652   3.228 -0.2964  0.3899 -1.0472
 2468TIP3   OH228894   1.959   1.863  13.139  0.2941  0.2145  0.1928
 2468TIP3    H128895   1.998   1.883  13.053 -0.2966 -0.4153 -0.2269
 2468TIP3    H228896   1.935   1.949  13.174  0.9142  0.5114 -0.0854
 2469TIP3   OH228897   4.549   2.583  12.004  0.5253 -0.2364 -0.2313
 2469TIP3    H128898   4.619   2.603  12.065  0.3308 -0.0656 -0.0635
 2469TIP3    H228899   4.581   2.614  11.919  0.5099  0.1567 -0.0935
 2470TIP3   OH228900   3.234   0.955   5.203 -0.2693  0.0249 -0.4197
 2470TIP3    H128901   3.268   0.985   5.118 -0.0085  0.0167 -0.3172
 2470TIP3    H228902   3.197   1.033   5.243  1.3171  0.4491  0.2944
 2471TIP3   OH228903   6.036   0.797   3.511  0.4472 -0.1390 -0.0261
 2471TIP3    H128904   6.050   0.816   3.418  1.3322 -2.4233 -0.4340
 2471TIP3    H228905   5.942   0.780   3.518  0.2351  0.8758 -0.3285
 2472TIP3   OH228906   0.635   6.167  17.175  0.1989  0.1749 -0.2913
 2472TIP3    H128907   0.645   6.198  17.265 -1.8925 -1.7945  0.7257
 2472TIP3    H228908   0.648   6.073  17.180  2.6504  0.2463 -2.6086
 2473TIP3   OH228909   6.038   2.648   2.787  0.6010 -0.0351 -0.3132
 2473TIP3    H128910   6.021   2.742   2.784 -0.7996 -0.2774 -0.4692
 2473TIP3    H228911   6.133   2.642   2.797  0.9104  1.3657 -1.8845
 2474TIP3   OH228912   2.985   1.202  12.111 -0.3103  0.3365  0.9648
 2474TIP3    H128913   2.998   1.134  12.177  0.1911  0.8050  1.3553
 2474TIP3    H228914   2.927   1.266  12.154 -0.0827  0.5810  0.9103
 2475TIP3   OH228915   3.107   2.823   2.842 -0.1347 -0.7446 -0.0256
 2475TIP3    H128916   3.182   2.860   2.796 -1.2785  0.1258 -1.2894
 2475TIP3    H228917   3.109   2.863   2.929  1.6730 -1.8876  0.5093
 2476TIP3   OH228918   0.382   0.661   4.101  0.2923 -0.2846  0.7011
 2476TIP3    H128919   0.440   0.590   4.073  1.1941  0.6832  0.0403
 2476TIP3    H228920   0.442   0.729   4.133 -0.4939  0.5494  0.4421
 2477TIP3   OH228921   5.487   6.517   5.170  0.2665 -0.5287 -0.0224
 2477TIP3    H128922   5.420   6.573   5.132  0.3161  1.2898  2.3415
 2477TIP3    H228923   5.438   6.443   5.207 -0.2207 -0.1279  0.1382
 2478TIP3   OH228924   3.351   0.817   3.326  0.2353  0.0944  0.1640
 2478TIP3    H128925   3.309   0.859   3.251 -0.0608 -0.0117  0.2666
 2478TIP3    H228926   3.288   0.750   3.354 -0.2283  0.9717  1.2830
 2479TIP3   OH228927   2.893   1.568  11.196 -0.0574 -0.0024 -0.1830
 2479TIP3    H128928   2.901   1.536  11.106  0.3192  1.2715 -0.6223
 2479TIP3    H228929   2.942   1.505  11.248 -0.2355 -0.7258 -0.8786
 2480TIP3   OH228930   3.202   2.520   0.733 -0.0207  0.1111  0.7428
 2480TIP3    H128931   3.225   2.428   0.719 -1.3097 -0.2179  0.6727
 2480TIP3    H228932   3.107   2.520   0.737 -0.1262  1.6598 -0.7961
 2481TIP3   OH228933   5.194   4.516   2.607  0.0408  0.0505 -0.3964
 2481TIP3    H128934   5.233   4.572   2.675  0.8746 -0.0945 -0.7396
 2481TIP3    H228935   5.259   4.448   2.592 -1.4388 -1.7181  0.8292
 2482TIP3   OH228936   4.248   0.967  13.691  0.4998  0.7943  0.1474
 2482TIP3    H128937   4.301   0.887  13.684 -0.9280 -0.1856  0.2184
 2482TIP3    H228938   4.296   1.022  13.753  0.9266 -0.4958  1.0112
 2483TIP3   OH228939   0.395   0.720  15.732 -0.2617  0.2583  0.7106
 2483TIP3    H128940   0.410   0.629  15.707 -0.4332  0.1874  0.8616
 2483TIP3    H228941   0.419   0.770  15.654  1.1134  0.1847  1.0675
 2484TIP3   OH228942   4.688   2.966  15.336 -0.4241  0.0760  0.5181
 2484TIP3    H128943   4.777   2.931  15.327 -0.7434 -0.7446  0.5035
 2484TIP3    H228944   4.699   3.060  15.323  0.2460 -0.1559 -0.8668
 2485TIP3   OH228945   3.936   5.061  13.080  0.3493  0.0833 -0.0538
 2485TIP3    H128946   3.913   5.077  13.171  0.5713 -2.8324  0.6160
 2485TIP3    H228947   3.981   4.976  13.081  1.1670  0.3768 -2.7646
 2486TIP3   OH228948   2.938   2.535   0.817  0.1679 -0.3442  0.0925
 2486TIP3    H128949   2.908   2.579   0.738  0.3023 -0.0351  0.2145
 2486TIP3    H228950   2.862   2.534   0.875  0.5224  0.9209  0.6160
 2487TIP3   OH228951   6.114   3.888   3.683  0.0204  0.1016  0.5224
 2487TIP3    H128952   6.146   3.977   3.696  0.4442  0.1590 -0.8526
 2487TIP3    H228953   6.135   3.843   3.765  1.7148  0.6992  0.4447
 2488TIP3   OH228954   0.509   1.860   6.178  0.1883 -0.3515 -1.0919
 2488TIP3    H128955   0.429   1.809   6.165 -0.1778 -0.1120  0.1009
 2488TIP3    H228956   0.479   1.951   6.187  0.7839  0.0277 -2.5935
 2489TIP3   OH228957   5.602   5.862   3.318 -0.0657  0.1471 -0.3535
 2489TIP3    H128958   5.656   5.930   3.357  3.4615 -1.4085 -2.0272
 2489TIP3    H228959   5.604   5.791   3.383 -0.4552  0.2372 -0.2435
 2490TIP3   OH228960   1.551   6.092  16.318  0.9951 -0.1762  0.3518
 2490TIP3    H128961   1.631   6.073  16.367  1.3048 -1.9880 -0.7490
 2490TIP3    H228962   1.561   6.043  16.236 -0.0404  1.7566 -1.0174
 2491TIP3   OH228963   5.996   5.908  13.112 -0.8904  0.0174  1.2965
 2491TIP3    H128964   5.917   5.868  13.075 -0.6048 -0.0341  0.7362
 2491TIP3    H228965   6.063   5.840  13.107 -0.1956  0.7639 -0.3731
 2492TIP3   OH228966   5.721   6.386   0.304  0.1695  0.1931  0.0312
 2492TIP3    H128967   5.774   6.414   0.230 -1.0127  1.3128 -0.4269
 2492TIP3    H228968   5.729   6.458   0.367 -0.8521  0.4118 -0.0795
 2493TIP3   OH228969   3.833   0.289   1.985  0.2413 -0.5964 -0.0091
 2493TIP3    H128970   3.885   0.310   1.908 -1.1152  0.6590 -0.6204
 2493TIP3    H228971   3.805   0.374   2.019  0.1044 -1.1656  1.3837
 2494TIP3   OH228972   5.037   1.817  12.798 -0.3223 -0.3429  0.1778
 2494TIP3    H128973   5.103   1.813  12.868 -0.5385 -1.2378  0.3398
 2494TIP3    H228974   5.088   1.825  12.717 -0.0252 -0.5735  0.3397
 2495TIP3   OH228975   1.021   6.436   3.898  0.3848  0.0919 -0.4114
 2495TIP3    H128976   1.041   6.355   3.943  2.3289  0.2540 -0.9132
 2495TIP3    H228977   1.098   6.491   3.910  0.0474  0.9963 -1.9869
 2496TIP3   OH228978   6.390   5.820   0.409 -0.5555 -0.0625 -0.3870
 2496TIP3    H128979   6.394   5.841   0.502  0.4986 -1.2667 -0.1391
 2496TIP3    H228980   6.323   5.878   0.374 -1.1261  0.2400  1.1640
 2497TIP3   OH228981   1.634   0.850  15.049 -0.2785  0.1397 -0.0769
 2497TIP3    H128982   1.644   0.944  15.038  0.0867  0.2778  1.2367
 2497TIP3    H228983   1.682   0.830  15.130 -0.4747 -1.1446 -0.2563
 2498TIP3   OH228984   2.037   3.784   2.820  0.0043  0.2764  0.6819
 2498TIP3    H128985   2.125   3.787   2.857  0.9391 -0.5063 -1.3291
 2498TIP3    H228986   2.035   3.854   2.755 -0.2651 -0.7564 -0.4601
 2499TIP3   OH228987   4.789   4.646   2.259 -0.0966 -0.5285  0.0133
 2499TIP3    H128988   4.835   4.645   2.343  0.6459  2.0114 -0.2598
 2499TIP3    H228989   4.697   4.662   2.283 -0.1966 -1.6345  0.3999
 2500TIP3   OH228990   6.133   6.173   5.857  0.2079  0.2074  0.1614
 2500TIP3    H128991   6.152   6.264   5.832 -2.7536  0.6144 -0.9581
 2500TIP3    H228992   6.124   6.176   5.952 -0.0684  1.1323  0.1134
 2501TIP3   OH228993   5.451   3.965   5.468  0.3402 -0.1591 -0.7327
 2501TIP3    H128994   5.475   4.002   5.553  3.5176  1.8275 -2.3046
 2501TIP3    H228995   5.490   3.877   5.468  2.4511  0.7203 -0.9200
 2502TIP3   OH228996   6.694   4.196   3.137 -0.1149 -0.2552  0.4668
 2502TIP3    H128997   6.735   4.278   3.162 -1.7392 -0.0615  2.8041
 2502TIP3    H228998   6.760   4.129   3.156 -0.7051  0.0221  4.2496
 2503TIP3   OH228999   5.896   3.988  16.340  0.3282 -0.5891  0.2418
 2503TIP3    H129000   5.935   3.990  16.253  0.4387 -1.8592  0.2390
 2503TIP3    H229001   5.965   4.023  16.397  1.1580 -1.9216  0.1105
 2504TIP3   OH229002   4.655   0.364   5.625 -0.7236 -0.3050  0.4312
 2504TIP3    H129003   4.727   0.423   5.648 -0.0413 -0.2758 -1.5729
 2504TIP3    H229004   4.691   0.277   5.637 -0.5970 -0.2965  0.1025
 2505TIP3   OH229005   0.273   1.690   1.579 -0.5404  0.4476 -0.0057
 2505TIP3    H129006   0.183   1.721   1.567 -0.5832  0.5988  0.6588
 2505TIP3    H229007   0.267   1.630   1.654 -0.6256 -1.8367 -1.6981
 2506TIP3   OH229008   5.060   5.232   5.672 -0.1443  0.1848  0.2784
 2506TIP3    H129009   5.093   5.235   5.762  1.1846 -0.2953 -0.1618
 2506TIP3    H229010   5.068   5.323   5.642  0.8350  0.0814  0.1810
 2507TIP3   OH229011   1.035   2.207  15.960  0.2401  0.3162 -0.0601
 2507TIP3    H129012   0.989   2.176  15.882  0.1381 -1.2746  0.6061
 2507TIP3    H229013   0.966   2.234  16.020  0.2132 -0.8078  0.4243
 2508TIP3   OH229014   0.684   1.331  14.816 -0.6385  0.1649  0.0401
 2508TIP3    H129015   0.674   1.256  14.758 -2.6861 -0.4357  1.0523
 2508TIP3    H229016   0.595   1.361  14.832  0.0121  1.6369  1.1690
 2509TIP3   OH229017   0.762   5.687   4.942 -0.2036 -0.5751  0.4506
 2509TIP3    H129018   0.675   5.721   4.923 -0.3099 -1.0912 -0.0032
 2509TIP3    H229019   0.813   5.707   4.863 -0.5005 -2.2413 -0.1925
 2510TIP3   OH229020   5.171   4.599  16.877  0.2517 -0.1895 -0.3565
 2510TIP3    H129021   5.149   4.692  16.877  2.7434  0.5607  1.7872
 2510TIP3    H229022   5.266   4.597  16.894  0.8338 -3.0993 -2.9640
 2511TIP3   OH229023   6.227   4.277  12.913 -0.0995  0.3805  0.0138
 2511TIP3    H129024   6.188   4.224  12.843  1.3547 -0.5130 -0.1581
 2511TIP3    H229025   6.250   4.360  12.870 -0.9862  0.5841 -0.0819
 2512TIP3   OH229026   5.299   0.530   0.214 -0.5274  0.0301 -0.4152
 2512TIP3    H129027   5.388   0.527   0.179 -0.4462  1.8435 -0.4644
 2512TIP3    H229028   5.243   0.521   0.138 -0.3462  1.9295 -0.8409
 2513TIP3   OH229029   2.716   5.655  11.789  0.0162  0.0989 -0.1447
 2513TIP3    H129030   2.736   5.578  11.736  0.1041 -1.0443  1.4859
 2513TIP3    H229031   2.796   5.707  11.787 -0.1077  0.2814 -1.4164
 2514TIP3   OH229032   4.352   4.455  17.047 -0.3797  0.3637  0.5548
 2514TIP3    H129033   4.285   4.476  17.111 -0.9839  0.1960  0.0002
 2514TIP3    H229034   4.405   4.534  17.039 -1.3008  0.9494  0.0654
 2515TIP3   OH229035   0.790   4.410   2.627  0.4405  0.1257 -0.6508
 2515TIP3    H129036   0.837   4.380   2.704  2.4028  2.2608 -0.8849
 2515TIP3    H229037   0.818   4.501   2.616 -0.6113  0.2335 -3.2434
 2516TIP3   OH229038   6.705   0.410   5.876 -0.1735  0.0633 -0.7029
 2516TIP3    H129039   6.788   0.437   5.917 -0.1232  1.2010 -1.5117
 2516TIP3    H229040   6.721   0.321   5.845  0.1781 -0.3698  0.6494
 2517TIP3   OH229041   6.421   3.863   5.318  0.3615  0.5904  0.0285
 2517TIP3    H129042   6.377   3.920   5.380 -0.6056  0.1549 -0.2343
 2517TIP3    H229043   6.416   3.910   5.234 -0.9118 -0.0693 -0.3026
 2518TIP3   OH229044   2.939   3.870   2.139 -0.3247 -0.2045 -0.3435
 2518TIP3    H129045   2.948   3.915   2.223  2.4536 -1.9973  0.4442
 2518TIP3    H229046   2.905   3.937   2.080  0.9370  2.1165  1.3866
 2519TIP3   OH229047   0.200   1.053   2.132  0.4768  0.1997  0.0034
 2519TIP3    H129048   0.141   1.077   2.061  0.9226  1.9642  0.1691
 2519TIP3    H229049   0.186   0.959   2.145 -0.8680  0.1943 -1.2352
 2520TIP3   OH229050   1.610   4.149  11.980 -0.2229 -0.1368 -0.5918
 2520TIP3    H129051   1.660   4.106  12.049  0.3282 -0.2589 -1.0500
 2520TIP3    H229052   1.606   4.083  11.910  0.7129  0.5654 -1.3386
 2521TIP3   OH229053   2.980   2.738  11.080  1.0574  0.1679 -0.0614
 2521TIP3    H129054   2.923   2.790  11.136 -0.7269 -1.3857 -0.3165
 2521TIP3    H229055   2.952   2.647  11.095  2.7543 -0.5677 -1.0204
 2522TIP3   OH229056   0.979   5.872  13.366  0.1320 -0.7129 -0.0849
 2522TIP3    H129057   0.992   5.950  13.312  2.0698 -1.3978 -0.6781
 2522TIP3    H229058   0.994   5.902  13.456 -2.8167  0.3656  0.1732
 2523TIP3   OH229059   2.242   4.375   1.195  0.4125 -0.1431  0.3235
 2523TIP3    H129060   2.189   4.437   1.245 -0.0465  0.2038 -0.5592
 2523TIP3    H229061   2.187   4.297   1.188  0.1325  0.1075 -0.3341
 2524TIP3   OH229062   4.300   6.185  14.121  0.9209  0.5525 -0.3203
 2524TIP3    H129063   4.328   6.115  14.180  0.0697  0.4019 -0.0792
 2524TIP3    H229064   4.229   6.229  14.168  0.2522  0.4555 -1.2035
 2525TIP3   OH229065   4.543   0.765  11.762 -0.3381  0.0737 -0.3280
 2525TIP3    H129066   4.515   0.704  11.694 -0.9016 -1.4090  1.1478
 2525TIP3    H229067   4.521   0.721  11.844 -0.2868  2.0644  0.8300
 2526TIP3   OH229068   3.829   0.420   6.132  0.1722 -0.2248  0.6853
 2526TIP3    H129069   3.804   0.512   6.125 -0.2073 -0.3989 -0.4309
 2526TIP3    H229070   3.908   0.420   6.186  2.1486  1.1198 -1.9825
 2527TIP3   OH229071   2.026   2.939   6.725  0.4739  0.3398 -0.3572
 2527TIP3    H129072   1.942   2.976   6.699  0.0591  0.7081  1.3986
 2527TIP3    H229073   2.083   3.015   6.740 -0.0372  0.3213  2.1148
 2528TIP3   OH229074   6.275   3.589   0.658  0.0668  0.8845 -0.1208
 2528TIP3    H129075   6.242   3.530   0.725  0.8270  3.7762  3.0691
 2528TIP3    H229076   6.368   3.567   0.650 -0.1624  0.1084 -0.7582
 2529TIP3   OH229077   5.773   2.676  16.287 -0.2118 -0.3225 -0.2983
 2529TIP3    H129078   5.817   2.646  16.208  1.1132 -0.0689  0.3163
 2529TIP3    H229079   5.804   2.765  16.300 -1.9820  0.3784 -0.5822
 2530TIP3   OH229080   1.815   2.038   5.047  0.2490  0.1194 -0.4959
 2530TIP3    H129081   1.814   1.968   5.112 -0.0257  0.7274  0.1547
 2530TIP3    H229082   1.785   2.115   5.093 -1.8233  0.1752 -1.7847
 2531TIP3   OH229083   0.238   0.099  13.797 -0.1079  0.4706 -0.0241
 2531TIP3    H129084   0.232   0.089  13.702 -1.3841  0.0181  0.0801
 2531TIP3    H229085   0.147   0.108  13.826  0.3404  2.3973  0.9744
 2532TIP3   OH229086   6.744   4.677   3.610  0.2427  0.6002  0.8677
 2532TIP3    H129087   6.821   4.722   3.575 -0.1630  2.2441  2.0120
 2532TIP3    H229088   6.716   4.620   3.539  2.2521  0.2757  0.2698
 2533TIP3   OH229089   3.168   3.264   1.846 -0.2048  0.2822 -0.0375
 2533TIP3    H129090   3.261   3.281   1.862  0.2412  1.0938 -2.9790
 2533TIP3    H229091   3.166   3.189   1.788 -1.4488 -0.0251  0.3617
 2534TIP3   OH229092   6.613   3.014   1.188 -0.5320  0.2595 -0.0465
 2534TIP3    H129093   6.673   2.949   1.224  1.1282  0.1847 -2.6474
 2534TIP3    H229094   6.670   3.081   1.150 -2.1388  1.3233 -0.7048
 2535TIP3   OH229095   6.596   2.109   1.826 -0.0274  0.0038  0.0500
 2535TIP3    H129096   6.650   2.077   1.899  1.7046 -2.2215 -2.0310
 2535TIP3    H229097   6.652   2.171   1.780 -1.0872  1.3489  0.5156
 2536TIP3   OH229098   0.436   6.523  13.157 -0.0335  0.5709  0.0390
 2536TIP3    H129099   0.513   6.479  13.193  1.2125  1.9276 -0.7911
 2536TIP3    H229100   0.414   6.473  13.078 -0.6288 -0.3927  0.8034
 2537TIP3   OH229101   2.029   2.973  11.425 -0.0779 -0.4282  0.9485
 2537TIP3    H129102   2.075   2.889  11.426 -0.3756 -0.6144  0.0946
 2537TIP3    H229103   1.973   2.968  11.348  2.3277  1.8139 -1.1390
 2538TIP3   OH229104   4.410   0.780  12.397 -0.0076 -0.0443  0.4056
 2538TIP3    H129105   4.318   0.754  12.409 -0.0301  0.5323  1.7292
 2538TIP3    H229106   4.414   0.814  12.308 -0.5240 -2.2411 -0.5332
 2539TIP3   OH229107   1.111   4.984   1.154  0.0905  0.3602 -0.5499
 2539TIP3    H129108   1.173   4.912   1.163 -0.8363 -0.3901  0.0040
 2539TIP3    H229109   1.118   5.031   1.237 -0.2719  0.1104 -0.3747
 2540TIP3   OH229110   6.255   4.988  12.526 -0.3633  0.1641 -0.0842
 2540TIP3    H129111   6.284   4.923  12.461  0.0802  0.8154 -0.5571
 2540TIP3    H229112   6.182   5.033  12.484 -2.2322 -1.5392  1.1498
 2541TIP3   OH229113   6.595   4.913   0.145  0.4756  0.4724 -0.3925
 2541TIP3    H129114   6.589   4.844   0.078 -3.0527  0.9887 -0.8380
 2541TIP3    H229115   6.612   4.993   0.095 -2.0198  0.8354 -0.7984
 2542TIP3   OH229116   2.409   6.703  11.547 -0.0033 -0.0532 -0.1748
 2542TIP3    H129117   2.469   6.713  11.474  1.2569  2.3688  1.1012
 2542TIP3    H229118   2.322   6.712  11.508  0.5349 -0.6820 -1.5992
 2543TIP3   OH229119   6.394   4.320   6.048  0.2100 -0.0238 -0.0121
 2543TIP3    H129120   6.358   4.245   6.095  0.8349 -0.0062  0.5013
 2543TIP3    H229121   6.411   4.287   5.960 -0.2053 -0.2772  0.0008
 2544TIP3   OH229122   1.067   0.298   2.285  0.3298 -0.1176  0.0758
 2544TIP3    H129123   0.987   0.279   2.236 -1.2933  0.8432  2.1908
 2544TIP3    H229124   1.070   0.394   2.291  0.2516 -0.2015  2.1151
 2545TIP3   OH229125   1.789   3.115  14.832 -0.8172 -0.6170  0.1223
 2545TIP3    H129126   1.775   3.098  14.925  1.2623 -3.9286  0.0234
 2545TIP3    H229127   1.762   3.033  14.789 -1.1698  0.6174 -2.1314
 2546TIP3   OH229128   3.081   3.437  12.311 -0.2651 -0.4814 -0.1443
 2546TIP3    H129129   3.157   3.460  12.258  1.1299 -1.6337  1.2610
 2546TIP3    H229130   3.006   3.468  12.261  1.1316  0.8208 -1.5123
 2547TIP3   OH229131   3.851   3.768   5.761  0.4100  0.1232  0.7264
 2547TIP3    H129132   3.878   3.740   5.674  1.1659 -0.5058  1.1567
 2547TIP3    H229133   3.913   3.837   5.784  1.1914 -0.7758  1.3885
 2548TIP3   OH229134   2.685   1.959  15.682  0.0123 -0.0939 -0.1831
 2548TIP3    H129135   2.626   2.018  15.729  1.9845  0.8262  1.3066
 2548TIP3    H229136   2.748   2.017  15.640  0.9666 -1.0882 -0.1684
 2549TIP3   OH229137   2.120   5.275   2.559  0.5072 -0.6991 -0.0475
 2549TIP3    H129138   2.158   5.268   2.472 -0.7786 -0.7147 -0.6339
 2549TIP3    H229139   2.175   5.339   2.604  0.6752 -0.0207 -1.1647
 2550TIP3   OH229140   1.183   5.560   3.238  0.4372 -0.0709 -0.5277
 2550TIP3    H129141   1.091   5.562   3.267  0.2579  1.2106 -1.1305
 2550TIP3    H229142   1.232   5.536   3.317 -0.3192  0.2603  0.0589
 2551TIP3   OH229143   4.877   4.643   5.843 -0.7985 -0.1146 -0.1209
 2551TIP3    H129144   4.799   4.660   5.896 -0.3690  0.0727  0.4675
 2551TIP3    H229145   4.950   4.649   5.905  0.0784  3.3412 -1.2016
 2552TIP3   OH229146   0.063   4.473  15.957 -0.1289 -0.5957  0.2216
 2552TIP3    H129147  -0.017   4.483  15.904 -0.3560 -1.2105  0.4432
 2552TIP3    H229148   0.064   4.381  15.982  1.7872 -1.1556 -1.5875
 2553TIP3   OH229149   0.590   6.184   1.205  0.1310  0.8699  0.3251
 2553TIP3    H129150   0.520   6.157   1.264  0.9239 -1.1845  0.4179
 2553TIP3    H229151   0.564   6.271   1.174 -0.2625  2.1282  3.7580
 2554TIP3   OH229152   5.214   4.617   0.981 -0.1095 -0.2475  0.1915
 2554TIP3    H129153   5.162   4.677   1.035 -1.3186  0.7462 -1.9272
 2554TIP3    H229154   5.277   4.674   0.937  0.1976 -0.8869 -0.2092
 2555TIP3   OH229155   0.404   4.100   3.204 -0.2180 -0.2476  0.6554
 2555TIP3    H129156   0.345   4.077   3.276  0.1407  0.6125  1.2413
 2555TIP3    H229157   0.462   4.024   3.195 -2.4156 -1.8512 -1.0562
 2556TIP3   OH229158   0.424   6.285   0.526  0.1443  0.3234  0.6173
 2556TIP3    H129159   0.504   6.293   0.474  0.3540 -0.8569  0.7465
 2556TIP3    H229160   0.450   6.232   0.602 -0.6310  0.3946  0.9347
 2557TIP3   OH229161   1.437   1.212   3.164 -0.3506 -0.4418  0.0852
 2557TIP3    H129162   1.480   1.161   3.232 -0.4224 -2.0394 -1.0286
 2557TIP3    H229163   1.366   1.156   3.132 -1.6286  1.0942  0.0798
 2558TIP3   OH229164   3.886   5.274   4.011 -0.7977  0.3996 -0.4918
 2558TIP3    H129165   3.795   5.273   3.983 -1.2520  2.7368  0.6639
 2558TIP3    H229166   3.882   5.276   4.107  0.4952 -0.0184 -0.4093
 2559TIP3   OH229167   0.203   4.256  13.566  0.2156  0.1548  0.1273
 2559TIP3    H129168   0.234   4.232  13.479  0.8815  2.4377 -0.3424
 2559TIP3    H229169   0.280   4.245  13.622  0.1726 -0.0060  0.1545
 2560TIP3   OH229170   5.548   5.459   3.093  0.3730  0.2531 -0.0776
 2560TIP3    H129171   5.493   5.384   3.118  0.1792  0.6564  0.7159
 2560TIP3    H229172   5.621   5.419   3.044  0.8592 -0.5777  1.2734
 2561TIP3   OH229173   5.803   0.947   6.023 -0.7265 -0.2811  0.0681
 2561TIP3    H129174   5.712   0.974   6.034 -0.6313 -0.6695  2.1228
 2561TIP3    H229175   5.829   0.912   6.108  1.1086 -0.9296 -0.6991
 2562TIP3   OH229176   1.144   4.491  12.248 -0.0106 -0.2188  0.8521
 2562TIP3    H129177   1.154   4.448  12.163 -0.2441  0.5784  0.4109
 2562TIP3    H229178   1.233   4.518  12.271 -0.0950  0.5382  0.3279
 2563TIP3   OH229179   4.048   4.900  10.125 -0.5350 -0.4869 -0.0023
 2563TIP3    H129180   3.988   4.893  10.199  0.7750  1.3983  1.3663
 2563TIP3    H229181   4.018   4.977  10.077  0.0262 -0.2734 -0.0240
 2564TIP3   OH229182   2.015   3.637   5.247  0.7150 -1.0316 -0.1564
 2564TIP3    H129183   2.049   3.598   5.328  0.4215 -1.2253 -0.1244
 2564TIP3    H229184   1.998   3.562   5.190  0.2029 -0.9467 -0.1180
 2565TIP3   OH229185   5.352   6.747   2.305  0.4177  0.2149 -0.5739
 2565TIP3    H129186   5.271   6.784   2.270 -0.3984 -1.0378 -0.0908
 2565TIP3    H229187   5.370   6.798   2.383 -0.2859  0.0892 -0.3214
 2566TIP3   OH229188   2.114   3.933   5.576 -0.1117  0.0102  0.0512
 2566TIP3    H129189   2.130   3.843   5.548 -2.3006 -0.4458  0.0955
 2566TIP3    H229190   2.202   3.972   5.583  0.9550 -2.3205  0.8247
 2567TIP3   OH229191   1.928   4.022  14.857 -0.1273  0.4183  0.3397
 2567TIP3    H129192   1.908   4.091  14.794  1.9439 -0.2533 -1.1390
 2567TIP3    H229193   1.903   3.941  14.812  1.0966 -0.0443  0.4550
 2568TIP3   OH229194   0.421   0.601  13.180 -0.3182  0.0197  0.0420
 2568TIP3    H129195   0.501   0.580  13.133 -0.0011 -0.9302  0.9883
 2568TIP3    H229196   0.355   0.544  13.142 -0.7052  1.1880 -1.1210
 2569TIP3   OH229197   1.164   2.954   0.684  0.0983  0.1987  0.6947
 2569TIP3    H129198   1.207   2.874   0.712  0.7577  0.3271  0.0927
 2569TIP3    H229199   1.133   2.995   0.765 -1.0997 -1.1121  0.9428
 2570TIP3   OH229200   5.204   6.598  11.089 -0.1179  0.0828 -0.0733
 2570TIP3    H129201   5.113   6.602  11.119  0.4469  0.1762  1.7090
 2570TIP3    H229202   5.235   6.512  11.118  0.4358  0.1304 -0.4967
 2571TIP3   OH229203   6.410   5.344   6.422  0.7598 -0.1458  0.2329
 2571TIP3    H129204   6.448   5.377   6.503  1.2986 -1.0170  0.3505
 2571TIP3    H229205   6.338   5.403   6.403  0.9032  0.3230  1.1125
 2572TIP3   OH229206   0.843   0.406  16.541 -0.0594 -0.0907 -0.0561
 2572TIP3    H129207   0.815   0.453  16.462 -0.1643 -0.9414 -0.5401
 2572TIP3    H229208   0.764   0.363  16.573  0.5377 -2.3566 -1.3223
 2573TIP3   OH229209   4.991   3.812   3.612  0.5048  0.3222 -0.0579
 2573TIP3    H129210   4.968   3.855   3.694  1.6125  1.3217 -0.2382
 2573TIP3    H229211   4.910   3.771   3.582  0.0840 -0.0682  1.5250
 2574TIP3   OH229212   0.665   0.033   2.401  0.5375  0.3568  0.3134
 2574TIP3    H129213   0.724  -0.026   2.448  0.7762  0.2492 -0.1162
 2574TIP3    H229214   0.613   0.075   2.470 -0.0483 -0.7869  0.5924
 2575TIP3   OH229215   5.895   0.342   3.093 -0.0933  0.5496  0.3071
 2575TIP3    H129216   5.984   0.376   3.089  0.7398 -1.6049 -0.8222
 2575TIP3    H229217   5.886   0.310   3.183  0.6022 -0.0120  0.1852
 2576TIP3   OH229218   5.357   5.437  11.702  0.6932 -0.4247  0.4886
 2576TIP3    H129219   5.331   5.410  11.614 -1.6154  0.2149  0.9005
 2576TIP3    H229220   5.372   5.355  11.749  0.6841 -0.8073 -0.1743
 2577TIP3   OH229221   3.360   1.813  16.272  0.7028  0.5024  0.0996
 2577TIP3    H129222   3.341   1.876  16.203 -0.8015  0.8100  0.7618
 2577TIP3    H229223   3.337   1.728  16.234 -1.0440  0.7565  0.4867
 2578TIP3   OH229224   6.400   6.054   3.376 -0.1252  0.5798 -0.0193
 2578TIP3    H129225   6.365   5.996   3.444  0.7259 -0.1584 -0.1879
 2578TIP3    H229226   6.481   6.088   3.413  0.6984 -0.3500 -0.8849
 2579TIP3   OH229227   5.846   0.713  12.410  0.6415  0.1607 -0.0830
 2579TIP3    H129228   5.899   0.741  12.335 -0.0346  0.8487 -0.3214
 2579TIP3    H229229   5.815   0.626  12.385  0.2891  0.4506 -0.6853
 2580TIP3   OH229230   3.641   4.035  16.903 -0.3916  0.0278  0.2566
 2580TIP3    H129231   3.614   3.989  16.824  0.4652 -0.4183  0.2093
 2580TIP3    H229232   3.678   4.118  16.872 -0.8183  0.2148  0.2509
 2581TIP3   OH229233   3.228   1.451  15.667 -0.4995  0.1323 -0.1487
 2581TIP3    H129234   3.313   1.451  15.709  0.3795  0.1916 -1.8416
 2581TIP3    H229235   3.246   1.435  15.574 -2.2702  0.7320 -0.6515
 2582TIP3   OH229236   2.507   0.688   2.089 -0.1826  0.4153 -0.1198
 2582TIP3    H129237   2.411   0.683   2.087 -0.2779  0.3410  2.1039
 2582TIP3    H229238   2.534   0.659   2.002 -2.1410 -0.6341 -0.4451
 2583TIP3   OH229239   6.157   6.277  12.480  0.2436  0.4994 -0.0056
 2583TIP3    H129240   6.214   6.247  12.409 -1.6521 -2.4384 -0.4450
 2583TIP3    H229241   6.093   6.334  12.437  1.8123  2.5736  0.2461
 2584TIP3   OH229242   1.487   6.611  16.589  0.1600 -0.2609  0.4746
 2584TIP3    H129243   1.444   6.601  16.503  0.9021 -0.2472  0.0917
 2584TIP3    H229244   1.418   6.647  16.646 -0.0093  0.9208 -0.4243
 2585TIP3   OH229245   4.352   6.056   5.125 -0.0412  0.4674 -0.5975
 2585TIP3    H129246   4.344   6.037   5.219 -0.1277  0.4293 -0.6126
 2585TIP3    H229247   4.378   6.148   5.122  0.1368  0.4212 -0.5311
 2586TIP3   OH229248   4.532   6.774   0.278 -0.2819 -0.6670 -0.0651
 2586TIP3    H129249   4.458   6.724   0.244 -0.7112 -0.2688  0.2611
 2586TIP3    H229250   4.532   6.756   0.372 -2.1077  1.9934  0.5457
 2587TIP3   OH229251   5.457   2.909   2.817  0.3741  0.2470 -0.1174
 2587TIP3    H129252   5.552   2.918   2.807  0.5562  0.9469  1.7426
 2587TIP3    H229253   5.425   2.887   2.730  2.4245 -1.6534 -0.4882
 2588TIP3   OH229254   2.598   6.289  13.246 -0.1824  0.1033  0.1353
 2588TIP3    H129255   2.538   6.273  13.318  0.8788  2.1939  1.5850
 2588TIP3    H229256   2.592   6.383  13.229  3.7244  0.7886  1.4586
 2589TIP3   OH229257   2.415   2.443   4.168 -0.3211  0.2913 -0.4661
 2589TIP3    H129258   2.474   2.374   4.200  1.0537  1.1112 -1.1140
 2589TIP3    H229259   2.361   2.401   4.102  0.3597 -0.2160 -0.7033
 2590TIP3   OH229260   6.207   5.633   3.391  0.0707 -0.3413 -0.3706
 2590TIP3    H129261   6.290   5.588   3.412  1.1950  1.3501 -0.9835
 2590TIP3    H229262   6.163   5.575   3.329  0.4988 -1.5604  0.4292
 2591TIP3   OH229263   2.209   4.583   5.831 -0.6122 -0.3829 -0.2272
 2591TIP3    H129264   2.140   4.520   5.812 -0.6934 -1.3092  2.6375
 2591TIP3    H229265   2.168   4.646   5.891  0.7635 -0.4546  0.8327
 2592TIP3   OH229266   3.149   6.817   5.936  0.1029 -0.3407 -0.5245
 2592TIP3    H129267   3.079   6.827   6.001 -0.8410  1.9396 -1.7586
 2592TIP3    H229268   3.229   6.805   5.988 -0.8615 -0.4778  0.9871
 2593TIP3   OH229269   2.990   1.269   2.460 -0.3681 -0.1616 -0.5258
 2593TIP3    H129270   2.967   1.183   2.497  1.0050 -0.4520 -0.2993
 2593TIP3    H229271   2.962   1.332   2.527  0.0423 -0.5466  0.0235
 2594TIP3   OH229272   0.919   0.932  16.675  0.5477  0.0507  0.7861
 2594TIP3    H129273   1.010   0.922  16.701  1.0590  0.7811 -0.6315
 2594TIP3    H229274   0.885   0.842  16.674  0.9591 -0.1490  2.2196
 2595TIP3   OH229275   5.581   1.257   5.465 -0.1110  0.1199 -0.5246
 2595TIP3    H129276   5.646   1.302   5.411 -0.5825  1.9922  0.4079
 2595TIP3    H229277   5.629   1.233   5.545 -0.2263  0.2776 -0.4081
 2596TIP3   OH229278   3.891   3.115   2.281 -0.2715 -0.1862 -0.1258
 2596TIP3    H129279   3.882   3.209   2.262  1.3447 -0.2085 -1.2550
 2596TIP3    H229280   3.845   3.072   2.209 -0.1477 -0.2496 -0.1678
 2597TIP3   OH229281   2.386   0.112   4.486  0.1375  0.0994 -0.0344
 2597TIP3    H129282   2.395   0.206   4.500  1.9065 -0.1873  1.0955
 2597TIP3    H229283   2.389   0.102   4.390 -2.6063  1.3482 -0.3342
 2598TIP3   OH229284   3.771   6.071  10.862  0.1637 -0.3804 -0.0478
 2598TIP3    H129285   3.692   6.102  10.817  0.6436 -0.9834 -1.3309
 2598TIP3    H229286   3.779   5.980  10.835  1.3136 -0.3189  0.0702
 2599TIP3   OH229287   5.050   5.824   4.829  0.5116  0.1527 -0.3271
 2599TIP3    H129288   5.130   5.808   4.779  1.8316 -2.5519  2.3419
 2599TIP3    H229289   5.076   5.887   4.896  0.6116 -1.1213  0.8638
 2600TIP3   OH229290   2.992   0.612   4.443  0.2828 -0.0042  0.0200
 2600TIP3    H129291   3.004   0.521   4.415  2.7321  0.1467  0.2834
 2600TIP3    H229292   2.999   0.664   4.363  1.6056  0.0748  0.1584
 2601TIP3   OH229293   6.448   2.298  16.371  0.1707 -0.0127 -0.1906
 2601TIP3    H129294   6.522   2.275  16.314  0.2388  0.2962 -0.2252
 2601TIP3    H229295   6.480   2.278  16.460  0.3397  0.2279 -0.1948
 2602TIP3   OH229296   6.696   6.210   0.053 -0.0416 -0.0555 -0.4760
 2602TIP3    H129297   6.648   6.128   0.038  0.4091 -0.5876  0.8787
 2602TIP3    H229298   6.742   6.226  -0.030  0.6276 -1.6933 -0.4529
 2603TIP3   OH229299   1.782   1.137   2.395 -0.1096  0.2596 -0.2389
 2603TIP3    H129300   1.751   1.081   2.466  0.2874  0.1665 -0.1377
 2603TIP3    H229301   1.872   1.160   2.419  0.3274 -0.4737 -1.1252
 2604TIP3   OH229302   4.735   0.602   4.568  0.3002 -0.5039 -0.1891
 2604TIP3    H129303   4.720   0.538   4.638 -1.0478 -1.6732 -1.4752
 2604TIP3    H229304   4.651   0.648   4.560  0.8377  0.4848 -0.2053
 2605TIP3   OH229305   6.611   1.197   2.771  0.0668  0.2899  0.2050
 2605TIP3    H129306   6.696   1.239   2.782  0.8290 -0.5846 -1.8344
 2605TIP3    H229307   6.614   1.120   2.828 -0.0531  1.1606  1.4251
 2606TIP3   OH229308   2.544   6.040  10.925 -0.2999  0.1513  0.4030
 2606TIP3    H129309   2.458   6.076  10.904 -0.1913  0.2734  0.1606
 2606TIP3    H229310   2.527   5.950  10.951 -0.4528  0.0395 -0.0825
 2607TIP3   OH229311   1.893   0.861   2.873 -0.2484 -0.2766  0.3589
 2607TIP3    H129312   1.834   0.877   2.946 -1.6465  1.3112 -1.0188
 2607TIP3    H229313   1.910   0.767   2.876 -2.4775 -0.7115  1.1176
 2608TIP3   OH229314   3.079   5.478   2.099 -0.1247 -0.9813  0.1601
 2608TIP3    H129315   2.985   5.460   2.097 -0.7537  1.8655 -0.5555
 2608TIP3    H229316   3.115   5.411   2.157 -2.5895 -2.1150  0.5182
 2609TIP3   OH229317   2.544   6.227   3.401 -0.0969 -0.7984 -0.3238
 2609TIP3    H129318   2.591   6.304   3.435 -1.3897  0.4232 -1.1515
 2609TIP3    H229319   2.594   6.202   3.323  0.4351 -0.9191  0.0488
 2610TIP3   OH229320   2.123   2.684   0.919  0.4010  0.4296  0.6618
 2610TIP3    H129321   2.141   2.772   0.952  3.7046  0.7421 -1.5124
 2610TIP3    H229322   2.193   2.630   0.957  0.8074 -0.3678 -1.1486
 2611TIP3   OH229323   0.262   6.685   2.550  0.2213 -0.6117 -0.1663
 2611TIP3    H129324   0.304   6.634   2.619 -0.7610  0.3952  1.2457
 2611TIP3    H229325   0.251   6.772   2.589  0.9799  0.4331 -2.1488
 2612TIP3   OH229326   1.891   4.101   3.612 -0.0656  0.4789 -0.0625
 2612TIP3    H129327   1.971   4.054   3.589  0.3150  0.5916  0.9626
 2612TIP3    H229328   1.827   4.032   3.630  0.1759  0.3606  0.3646
 2613TIP3   OH229329   1.278   1.606  16.990 -0.3949  0.1810 -0.5258
 2613TIP3    H129330   1.369   1.631  17.006 -1.3156  1.6762  3.7164
 2613TIP3    H229331   1.241   1.680  16.941  0.1663  0.6457 -0.2518
 2614TIP3   OH229332   4.967   1.819   5.531 -0.1161 -0.4986  0.1705
 2614TIP3    H129333   4.977   1.913   5.513 -0.0888 -0.2637  1.3357
 2614TIP3    H229334   4.959   1.814   5.627 -0.9740 -1.6056  0.0573
 2615TIP3   OH229335   3.365   6.747  13.629  0.1740  0.0460  0.1191
 2615TIP3    H129336   3.327   6.809  13.566 -0.3287  0.3191  0.6916
 2615TIP3    H229337   3.446   6.790  13.658 -0.0280  0.3003  0.3017
 2616TIP3   OH229338   2.561   3.538   1.461  0.5150  0.7039 -0.3465
 2616TIP3    H129339   2.517   3.460   1.495  1.1836  0.4031 -0.1505
 2616TIP3    H229340   2.569   3.596   1.537  0.1458  0.8991 -0.4595
 2617TIP3   OH229341   3.260   3.332   0.336 -0.0704  0.3902 -0.1729
 2617TIP3    H129342   3.304   3.315   0.419 -0.5405 -1.9345 -0.3485
 2617TIP3    H229343   3.309   3.405   0.297  1.9017 -0.3281  0.8745
 2618TIP3   OH229344   2.044   1.696   2.660  0.7341 -0.1600  0.6373
 2618TIP3    H129345   2.105   1.633   2.621  0.7855  0.0466  0.3877
 2618TIP3    H229346   1.965   1.690   2.606  0.9153  0.3500  0.3142
 2619TIP3   OH229347   3.700   0.297   2.297 -0.1392  0.1884  0.1723
 2619TIP3    H129348   3.662   0.210   2.284 -1.2243  0.6055  0.4906
 2619TIP3    H229349   3.628   0.350   2.330  0.5051  1.2264 -0.0509
 2620TIP3   OH229350   2.556   5.395   6.255 -0.7097 -0.5457 -0.2532
 2620TIP3    H129351   2.477   5.340   6.258 -0.3264 -1.1363 -0.7395
 2620TIP3    H229352   2.529   5.474   6.209 -0.9029 -0.9493 -0.8433
 2621TIP3   OH229353   2.804   1.142   1.854  0.2932  0.8272 -0.2381
 2621TIP3    H129354   2.876   1.135   1.790  0.9688  1.7415  0.3845
 2621TIP3    H229355   2.787   1.053   1.881  2.1603  0.6815  0.6202
 2622TIP3   OH229356   1.598   5.952   2.605  0.0540 -0.4281  0.3237
 2622TIP3    H129357   1.542   6.011   2.553 -1.7112 -1.2875  1.1724
 2622TIP3    H229358   1.687   5.984   2.589 -0.6748  1.1572 -0.8885
 2623TIP3   OH229359   4.476   5.685  13.964 -0.4783  0.7101  0.1165
 2623TIP3    H129360   4.416   5.728  14.024 -1.2660  0.9200 -0.7950
 2623TIP3    H229361   4.563   5.698  14.003 -0.9773  0.6950  1.2704
 2624TIP3   OH229362   6.052   5.774  11.813  0.1969 -0.2263  0.2807
 2624TIP3    H129363   5.957   5.787  11.808  0.2635 -0.0504 -2.2044
 2624TIP3    H229364   6.082   5.786  11.722  2.4049 -1.7447  0.7319
 2625TIP3   OH229365   3.671   5.221   0.413 -0.1833  0.0133  0.4496
 2625TIP3    H129366   3.690   5.240   0.321 -1.8367 -1.4393 -0.2543
 2625TIP3    H229367   3.727   5.281   0.462  1.0553  0.5341 -1.4905
 2626TIP3   OH229368   3.461   1.247  11.725 -0.0832  0.0309  0.4540
 2626TIP3    H129369   3.547   1.287  11.737  0.3410 -1.1261  1.4758
 2626TIP3    H229370   3.477   1.153  11.730 -1.1338 -0.2782 -1.3355
 2627TIP3   OH229371   5.311   4.864  10.591 -0.2516 -0.1202  0.2435
 2627TIP3    H129372   5.397   4.904  10.576  0.2913 -1.2637  0.2407
 2627TIP3    H229373   5.251   4.939  10.598 -0.2546  0.7878 -5.2254
 2628TIP3   OH229374   4.225   1.077  15.489 -0.3342  0.0080 -0.3585
 2628TIP3    H129375   4.152   1.045  15.436 -0.3977  0.0279 -0.2822
 2628TIP3    H229376   4.201   1.167  15.512 -0.3338 -0.0208 -0.2452
 2629TIP3   OH229377   1.773   0.658   0.878  0.5586  0.4458 -0.6838
 2629TIP3    H129378   1.825   0.642   0.799  0.6802  0.4245 -0.6003
 2629TIP3    H229379   1.838   0.672   0.947  0.4851  2.5017 -0.9724
 2630TIP3   OH229380   3.238   2.558   0.417  0.1753 -0.0385  0.1840
 2630TIP3    H129381   3.235   2.586   0.508 -0.8172  1.3335 -0.2359
 2630TIP3    H229382   3.312   2.605   0.379 -0.4371  0.6987 -0.1098
 2631TIP3   OH229383   4.195   2.364   6.524  0.6733 -0.6059 -0.1432
 2631TIP3    H129384   4.204   2.418   6.446  2.3960 -2.8072 -1.6168
 2631TIP3    H229385   4.255   2.403   6.588  1.2575 -0.3026 -0.8712
 2632TIP3   OH229386   1.421   2.997   3.993 -0.3476 -0.0902  0.5500
 2632TIP3    H129387   1.516   3.000   3.982 -0.5113  2.6704 -1.2047
 2632TIP3    H229388   1.406   2.926   4.055  2.7415 -1.4138 -0.0355
 2633TIP3   OH229389   1.448   0.564  14.632  0.4357  0.8821 -0.2646
 2633TIP3    H129390   1.371   0.620  14.640  0.8334  1.4274 -0.2315
 2633TIP3    H229391   1.505   0.591  14.705  0.1274 -0.3561  0.4643
 2634TIP3   OH229392   2.464   2.173   5.174  0.3792 -0.6810 -0.4620
 2634TIP3    H129393   2.513   2.227   5.111  0.9495 -0.6887 -0.0341
 2634TIP3    H229394   2.397   2.231   5.209  0.0951 -0.6581 -1.0294
 2635TIP3   OH229395   0.655   2.064   1.453  0.3517  0.4347 -0.1816
 2635TIP3    H129396   0.629   2.096   1.367 -0.6123 -2.8671 -1.2607
 2635TIP3    H229397   0.588   1.999   1.476  2.4005 -1.2669  1.4522
 2636TIP3   OH229398   2.760   6.436  10.538 -0.1779 -0.3039 -0.1963
 2636TIP3    H129399   2.834   6.492  10.562 -1.4381  0.5201  1.9899
 2636TIP3    H229400   2.738   6.462  10.449  1.0079  0.7126 -0.2133
 2637TIP3   OH229401   5.564   4.340  12.023  0.0071  0.1406 -0.5801
 2637TIP3    H129402   5.515   4.286  12.084 -1.3148  1.7007 -0.1623
 2637TIP3    H229403   5.501   4.359  11.953  0.3989  1.1546 -0.6777
 2638TIP3   OH229404   5.993   4.084   5.866  0.7103  0.1374  0.0842
 2638TIP3    H129405   6.030   4.002   5.833  1.1602  0.6802 -0.7744
 2638TIP3    H229406   6.003   4.078   5.961 -1.5111 -1.8942  0.2821
 2639TIP3   OH229407   5.100   1.102   4.366 -0.2436 -0.1585 -0.5562
 2639TIP3    H129408   5.091   1.091   4.271 -0.7814  0.0088 -0.5288
 2639TIP3    H229409   5.112   1.197   4.378 -0.8558 -0.1001 -0.4073
 2640TIP3   OH229410   3.918   2.726  15.617 -0.3786  0.5823 -0.4356
 2640TIP3    H129411   3.833   2.732  15.660  0.3208  0.8730  0.9768
 2640TIP3    H229412   3.927   2.633  15.596  0.0338  0.0499  1.8153
 2641TIP3   OH229413   5.096   4.078  14.103 -0.2949  0.1337 -0.0586
 2641TIP3    H129414   5.169   4.115  14.153 -0.6020  1.3520 -0.4776
 2641TIP3    H229415   5.075   3.996  14.149  1.4901 -0.3854 -0.0818
 2642TIP3   OH229416   4.846   5.566   0.966  0.4946 -0.2480 -0.2827
 2642TIP3    H129417   4.905   5.492   0.981 -0.5350 -1.1769 -0.7050
 2642TIP3    H229418   4.762   5.526   0.944  0.0011  1.0566 -0.8622
 2643TIP3   OH229419   1.810   0.569  14.538  0.4279 -0.9702 -0.1522
 2643TIP3    H129420   1.737   0.510  14.519 -0.0723  0.3597 -2.9353
 2643TIP3    H229421   1.851   0.585  14.453  1.0705  1.9528  0.5693
 2644TIP3   OH229422   2.317   2.716   4.238 -0.0426  0.0572  0.0825
 2644TIP3    H129423   2.250   2.689   4.302 -0.0011  0.3866  0.2697
 2644TIP3    H229424   2.342   2.635   4.194  1.0516 -0.4522  1.5602
 2645TIP3   OH229425   5.725   1.879  15.654  0.4474 -0.0649  0.0926
 2645TIP3    H129426   5.652   1.873  15.592 -1.2775  0.8715  1.9081
 2645TIP3    H229427   5.717   1.801  15.708 -0.0194  0.6112  1.0524
 2646TIP3   OH229428   6.677   1.220   0.145  0.3527  0.6154  0.0456
 2646TIP3    H129429   6.681   1.260   0.232 -1.5397  1.2090 -0.0909
 2646TIP3    H229430   6.766   1.187   0.130  0.7455  0.4963  2.1870
 2647TIP3   OH229431   3.019   5.873   4.776 -0.2800  0.3130  0.0384
 2647TIP3    H129432   3.020   5.805   4.708 -0.2918  0.7710 -0.4210
 2647TIP3    H229433   3.109   5.876   4.807  0.2599  1.6417 -1.5129
 2648TIP3   OH229434   3.472   4.123   5.270  0.1640 -0.9970 -0.0760
 2648TIP3    H129435   3.399   4.103   5.211  0.8801 -2.1002 -0.6179
 2648TIP3    H229436   3.444   4.088   5.355 -0.4361 -0.3288  0.0115
 2649TIP3   OH229437   4.756   1.950   0.809  0.1913 -0.0173 -0.5334
 2649TIP3    H129438   4.781   1.878   0.868 -0.7126  0.6800  0.7534
 2649TIP3    H229439   4.833   2.007   0.807  0.5112 -0.4477 -0.6706
 2650TIP3   OH229440   4.727   3.176  14.910 -0.3940  0.0294 -0.3038
 2650TIP3    H129441   4.668   3.175  14.986  1.0957 -0.6714  0.8861
 2650TIP3    H229442   4.804   3.127  14.938  0.4661  0.2729 -2.0820
 2651TIP3   OH229443   4.929   0.719  11.212  0.6107  0.1411  0.6938
 2651TIP3    H129444   4.971   0.696  11.128 -0.1839  1.0361  0.0279
 2651TIP3    H229445   4.840   0.745  11.188  0.5851  1.0783  1.7362
 2652TIP3   OH229446   2.837   0.248  11.166  0.2033  0.0147  0.0316
 2652TIP3    H129447   2.833   0.341  11.144  2.0474  0.6219  1.9797
 2652TIP3    H229448   2.753   0.213  11.135 -0.5019  2.2840 -0.8352
 2653TIP3   OH229449   6.365   4.374   1.481 -0.1326  0.1190  0.2624
 2653TIP3    H129450   6.445   4.378   1.428  0.9520  0.1725  1.8168
 2653TIP3    H229451   6.351   4.465   1.510 -0.9388  0.1634 -0.2411
 2654TIP3   OH229452   3.929   5.069  15.996 -0.5412  0.5693  0.2170
 2654TIP3    H129453   3.862   5.044  15.933 -2.3851  0.5651  2.0513
 2654TIP3    H229454   3.914   5.011  16.071  2.9475 -0.9330 -0.0538
 2655TIP3   OH229455   4.244   5.187   2.120  0.4679  0.3692 -0.0328
 2655TIP3    H129456   4.181   5.240   2.171  0.6556  1.0060 -0.4521
 2655TIP3    H229457   4.312   5.165   2.183  0.9683  1.6007 -0.1097
 2656TIP3   OH229458   0.916   2.315   6.282 -0.5371  0.4663  0.1194
 2656TIP3    H129459   0.841   2.277   6.237  1.0158 -0.8769 -1.4629
 2656TIP3    H229460   0.926   2.261   6.361  0.0739 -0.8392 -0.8061
 2657TIP3   OH229461   4.750   2.715  14.651 -0.6225 -0.2477 -0.0274
 2657TIP3    H129462   4.670   2.763  14.673 -0.6396 -0.6193  0.7776
 2657TIP3    H229463   4.725   2.623  14.658  0.0250 -0.3662  0.8226
 2658TIP3   OH229464   2.279   1.201  12.149  0.2580  0.9247 -0.4288
 2658TIP3    H129465   2.280   1.138  12.220 -3.4280 -1.9439 -2.5741
 2658TIP3    H229466   2.218   1.269  12.177 -1.8727 -0.6478 -1.0181
 2659TIP3   OH229467   6.743   2.739   6.354 -0.4572  0.0259  0.5544
 2659TIP3    H129468   6.828   2.725   6.396 -0.4757 -0.4018  0.4587
 2659TIP3    H229469   6.682   2.686   6.406 -1.2285  2.5569  2.4244
 2660TIP3   OH229470   4.379   5.699   1.891  0.1756  0.0329  0.2757
 2660TIP3    H129471   4.363   5.640   1.964 -0.9121  1.1943  1.0097
 2660TIP3    H229472   4.411   5.780   1.932 -0.5250  0.7295 -0.5115
 2661TIP3   OH229473   5.205   0.736  15.619 -0.2388  0.5303  0.2315
 2661TIP3    H129474   5.267   0.665  15.630 -0.7423 -0.1676 -1.1942
 2661TIP3    H229475   5.259   0.816  15.622  0.5680 -0.0014  0.1109
 2662TIP3   OH229476   0.312   5.303   3.642  0.0174 -0.4139  0.6504
 2662TIP3    H129477   0.287   5.211   3.632 -0.4208 -0.1893 -0.3721
 2662TIP3    H229478   0.261   5.350   3.576  1.4869  0.3549  0.0113
 2663TIP3   OH229479   1.808   2.834  14.016 -0.2268 -0.4476  0.4451
 2663TIP3    H129480   1.714   2.819  14.022 -0.5239  0.3518 -1.4245
 2663TIP3    H229481   1.821   2.924  14.045 -0.1998 -0.1969 -0.3281
 2664TIP3   OH229482   5.243   0.566   1.335  0.0328  0.4840 -0.1064
 2664TIP3    H129483   5.211   0.656   1.325  2.1057  1.4155  0.8975
 2664TIP3    H229484   5.338   0.576   1.348  0.6655 -2.0068 -2.0263
 2665TIP3   OH229485   3.965   5.156   3.741 -0.3266 -0.1354 -0.1196
 2665TIP3    H129486   4.025   5.222   3.705 -0.1436 -0.4351 -0.3798
 2665TIP3    H229487   3.956   5.178   3.833 -2.2562  1.7498 -0.6946
 2666TIP3   OH229488   3.215   4.726  14.838  0.3957  0.4769  0.0052
 2666TIP3    H129489   3.239   4.817  14.820  0.3358  0.7706  1.3537
 2666TIP3    H229490   3.292   4.675  14.811  0.3262  0.8772 -1.0097
 2667TIP3   OH229491   3.917   3.303  15.400  0.0535 -0.2700  0.1094
 2667TIP3    H129492   3.962   3.268  15.476  0.1775 -0.3386  0.0046
 2667TIP3    H229493   3.846   3.356  15.436 -1.6381 -2.5303  0.2957
 2668TIP3   OH229494   6.621   3.940  14.603 -0.6846 -0.5759  0.1670
 2668TIP3    H129495   6.701   3.982  14.636 -1.2656  1.2728 -0.6075
 2668TIP3    H229496   6.635   3.847  14.617  1.9648 -0.4005 -0.6243
 2669TIP3   OH229497   2.166   1.699   4.931 -0.1798 -0.1505 -0.1753
 2669TIP3    H129498   2.254   1.726   4.959 -0.4451 -0.3577  0.8976
 2669TIP3    H229499   2.114   1.779   4.933 -0.4141 -0.3195  0.8071
 2670TIP3   OH229500   4.859   1.665   2.147 -0.1635  0.3796  0.3552
 2670TIP3    H129501   4.787   1.706   2.101 -0.5567 -0.5003  0.1813
 2670TIP3    H229502   4.819   1.627   2.225 -0.1591 -1.3386 -0.4455
 2671TIP3   OH229503   5.246   4.691   4.120  0.5185 -0.2665  0.6725
 2671TIP3    H129504   5.238   4.609   4.072  0.9917  1.6337 -2.9595
 2671TIP3    H229505   5.160   4.732   4.112  0.2871 -0.3055  2.4429
 2672TIP3   OH229506   1.036   0.079  13.816  0.0854 -0.7597  0.6553
 2672TIP3    H129507   1.100   0.008  13.811  0.1015 -0.8267  1.6167
 2672TIP3    H229508   0.958   0.044  13.772  0.8064 -0.5385 -0.8609
 2673TIP3   OH229509   3.206   3.407   6.411 -0.0550 -0.2847  0.9008
 2673TIP3    H129510   3.205   3.313   6.393  0.9451  0.0874 -1.5520
 2673TIP3    H229511   3.282   3.440   6.362 -0.7695  1.9162  1.1492
 2674TIP3   OH229512   1.553   2.583  13.229  0.6819  0.4437  0.3773
 2674TIP3    H129513   1.572   2.559  13.320  1.8835  0.8149  0.2502
 2674TIP3    H229514   1.586   2.673  13.221 -0.0599  0.6742 -0.2397
 2675TIP3   OH229515   2.449   4.929  15.178  0.3972 -0.3045  0.1812
 2675TIP3    H129516   2.430   4.848  15.225  0.6944 -0.5747 -0.1652
 2675TIP3    H229517   2.365   4.955  15.141  0.6434 -1.4407 -1.2580
 2676TIP3   OH229518   5.429   5.897   1.297  0.1097  0.0038  0.2502
 2676TIP3    H129519   5.427   5.989   1.271 -1.0001  0.5040  1.9585
 2676TIP3    H229520   5.517   5.867   1.273 -0.0943  0.9981 -1.9134
 2677TIP3   OH229521   0.859   3.021   0.703 -0.0513 -0.3325  0.0809
 2677TIP3    H129522   0.909   3.101   0.683 -1.5833  0.4168 -0.9350
 2677TIP3    H229523   0.772   3.052   0.726 -1.5597 -1.7601 -3.0748
 2678TIP3   OH229524   3.491   0.343  17.153  0.0602  0.2454  0.0162
 2678TIP3    H129525   3.434   0.303  17.219 -0.7624 -0.1177 -0.8883
 2678TIP3    H229526   3.494   0.435  17.178 -1.3864  0.3819 -0.2147
 2679TIP3   OH229527   1.441   5.025   2.111 -0.1411  0.5119 -0.1314
 2679TIP3    H129528   1.532   5.024   2.139 -0.2674  0.1509  0.2728
 2679TIP3    H229529   1.439   4.967   2.034 -0.4572 -1.3987  1.2562
 2680TIP3   OH229530   2.861   5.041   2.000 -0.1698 -0.1925 -0.2751
 2680TIP3    H129531   2.777   5.071   2.035  0.4312  0.2244  0.8992
 2680TIP3    H229532   2.878   4.959   2.046  0.1683 -0.1534 -0.3268
 2681TIP3   OH229533   2.627   2.179  15.063 -0.0323  0.0711 -0.2138
 2681TIP3    H129534   2.660   2.253  15.113 -0.0294 -0.9438  1.3768
 2681TIP3    H229535   2.535   2.199  15.047  0.8428  2.2848 -3.4869
 2682TIP3   OH229536   1.045   6.502  13.611 -0.8473 -0.0748  0.4715
 2682TIP3    H129537   1.063   6.410  13.633 -2.1047 -0.6297 -0.6972
 2682TIP3    H229538   1.082   6.551  13.685 -0.0953 -1.4964  1.1020
 2683TIP3   OH229539   6.360   1.699  13.173  0.2777 -0.2451 -0.0367
 2683TIP3    H129540   6.433   1.757  13.150  1.0580 -1.2749 -0.1790
 2683TIP3    H229541   6.395   1.642  13.241 -1.5538  1.8020  2.8638
 2684TIP3   OH229542   5.127   5.383  12.618  0.0340  0.8920  0.2556
 2684TIP3    H129543   5.110   5.377  12.712 -1.7590 -2.9346 -0.1011
 2684TIP3    H229544   5.041   5.403  12.579  0.6452  1.8960 -0.6506
 2685TIP3   OH229545   5.850   6.069   0.310  0.1382  0.1841  0.5322
 2685TIP3    H129546   5.881   6.030   0.392  0.1053 -1.8561 -0.3592
 2685TIP3    H229547   5.922   6.124   0.281  0.4762  0.2841  1.5213
 2686TIP3   OH229548   3.807   5.335   3.248  0.2042  0.0998  0.3142
 2686TIP3    H129549   3.736   5.399   3.251 -0.1836 -0.2690  3.9566
 2686TIP3    H229550   3.764   5.253   3.222 -0.4154  0.2387  0.8632
 2687TIP3   OH229551   5.672   0.960  14.381 -0.0205  0.0858  0.3768
 2687TIP3    H129552   5.599   1.009  14.420  0.5374  1.8718 -0.7101
 2687TIP3    H229553   5.656   0.964  14.287  0.1646 -1.7251  0.2299
 2688TIP3   OH229554   0.949   5.925  17.138  0.7320  0.1477 -0.1777
 2688TIP3    H129555   0.960   5.993  17.072 -0.3211 -0.2813 -0.8286
 2688TIP3    H229556   0.934   5.845  17.087 -0.0467 -0.2010  0.5750
 2689TIP3   OH229557   5.649   1.746   5.478  0.5170  0.2422  0.0598
 2689TIP3    H129558   5.600   1.702   5.408  2.9242 -1.5018 -0.6588
 2689TIP3    H229559   5.581   1.778   5.538 -1.6103  1.0449 -2.5579
 2690TIP3   OH229560   1.055   4.554   4.214 -0.3359  0.1854  0.0261
 2690TIP3    H129561   1.048   4.482   4.277  2.5993  0.4010  0.7459
 2690TIP3    H229562   1.047   4.633   4.268 -2.9724  0.4808 -0.6814
 2691TIP3   OH229563   5.109   3.913   7.027  0.3521 -0.1044  0.1760
 2691TIP3    H129564   5.016   3.928   7.046  0.3439  0.3230 -0.2074
 2691TIP3    H229565   5.119   3.818   7.035 -0.1255 -0.1585  0.1909
 2692TIP3   OH229566   1.901   3.464   4.891  0.0295 -0.4310 -0.0889
 2692TIP3    H129567   1.963   3.534   4.909  0.3566 -0.5793 -0.6308
 2692TIP3    H229568   1.922   3.396   4.956 -0.9374  0.3594  1.0924
 2693TIP3   OH229569   6.553   0.662   5.924  0.0663 -0.0189  0.0452
 2693TIP3    H129570   6.547   0.748   5.966  0.0660  0.3088 -0.6049
 2693TIP3    H229571   6.635   0.665   5.875 -0.1205 -0.2507 -0.2843
 2694TIP3   OH229572   0.598   3.940  12.498  0.5253  0.3150  0.8264
 2694TIP3    H129573   0.521   3.980  12.539 -0.1557  0.0405 -0.1516
 2694TIP3    H229574   0.669   4.001  12.516  0.1342  0.4787  1.9172
 2695TIP3   OH229575   4.019   2.798   2.426 -0.2805  0.0491 -0.3537
 2695TIP3    H129576   4.015   2.891   2.451 -2.0043  0.1451 -0.8817
 2695TIP3    H229577   3.932   2.764   2.446  0.0784 -1.2572 -0.9296
 2696TIP3   OH229578   0.354   1.229   2.256  0.5014  0.1964  0.2752
 2696TIP3    H129579   0.413   1.178   2.312  2.4655 -0.3445 -2.0739
 2696TIP3    H229580   0.304   1.163   2.207  1.0172  0.5228 -0.7369
 2697TIP3   OH229581   3.410   2.767   0.342  0.6477 -0.3776  0.3305
 2697TIP3    H129582   3.493   2.744   0.301 -0.1717 -0.9322 -1.0906
 2697TIP3    H229583   3.403   2.862   0.332  0.4002 -0.5212 -0.9887
 2698TIP3   OH229584   1.156   0.236  13.042 -0.1426 -0.1758  0.1294
 2698TIP3    H129585   1.218   0.175  13.083 -1.3032 -0.4283  1.5586
 2698TIP3    H229586   1.186   0.323  13.070 -0.3633 -0.2890  0.7175
 2699TIP3   OH229587   3.843   5.629  12.274 -0.0610 -0.3784  0.1566
 2699TIP3    H129588   3.794   5.620  12.356  1.3036 -3.7108  0.7690
 2699TIP3    H229589   3.807   5.562  12.217 -0.9427  1.8366 -2.1005
 2700TIP3   OH229590   5.696   1.124   5.661  0.1670  0.6528  0.2254
 2700TIP3    H129591   5.775   1.159   5.701  0.5365 -1.6267  1.6938
 2700TIP3    H229592   5.723   1.039   5.625 -1.5521 -0.0850  0.5873
 2701TIP3   OH229593   4.506   6.804   5.547 -0.1328 -0.3009 -0.5533
 2701TIP3    H129594   4.597   6.782   5.568 -0.6719 -2.8517 -0.5316
 2701TIP3    H229595   4.468   6.830   5.631  0.2783 -0.4236 -0.3261
 2702TIP3   OH229596   5.437   5.638   5.037 -0.0840 -0.6174  0.5446
 2702TIP3    H129597   5.500   5.710   5.032 -0.1930 -0.5997 -1.0313
 2702TIP3    H229598   5.399   5.647   5.124 -0.5915  1.6696  0.1713
 2703TIP3   OH229599   2.701   1.682   5.140  0.6081 -0.0273  0.7888
 2703TIP3    H129600   2.718   1.678   5.046  0.2554 -1.3336  0.7618
 2703TIP3    H229601   2.685   1.591   5.165  1.4245  0.2053  2.2569
 2704TIP3   OH229602   4.028   0.796  11.290 -0.1463 -0.0658 -0.0502
 2704TIP3    H129603   4.113   0.762  11.316 -1.1439 -1.9059  0.9568
 2704TIP3    H229604   3.997   0.845  11.366 -0.5331 -0.4903  0.0707
 2705TIP3   OH229605   3.770   5.955   2.129  0.2117 -0.2506 -0.2033
 2705TIP3    H129606   3.857   5.934   2.094 -0.3142 -0.8843 -1.2099
 2705TIP3    H229607   3.781   5.956   2.224  1.4080  0.1220 -0.3391
 2706TIP3   OH229608   2.594   0.795   1.661  0.2414 -0.0793 -0.8664
 2706TIP3    H129609   2.627   0.870   1.612 -2.3226  0.7056 -1.5350
 2706TIP3    H229610   2.613   0.720   1.604  0.4939  0.3829 -1.4064
 2707TIP3   OH229611   1.637   4.448  12.487  0.4308  0.4900 -0.4722
 2707TIP3    H129612   1.713   4.497  12.517 -0.5322  0.6404  1.9886
 2707TIP3    H229613   1.646   4.361  12.528 -1.1011  0.8010  0.6306
 2708TIP3   OH229614   2.568   6.769  14.248 -0.6590  0.1240 -0.4747
 2708TIP3    H129615   2.486   6.777  14.199 -0.1554  0.9918 -1.1803
 2708TIP3    H229616   2.634   6.811  14.194  0.0461  0.4904  0.6300
 2709TIP3   OH229617   0.678   2.182   3.977  0.1513  0.1929 -0.4106
 2709TIP3    H129618   0.657   2.171   4.070  0.4666  1.4437 -0.1701
 2709TIP3    H229619   0.594   2.199   3.935 -0.0935 -1.1518 -0.4929
 2710TIP3   OH229620   5.977   5.394  15.601 -0.3092 -0.1894 -0.4007
 2710TIP3    H129621   5.958   5.446  15.523 -0.7363 -1.8043 -1.4334
 2710TIP3    H229622   5.961   5.454  15.674 -0.1424  1.2994 -1.5255
 2711TIP3   OH229623   3.959   2.466   4.326 -0.3869 -0.3032  0.1496
 2711TIP3    H129624   4.039   2.452   4.274  0.3899  1.0174  0.9330
 2711TIP3    H229625   3.928   2.377   4.346 -0.8796 -0.8858 -2.7315
 2712TIP3   OH229626   5.604   1.649   5.241 -0.7000 -0.1505 -0.1667
 2712TIP3    H129627   5.692   1.621   5.217 -0.6190  0.3915 -0.5125
 2712TIP3    H229628   5.547   1.611   5.175 -0.7868 -0.8865  0.3175
 2713TIP3   OH229629   3.302   3.541   5.395  0.0143 -0.2052  0.5285
 2713TIP3    H129630   3.314   3.458   5.442 -0.1165  0.1858  1.2568
 2713TIP3    H229631   3.367   3.538   5.325  0.2285 -0.7849  0.7465
 2714TIP3   OH229632   1.440   5.067   3.617 -0.4328 -0.3040  0.2531
 2714TIP3    H129633   1.420   5.149   3.571  0.5494 -0.3024 -0.2029
 2714TIP3    H229634   1.421   4.998   3.554 -0.6937 -0.3985  0.4327
 2715TIP3   OH229635   0.539   5.800   1.136  0.0434 -0.0129  0.2154
 2715TIP3    H129636   0.495   5.874   1.096 -2.7149 -0.9791  1.2595
 2715TIP3    H229637   0.631   5.827   1.141 -0.5128  2.4713 -1.2631
 2716TIP3   OH229638   2.675   4.548  12.825  0.0498 -0.0367  0.3467
 2716TIP3    H129639   2.722   4.619  12.782 -0.5468  0.6072  0.7456
 2716TIP3    H229640   2.693   4.560  12.918  0.6506 -0.9314  0.3676
 2717TIP3   OH229641   1.504   2.794  13.402 -0.8657 -0.1796  0.0031
 2717TIP3    H129642   1.414   2.779  13.431 -1.2417  2.3815  0.4321
 2717TIP3    H229643   1.496   2.810  13.308 -0.8218 -0.1760  0.0001
 2718TIP3   OH229644   0.216   2.878   4.965  0.3430  0.1157 -0.2651
 2718TIP3    H129645   0.163   2.933   5.024  0.4662 -0.0784  0.0264
 2718TIP3    H229646   0.278   2.940   4.926  1.9202 -0.1420  1.6790
 2719TIP3   OH229647   2.590   2.837  15.813 -0.0709  0.2549 -0.0949
 2719TIP3    H129648   2.536   2.788  15.875  1.7530  0.1335  1.5033
 2719TIP3    H229649   2.547   2.923  15.806 -0.8608 -0.0756  0.5464
 2720TIP3   OH229650   3.814   6.369  12.515 -0.6045 -0.0490  0.1475
 2720TIP3    H129651   3.874   6.423  12.464 -0.8611 -0.4510 -0.5799
 2720TIP3    H229652   3.823   6.402  12.605  0.1761  0.3570 -0.0779
 2721TIP3   OH229653   2.613   5.741  11.526  0.3053  0.4552 -0.1729
 2721TIP3    H129654   2.527   5.773  11.555  0.5101 -0.9344  2.2239
 2721TIP3    H229655   2.606   5.646  11.530  1.6020  0.2941 -1.1294
 2722TIP3   OH229656   1.393   4.173   3.042  0.1541 -0.3235  0.1980
 2722TIP3    H129657   1.401   4.079   3.057  0.4941 -0.4573 -0.7230
 2722TIP3    H229658   1.303   4.184   3.012  0.2859 -0.4499 -0.2596
 2723TIP3   OH229659   4.094   1.920  14.315  0.4731 -0.6927  0.0742
 2723TIP3    H129660   4.164   1.985  14.316 -1.4295  1.5338  1.1743
 2723TIP3    H229661   4.065   1.916  14.224 -0.5448  1.4742  0.2413
 2724TIP3   OH229662   2.654   5.552   0.163 -0.5945 -0.0037  0.0087
 2724TIP3    H129663   2.578   5.501   0.190  0.0926 -1.5695 -0.8759
 2724TIP3    H229664   2.632   5.583   0.075  0.3162 -1.7576 -0.9077
 2725TIP3   OH229665   1.336   1.520   2.396 -0.3089 -0.4915  0.5025
 2725TIP3    H129666   1.428   1.529   2.423 -0.0186 -1.7348 -0.0112
 2725TIP3    H229667   1.340   1.481   2.309 -1.1750  4.6728 -2.1949
 2726TIP3   OH229668   5.124   5.864   1.473  0.3231  0.2585  0.0073
 2726TIP3    H129669   5.209   5.855   1.517  0.4938  0.1321 -0.3405
 2726TIP3    H229670   5.122   5.955   1.444  0.5350  0.1536 -0.3601
 2727TIP3   OH229671   0.743   0.095   4.250 -0.3137 -0.1688 -0.1735
 2727TIP3    H129672   0.791   0.142   4.317  3.8682 -2.8376 -0.9262
 2727TIP3    H229673   0.723   0.161   4.184  0.1337  1.5345  1.3243
 2728TIP3   OH229674   1.394   4.157  14.582 -0.3521  0.2011 -0.2954
 2728TIP3    H129675   1.375   4.161  14.488  0.0365 -2.4027 -0.5673
 2728TIP3    H229676   1.430   4.069  14.595  1.7047  1.2568  1.9336
 2729TIP3   OH229677   6.646   2.142  12.027  0.2943 -0.2075  0.1664
 2729TIP3    H129678   6.647   2.233  12.056  1.1966 -0.3227  0.5263
 2729TIP3    H229679   6.702   2.096  12.089 -1.7171 -1.4078  1.2012
 2730TIP3   OH229680   0.862   4.228  14.671 -0.2652  0.3631 -0.2635
 2730TIP3    H129681   0.789   4.272  14.628 -0.0204  1.7807  0.6773
 2730TIP3    H229682   0.937   4.284  14.653 -0.0137  0.5782  1.2888
 2731TIP3   OH229683   1.670   5.050   5.275  0.3190  0.3720 -0.1872
 2731TIP3    H129684   1.669   5.143   5.298  0.8300 -0.0459  1.7462
 2731TIP3    H229685   1.606   5.010   5.334  1.2452 -0.7140  0.1320
 2732TIP3   OH229686   5.640   3.102   0.643 -0.1268 -0.2343 -0.3865
 2732TIP3    H129687   5.645   3.063   0.731  0.1901  0.8728  0.0980
 2732TIP3    H229688   5.546   3.104   0.624 -0.1163 -2.4576 -1.0139
 2733TIP3   OH229689   0.981   3.567  17.117 -0.3750  0.2654 -0.2903
 2733TIP3    H129690   0.949   3.491  17.165  2.9548  0.5181  2.7320
 2733TIP3    H229691   1.000   3.534  17.030 -0.6308 -1.9386  0.4332
 2734TIP3   OH229692   5.067   4.782  15.103  0.2717 -0.1769  0.0647
 2734TIP3    H129693   5.036   4.716  15.041 -1.7642 -0.0691  0.8981
 2734TIP3    H229694   5.068   4.737  15.187 -1.1294  0.8051  0.6411
 2735TIP3   OH229695   4.979   6.585  16.232  0.1775  0.3595 -0.2667
 2735TIP3    H129696   4.992   6.498  16.268  0.8731 -0.1389 -1.6686
 2735TIP3    H229697   4.988   6.644  16.308  1.7148 -0.6366  0.3716
 2736TIP3   OH229698   5.809   2.792   2.557  0.3845  0.0203 -0.7708
 2736TIP3    H129699   5.816   2.874   2.508  0.8505  0.9736  0.7948
 2736TIP3    H229700   5.895   2.751   2.546  0.4494  0.1770 -0.8571
 2737TIP3   OH229701   3.597   4.255   4.958  0.7657 -0.0150 -0.3484
 2737TIP3    H129702   3.648   4.176   4.938  0.0997 -0.9229  1.3418
 2737TIP3    H229703   3.608   4.267   5.052 -2.0638 -0.2557  0.0930
 2738TIP3   OH229704   5.517   4.459  13.683 -0.1754 -0.1128  0.5225
 2738TIP3    H129705   5.604   4.444  13.647  0.5249  4.1268 -0.0396
 2738TIP3    H229706   5.531   4.521  13.754 -2.7252  1.0166  0.1509
 2739TIP3   OH229707   4.720   0.562  16.083  0.7785  0.4929 -0.0255
 2739TIP3    H129708   4.677   0.517  16.010  0.7331  0.2825  0.1287
 2739TIP3    H229709   4.783   0.498  16.116  0.0356  0.1853  0.8137
 2740TIP3   OH229710   4.836   0.290  10.999  0.1638  0.3012 -0.2268
 2740TIP3    H129711   4.778   0.240  11.056  1.4899 -0.5165  0.4676
 2740TIP3    H229712   4.780   0.357  10.960 -1.5732 -1.4240 -0.8282
 2741TIP3   OH229713   4.498   3.723   0.957  0.0378  0.4723 -0.0846
 2741TIP3    H129714   4.531   3.692   0.872 -0.6477 -1.3939  0.2906
 2741TIP3    H229715   4.403   3.720   0.947 -0.0580 -0.6723  1.0523
 2742TIP3   OH229716   0.621   3.845   0.809  0.3948 -0.0942  0.3082
 2742TIP3    H129717   0.579   3.817   0.728 -0.3333  1.2634  0.1926
 2742TIP3    H229718   0.674   3.921   0.784 -0.9020  1.1847  1.3270
 2743TIP3   OH229719   5.781   5.313  11.249  0.5960  0.6511  0.3794
 2743TIP3    H129720   5.784   5.344  11.158 -2.7683  2.2696  0.6619
 2743TIP3    H229721   5.788   5.218  11.242 -0.6985  0.6300 -1.7319
 2744TIP3   OH229722   0.374   3.310  14.951  0.4776  0.6073 -0.0399
 2744TIP3    H129723   0.279   3.318  14.955  0.5098  2.2301 -1.5018
 2744TIP3    H229724   0.390   3.253  14.875  0.6768 -1.4283  1.4389
 2745TIP3   OH229725   1.138   0.780   4.767 -0.3740  0.0052 -0.3186
 2745TIP3    H129726   1.161   0.870   4.744 -1.1257  0.0395 -0.9734
 2745TIP3    H229727   1.111   0.740   4.684 -0.2995 -0.7448  0.0121
 2746TIP3   OH229728   3.740   2.832   3.122 -0.4861  0.4076  0.4345
 2746TIP3    H129729   3.678   2.782   3.069  1.2559  0.3740 -1.6966
 2746TIP3    H229730   3.741   2.919   3.083  0.3466  0.5794  0.8184
 2747TIP3   OH229731   3.707   0.125  14.345  0.4935  0.5161  0.0974
 2747TIP3    H129732   3.778   0.165  14.295 -0.2917 -0.3537 -1.7801
 2747TIP3    H229733   3.706   0.174  14.427  2.2297  1.5833 -0.4614
 2748TIP3   OH229734   5.793   4.366  17.118  0.6157  0.0314  0.2967
 2748TIP3    H129735   5.864   4.302  17.123  0.1098 -0.5969 -0.4052
 2748TIP3    H229736   5.815   4.421  17.044  1.3805  1.0968  1.2867
 2749TIP3   OH229737   1.051   1.916   3.987  0.3940 -0.1594  0.4419
 2749TIP3    H129738   1.073   1.863   4.063  0.6476  3.2272  2.9584
 2749TIP3    H229739   1.129   1.915   3.933  0.4626 -2.0497  0.4976
 2750TIP3   OH229740   1.004   1.219  12.884  0.0992 -0.2049 -0.6240
 2750TIP3    H129741   0.935   1.227  12.818  1.4450  3.1621 -1.8855
 2750TIP3    H229742   1.084   1.204  12.833  0.6970 -1.2567  0.5749
 2751TIP3   OH229743   3.149   6.746  11.780  0.1235  0.3798  0.0467
 2751TIP3    H129744   3.197   6.821  11.744 -0.0005  0.0740 -0.7684
 2751TIP3    H229745   3.212   6.674  11.776 -0.7073 -0.2925 -2.0479
 2752TIP3   OH229746   3.765   2.014   1.977  0.3518 -0.2664  0.5243
 2752TIP3    H129747   3.745   1.948   1.910 -0.1520 -0.6619  1.0550
 2752TIP3    H229748   3.861   2.011   1.985  0.3728 -0.5859  0.1926
 2753TIP3   OH229749   1.426   5.667   3.797  0.1612 -0.1082  0.3315
 2753TIP3    H129750   1.358   5.602   3.779 -0.9725  1.4634 -1.3723
 2753TIP3    H229751   1.507   5.625   3.769 -0.5684 -0.7893 -0.8675
 2754TIP3   OH229752   3.700   0.773  14.131  0.5071  0.6221  0.0756
 2754TIP3    H129753   3.642   0.744  14.201 -0.7520  1.5925 -0.5317
 2754TIP3    H229754   3.726   0.693  14.086 -1.9588  0.2716 -0.8547
 2755TIP3   OH229755   1.224   4.385   2.500  0.4397  0.1906  0.2109
 2755TIP3    H129756   1.226   4.463   2.556 -1.8486  0.9311 -0.6218
 2755TIP3    H229757   1.290   4.403   2.433  1.2346  0.5560  1.0670
 2756TIP3   OH229758   6.397   3.340   0.459 -0.3591 -0.6069  0.6851
 2756TIP3    H129759   6.313   3.317   0.497  0.7045 -1.6886  2.5156
 2756TIP3    H229760   6.457   3.347   0.533  0.7282  2.4111 -0.3305
 2757TIP3   OH229761   1.507   5.935   2.887  0.2259  0.4971 -0.4705
 2757TIP3    H129762   1.436   5.951   2.826  1.4591 -0.8761 -2.3755
 2757TIP3    H229763   1.578   5.991   2.857  0.7465  0.0467 -0.1015
 2758TIP3   OH229764   6.238   3.127  12.316 -0.0989  0.2338 -0.1844
 2758TIP3    H129765   6.255   3.099  12.226  0.3273 -0.6431  0.1554
 2758TIP3    H229766   6.246   3.223  12.313  0.4656  0.1734 -0.9588
 2759TIP3   OH229767   1.632   6.632  10.808 -0.4376  0.2071 -0.2203
 2759TIP3    H129768   1.706   6.582  10.844  0.5059  0.9316 -1.0711
 2759TIP3    H229769   1.571   6.566  10.777  1.7506 -0.6059 -3.3474
 2760TIP3   OH229770   1.676   3.283   2.109 -0.0626 -0.3419  0.2533
 2760TIP3    H129771   1.588   3.275   2.072 -0.4020  0.4448  0.8640
 2760TIP3    H229772   1.720   3.348   2.053  0.1973 -0.8585 -0.1542
 2761TIP3   OH229773   5.186   4.071   1.406  0.4654  0.7959 -0.0755
 2761TIP3    H129774   5.104   4.118   1.419  0.1619  0.4710 -0.7553
 2761TIP3    H229775   5.235   4.125   1.344 -0.5267 -0.4950 -2.0841
 2762TIP3   OH229776   0.335   6.173  15.983 -0.4208 -0.6314  0.2984
 2762TIP3    H129777   0.250   6.186  15.941 -0.6036 -1.8788  0.2608
 2762TIP3    H229778   0.314   6.163  16.076 -0.4088 -1.7376  0.1923
 2763TIP3   OH229779   3.119   1.031  16.879 -0.1323  0.0969  0.1147
 2763TIP3    H129780   3.136   1.045  16.786  0.8673 -1.7147 -0.0058
 2763TIP3    H229781   3.151   0.943  16.897 -0.0192  0.5183  2.2499
 2764TIP3   OH229782   1.720   0.233  13.956  0.4681 -0.4063  0.1782
 2764TIP3    H129783   1.745   0.306  14.012  2.0807 -1.0632  0.3528
 2764TIP3    H229784   1.647   0.267  13.904  0.6982  1.0765  0.7809
 2765TIP3   OH229785   3.488   2.181  11.651 -0.3056  0.9103  0.0268
 2765TIP3    H129786   3.444   2.238  11.588  1.0182  1.2978 -0.5781
 2765TIP3    H229787   3.582   2.197  11.637  0.1247 -1.3644 -0.1448
 2766TIP3   OH229788   5.171   5.608  11.536  0.1295 -0.2613  0.1220
 2766TIP3    H129789   5.212   5.663  11.469 -0.8463  1.1635  0.6378
 2766TIP3    H229790   5.077   5.614  11.517 -0.0205 -1.5664  0.3592
 2767TIP3   OH229791   6.474   6.672   2.747  0.0510 -0.0542  0.8914
 2767TIP3    H129792   6.425   6.732   2.691  0.5505  0.1261  0.6384
 2767TIP3    H229793   6.407   6.623   2.795 -0.3816  1.8814  2.3801
 2768TIP3   OH229794   6.668   2.896   5.024 -0.3732  0.1257 -0.3655
 2768TIP3    H129795   6.723   2.867   5.096 -1.0778 -0.2157  0.0487
 2768TIP3    H229796   6.594   2.940   5.066 -1.3401 -1.0078 -0.8079
 2769TIP3   OH229797   3.127   6.296   3.621 -0.1652  0.1622  0.7466
 2769TIP3    H129798   3.086   6.377   3.652 -1.1113  0.7064 -1.6777
 2769TIP3    H229799   3.064   6.227   3.642 -0.2617  0.3439  1.0531
 2770TIP3   OH229800   0.040   3.852   6.652 -0.1371  0.0367 -0.8431
 2770TIP3    H129801  -0.055   3.856   6.656 -0.1233 -0.4739  0.5083
 2770TIP3    H229802   0.070   3.938   6.681 -0.1823 -0.3171  0.2941
 2771TIP3   OH229803   6.459   4.774  16.553  0.4871 -0.2299  0.0285
 2771TIP3    H129804   6.407   4.748  16.477  0.2175 -1.5435  0.6306
 2771TIP3    H229805   6.451   4.700  16.614 -0.6631  1.4435  2.0459
 2772TIP3   OH229806   5.753   2.909   2.800 -0.3273  0.8132 -0.1245
 2772TIP3    H129807   5.794   2.863   2.726  1.3813  1.6034  0.2685
 2772TIP3    H229808   5.743   2.999   2.769  0.8274  1.2575  0.7221
 2773TIP3   OH229809   4.360   0.903   2.873 -0.3360  0.0731 -0.1908
 2773TIP3    H129810   4.291   0.837   2.865 -0.1753 -0.2485  1.0299
 2773TIP3    H229811   4.380   0.907   2.966  0.1682  1.3331 -0.3328
 2774TIP3   OH229812   1.092   3.194   4.801 -0.4129  0.2111 -0.2517
 2774TIP3    H129813   1.187   3.208   4.795 -0.5249  0.6907 -1.0700
 2774TIP3    H229814   1.065   3.172   4.712 -1.1886  0.8597 -0.1890
 2775TIP3   OH229815   2.075   5.628  14.757 -0.1423 -0.4205 -0.5827
 2775TIP3    H129816   2.119   5.616  14.673 -1.5020 -1.9195 -1.1322
 2775TIP3    H229817   1.996   5.678  14.735  0.9631  1.8445  0.3187
 2776TIP3   OH229818   3.757   2.667   4.660  0.0274 -0.3229  0.4229
 2776TIP3    H129819   3.761   2.652   4.565 -0.1796 -0.4941  0.4401
 2776TIP3    H229820   3.700   2.743   4.670  1.5370  0.8625  0.2992
 2777TIP3   OH229821   4.676   5.697  17.084  0.0525 -0.7603 -0.2273
 2777TIP3    H129822   4.702   5.727  17.171 -0.0820  0.0813 -0.4699
 2777TIP3    H229823   4.653   5.605  17.097  0.5717 -0.8009  0.5131
 2778TIP3   OH229824   4.077   0.594   1.879 -0.0813  0.1205  0.3281
 2778TIP3    H129825   4.002   0.646   1.910  0.4394 -0.0400  1.9755
 2778TIP3    H229826   4.151   0.626   1.932  1.1585  0.6267 -1.5958
 2779TIP3   OH229827   2.351   3.498  14.276 -0.2640 -0.3130 -0.3903
 2779TIP3    H129828   2.422   3.525  14.218 -0.2910 -0.0928 -0.3242
 2779TIP3    H229829   2.311   3.423  14.232  1.3092 -1.7927  0.5461
 2780TIP3   OH229830   3.839   4.516  13.170  0.9042 -0.1919 -0.0602
 2780TIP3    H129831   3.893   4.594  13.183  0.7996 -0.3119  1.1697
 2780TIP3    H229832   3.776   4.542  13.102  0.3140  1.0997  0.9466
 2781TIP3   OH229833   1.507   5.695   2.604 -1.0658  0.3199  0.3013
 2781TIP3    H129834   1.541   5.777   2.641  0.9412  0.2573 -1.2695
 2781TIP3    H229835   1.469   5.721   2.520 -0.7945 -0.2829 -0.0095
 2782TIP3   OH229836   0.840   1.844   0.891 -0.2984  0.3238 -0.5193
 2782TIP3    H129837   0.836   1.800   0.806 -0.2156 -0.1419 -0.2841
 2782TIP3    H229838   0.883   1.927   0.872 -0.1532  0.1660 -0.9101
 2783TIP3   OH229839   4.389   1.929  12.586  0.1565 -0.2542 -0.6672
 2783TIP3    H129840   4.421   1.961  12.671 -0.2781 -0.5549 -0.3891
 2783TIP3    H229841   4.299   1.902  12.603 -0.0180 -0.0754 -1.2871
 2784TIP3   OH229842   3.747   4.577  15.270  0.5105 -0.0413 -0.4066
 2784TIP3    H129843   3.740   4.671  15.285  0.6656  0.4219 -2.8542
 2784TIP3    H229844   3.661   4.551  15.238  0.5423 -0.7098  0.0249
 2785TIP3   OH229845   1.629   5.313   1.367 -0.0201  0.1513 -0.0286
 2785TIP3    H129846   1.584   5.258   1.431 -0.4674 -1.5934 -1.7660
 2785TIP3    H229847   1.561   5.339   1.305  0.8430 -0.2298 -1.1636
 2786TIP3   OH229848   4.364   6.157   4.823  0.4104 -0.1401 -0.4020
 2786TIP3    H129849   4.453   6.158   4.788 -0.2005 -1.0889 -2.1601
 2786TIP3    H229850   4.325   6.239   4.791  0.4950  0.0285 -0.0759
 2787TIP3   OH229851   5.489   2.023  12.000 -0.1057  0.3664 -0.2973
 2787TIP3    H129852   5.407   2.009  12.048 -0.3561 -0.9777 -1.0563
 2787TIP3    H229853   5.553   2.043  12.067 -0.6677 -0.4211  0.4987
 2788TIP3   OH229854   5.530   5.281  12.132  0.5590 -0.0159  0.7368
 2788TIP3    H129855   5.602   5.342  12.146 -0.3393  1.0336  0.9517
 2788TIP3    H229856   5.457   5.318  12.181 -0.7435  0.1356 -1.1714
 2789TIP3   OH229857   2.946   5.707   3.603  0.3616  0.0086 -0.1002
 2789TIP3    H129858   2.964   5.615   3.621  0.8280  0.2337  0.5970
 2789TIP3    H229859   2.908   5.741   3.683  0.0355  0.3853 -0.4096
 2790TIP3   OH229860   6.688   5.787  17.093 -0.4804 -0.4877  0.2712
 2790TIP3    H129861   6.608   5.740  17.119 -0.4917  0.4000  1.9479
 2790TIP3    H229862   6.661   5.878  17.086  0.1469 -0.3377 -0.2729
 2791TIP3   OH229863   4.416   0.547   0.530  0.1766 -0.6332  0.4750
 2791TIP3    H129864   4.497   0.499   0.541  0.9016  0.6284  0.8962
 2791TIP3    H229865   4.352   0.482   0.501  0.9999 -1.8969  1.4274
 2792TIP3   OH229866   0.865   1.444  12.337 -0.1924  0.6398 -1.3246
 2792TIP3    H129867   0.915   1.414  12.262 -0.4294 -2.0989 -0.4992
 2792TIP3    H229868   0.789   1.387  12.340 -0.2742  0.7619  0.8817
 2793TIP3   OH229869   6.237   6.822   2.652 -0.2454 -0.8320 -0.3044
 2793TIP3    H129870   6.180   6.783   2.586 -0.5939 -0.5049 -0.2020
 2793TIP3    H229871   6.288   6.888   2.605  0.2731 -1.3365 -0.4576
 2794TIP3   OH229872   0.243   6.782  12.373 -0.1105 -0.7016 -0.1187
 2794TIP3    H129873   0.244   6.737  12.288 -1.6848  3.1999 -2.4477
 2794TIP3    H229874   0.319   6.840  12.369 -0.6646  0.0998  0.7716
 2795TIP3   OH229875   4.240   5.982   0.468 -0.2298 -0.1058  0.3299
 2795TIP3    H129876   4.308   5.973   0.401 -1.0014  0.8806 -0.6306
 2795TIP3    H229877   4.224   5.893   0.499  0.6826 -0.4892 -0.2623
 2796TIP3   OH229878   1.998   5.344   4.085 -0.0849 -0.1822  0.2283
 2796TIP3    H129879   1.945   5.363   4.007  1.1287 -0.4074 -0.6805
 2796TIP3    H229880   2.039   5.260   4.067 -0.3615 -0.5999  1.4467
 2797TIP3   OH229881   4.772   6.269   6.491  0.6202 -0.5481  0.0151
 2797TIP3    H129882   4.864   6.289   6.507  0.0303  2.4314  0.2727
 2797TIP3    H229883   4.725   6.348   6.518 -2.0448 -1.9666 -0.0828
 2798TIP3   OH229884   6.717   4.401   1.734  0.4530 -0.2513 -0.3825
 2798TIP3    H129885   6.646   4.464   1.733  0.1430 -0.5882  0.0952
 2798TIP3    H229886   6.796   4.454   1.747  0.4224  0.2330 -1.9331
 2799TIP3   OH229887   2.663   3.074  17.139  0.1833  0.3657  0.2082
 2799TIP3    H129888   2.681   3.112  17.225 -0.7043  0.5836  0.3090
 2799TIP3    H229889   2.727   3.116  17.081  2.6114 -1.7438  1.1702
 2800TIP3   OH229890   1.211   3.201  12.644  0.2740 -0.3033  0.0036
 2800TIP3    H129891   1.286   3.235  12.693  0.8513  0.5070 -1.4082
 2800TIP3    H229892   1.142   3.266  12.658  0.2004 -0.4452  0.3210
 2801TIP3   OH229893   5.402   5.586   5.806  0.0777 -0.1074  0.9440
 2801TIP3    H129894   5.320   5.539   5.793 -0.7943  1.4206  0.7113
 2801TIP3    H229895   5.428   5.614   5.718  0.9257 -0.6857  0.9989
 2802TIP3   OH229896   4.894   3.257  14.322 -0.1650  0.0188 -0.7366
 2802TIP3    H129897   4.858   3.329  14.271 -0.0330 -0.3480 -1.3470
 2802TIP3    H229898   4.975   3.292  14.359 -1.1273  0.8659  0.6864
 2803TIP3   OH229899   4.304   0.670  13.651  0.0421  0.3806 -0.6058
 2803TIP3    H129900   4.368   0.707  13.590  0.9319  0.8662  0.6055
 2803TIP3    H229901   4.355   0.639  13.725 -1.0488 -0.0236  0.0054
 2804TIP3   OH229902   0.276   2.097   5.783 -0.1634 -0.0312 -0.0089
 2804TIP3    H129903   0.308   2.137   5.702 -0.1904  1.2009  0.5723
 2804TIP3    H229904   0.356   2.072   5.831 -0.1334  0.1340  0.0257
 2805TIP3   OH229905   1.731   1.057   2.668  0.1092 -0.0072 -0.1721
 2805TIP3    H129906   1.647   1.045   2.714  0.6371  0.2182  0.8751
 2805TIP3    H229907   1.769   0.969   2.665  1.1987  0.3161  2.0824
 2806TIP3   OH229908   2.069   0.282  13.602  0.0121  0.0162 -0.3807
 2806TIP3    H129909   2.020   0.271  13.684  0.1909 -0.4496 -0.3311
 2806TIP3    H229910   2.141   0.219  13.609  1.3219  1.5073  0.0678
 2807TIP3   OH229911   2.969   0.181  14.318  0.0736  0.2189  0.1781
 2807TIP3    H129912   2.902   0.181  14.387 -0.5418  0.2025 -0.4076
 2807TIP3    H229913   2.995   0.090  14.310 -0.9881 -0.0315 -0.6727
 2808TIP3   OH229914   2.098   6.669   3.278  0.0413 -0.1806 -0.1258
 2808TIP3    H129915   2.150   6.749   3.288 -3.2808  2.1091  0.3119
 2808TIP3    H229916   2.091   6.657   3.183  0.4669  0.1082 -0.1980
 2809TIP3   OH229917   6.005   0.287   5.585 -0.6267 -0.3597  0.2630
 2809TIP3    H129918   5.950   0.276   5.663 -1.5748 -2.3664 -0.6342
 2809TIP3    H229919   5.999   0.380   5.564 -1.6644 -0.0944  1.6341
 2810TIP3   OH229920   1.573   0.837   1.887  0.0523 -0.0103  0.8864
 2810TIP3    H129921   1.609   0.839   1.976  0.2315  0.3083  0.8084
 2810TIP3    H229922   1.623   0.903   1.840 -0.2424  0.0260  0.6235
 2811TIP3   OH229923   0.731   5.164   0.134 -0.6710  0.3814  0.1460
 2811TIP3    H129924   0.807   5.197   0.181 -0.1776 -0.3758 -0.0916
 2811TIP3    H229925   0.719   5.224   0.061 -0.1592  0.3785  0.0579
 2812TIP3   OH229926   0.524   1.962  15.527  0.3091 -0.3387 -0.3719
 2812TIP3    H129927   0.470   1.984  15.604  0.5096  0.4011 -0.4347
 2812TIP3    H229928   0.540   1.868  15.535  2.2941  0.0932  1.7704
 2813TIP3   OH229929   2.297   1.812  15.519  0.3494  0.0511 -0.2179
 2813TIP3    H129930   2.374   1.843  15.471 -1.3624  0.8490 -2.6430
 2813TIP3    H229931   2.232   1.793  15.451 -1.7048 -0.3661  1.7296
 2814TIP3   OH229932   2.163   1.022  15.914 -0.0342  0.9476 -0.1700
 2814TIP3    H129933   2.080   0.975  15.920  1.0836 -1.0107  0.9631
 2814TIP3    H229934   2.176   1.060  16.000  0.6179  0.5242 -0.0696
 2815TIP3   OH229935   1.137   5.520  15.897 -0.0791 -0.1904 -0.6912
 2815TIP3    H129936   1.191   5.535  15.819 -1.1020 -0.3427 -1.4490
 2815TIP3    H229937   1.078   5.595  15.900 -0.4994 -0.5305 -0.4565
 2816TIP3   OH229938   4.726   0.136   0.566 -0.2123  0.2024 -0.0456
 2816TIP3    H129939   4.786   0.063   0.551  0.3472  0.8308 -0.9956
 2816TIP3    H229940   4.666   0.104   0.633  1.8372 -0.0664  1.7701
 2817TIP3   OH229941   4.977   6.676  11.406  0.2387  0.2847  0.3385
 2817TIP3    H129942   5.073   6.670  11.401  0.1602 -1.0056 -0.0693
 2817TIP3    H229943   4.946   6.629  11.329 -0.7410 -0.9372  1.4217
 2818TIP3   OH229944   5.991   3.036  14.936 -0.0643  0.3604 -0.1834
 2818TIP3    H129945   5.963   3.097  14.868 -1.6089 -0.0676  0.0357
 2818TIP3    H229946   5.955   2.951  14.908  0.5909 -0.1155  0.3929
 2819TIP3   OH229947   3.983   5.415  13.247  0.5568  0.4148  0.1941
 2819TIP3    H129948   3.890   5.411  13.223  0.8229 -0.0656 -0.8322
 2819TIP3    H229949   3.983   5.435  13.340 -0.5228  4.7157 -0.5454
 2820TIP3   OH229950   6.307   2.654   2.862 -0.1072 -0.1590  0.2416
 2820TIP3    H129951   6.331   2.578   2.810  0.9254 -0.6409  1.3846
 2820TIP3    H229952   6.304   2.621   2.952  0.2385  1.1194  0.7386
 2821TIP3   OH229953   1.204   3.340  16.633 -0.5470  0.1671  0.3373
 2821TIP3    H129954   1.269   3.303  16.693 -1.0574 -0.2482  0.6412
 2821TIP3    H229955   1.256   3.389  16.569  0.4116 -3.0994 -1.6082
 2822TIP3   OH229956   5.747   1.372   0.623 -0.4458  0.5055  0.3839
 2822TIP3    H129957   5.714   1.289   0.589  1.2814 -0.4782  1.0117
 2822TIP3    H229958   5.733   1.367   0.718 -0.4743  0.9967  0.4090
 2823TIP3   OH229959   1.759   2.816   5.793 -0.1163  0.2372  0.6081
 2823TIP3    H129960   1.699   2.820   5.718 -0.9367 -0.1045  1.2350
 2823TIP3    H229961   1.793   2.726   5.791 -0.2119  0.1993  0.7060
 2824TIP3   OH229962   1.004   2.009   5.338 -0.1824 -0.0522 -0.6884
 2824TIP3    H129963   0.910   2.003   5.353 -0.6284 -1.0305 -3.4022
 2824TIP3    H229964   1.024   1.936   5.279  2.0269  1.0051 -1.3608
 2825TIP3   OH229965   5.815   2.397   2.041 -0.4215 -0.3548  0.0460
 2825TIP3    H129966   5.738   2.452   2.057 -0.0521 -0.0630  0.8443
 2825TIP3    H229967   5.780   2.322   1.993 -1.1327 -0.0190  0.0143
 2826TIP3   OH229968   3.438   5.842  16.484  0.8563  0.6928  0.3073
 2826TIP3    H129969   3.407   5.837  16.394  0.6213  0.2281  0.4132
 2826TIP3    H229970   3.427   5.753  16.518  0.4780  0.9801  0.9480
 2827TIP3   OH229971   1.274   4.780  12.141  0.2040  0.0031 -0.2179
 2827TIP3    H129972   1.324   4.701  12.125  0.0276 -0.1183 -0.1777
 2827TIP3    H229973   1.192   4.768  12.092 -0.2359 -0.2669  0.5575
 2828TIP3   OH229974   2.967   0.503  16.642  0.3634  0.0768  0.2295
 2828TIP3    H129975   3.004   0.458  16.717  0.6124  2.7194  1.8237
 2828TIP3    H229976   2.891   0.450  16.617  1.5930 -2.0915  0.8205
 2829TIP3   OH229977   3.079   5.256   6.330  0.6227 -0.8946 -0.5136
 2829TIP3    H129978   3.151   5.268   6.392  0.6361 -1.1803 -0.4713
 2829TIP3    H229979   3.000   5.268   6.382  0.6378 -0.1141 -0.6563
 2830TIP3   OH229980   4.602   2.613  13.925 -0.6775 -0.1553  0.2927
 2830TIP3    H129981   4.689   2.597  13.889 -0.3044 -0.2522  1.2030
 2830TIP3    H229982   4.581   2.702  13.898  0.2726  0.3549  1.1584
 2831TIP3   OH229983   5.952   3.156  13.810  0.0072  0.0377 -0.4344
 2831TIP3    H129984   5.874   3.112  13.843 -0.2755 -0.1931 -1.4046
 2831TIP3    H229985   5.936   3.249  13.827  0.4844 -0.1552  1.3530
 2832TIP3   OH229986   1.901   6.090  17.113 -0.5123  0.0385  0.1985
 2832TIP3    H129987   1.815   6.117  17.083 -0.6675 -0.6395  0.0159
 2832TIP3    H229988   1.962   6.129  17.051 -0.7784 -0.6103 -0.4822
 2833TIP3   OH229989   5.078   5.373  11.921  0.0006  0.3514 -0.3285
 2833TIP3    H129990   5.076   5.469  11.925  2.5329  0.4288  0.4689
 2833TIP3    H229991   5.097   5.354  11.829 -1.9697  0.5068 -0.8156
 2834TIP3   OH229992   0.232   3.207  13.102  0.4036  0.1709 -0.6106
 2834TIP3    H129993   0.324   3.191  13.119 -0.3590 -1.3862  2.8129
 2834TIP3    H229994   0.219   3.300  13.123  1.2328  0.5755 -1.7613
 2835TIP3   OH229995   2.826   6.082  12.235  0.2878  0.0542  0.5842
 2835TIP3    H129996   2.874   6.117  12.160 -0.3717 -1.9494 -0.8450
 2835TIP3    H229997   2.808   6.159  12.290  1.2670  1.4875 -1.0121
 2836TIP3   OH229998   6.423   3.417   3.573 -0.2435  0.0003  0.6103
 2836TIP3    H129999   6.481   3.492   3.584 -0.8274  0.2306  2.5002
 2836TIP3    H230000   6.379   3.433   3.489  0.6899  1.0132  0.2923
 2837TIP3   OH230001   4.379   2.600   1.211 -0.3928  0.0455 -0.0489
 2837TIP3    H130002   4.385   2.532   1.278  0.2806  0.4067  0.2620
 2837TIP3    H230003   4.456   2.587   1.157 -0.2199  0.6136  0.0592
 2838TIP3   OH230004   5.844   2.579  15.140 -0.2328  0.7690  0.8368
 2838TIP3    H130005   5.870   2.557  15.229  0.6802 -1.3592  0.1121
 2838TIP3    H230006   5.862   2.499  15.089 -2.1624  1.3735 -0.9684
 2839TIP3   OH230007   6.436   4.018  13.095  0.6231  0.0249  0.6068
 2839TIP3    H130008   6.494   4.056  13.030  2.2110  0.0896  2.0156
 2839TIP3    H230009   6.350   4.016  13.052  1.8169 -1.0466 -1.9202
 2840TIP3   OH230010   4.235   3.354   1.199  0.2430  0.1760 -0.9679
 2840TIP3    H130011   4.224   3.259   1.208  0.2456  0.2098 -0.5487
 2840TIP3    H230012   4.263   3.383   1.286 -1.3880  0.7769 -0.6037
 2841TIP3   OH230013   1.804   0.848  15.252 -0.7668 -0.4824  0.0861
 2841TIP3    H130014   1.853   0.892  15.182 -0.6996  0.4651  0.7074
 2841TIP3    H230015   1.864   0.850  15.328 -1.2034 -0.6303  0.4388
 2842TIP3   OH230016   3.928   5.544   3.920  0.3917 -0.0856 -0.0569
 2842TIP3    H130017   3.981   5.568   3.996 -1.2216  0.2171  1.0170
 2842TIP3    H230018   3.903   5.453   3.935  1.6564 -0.6787 -1.2362
 2843TIP3   OH230019   4.760   5.226  16.947 -0.4593  0.9910 -0.1933
 2843TIP3    H130020   4.824   5.157  16.929  1.1957  2.5884 -0.7312
 2843TIP3    H230021   4.694   5.184  17.002 -0.9926 -1.7448 -2.6795
 2844TIP3   OH230022   3.549   5.924   4.673 -0.3544 -0.4506  0.8478
 2844TIP3    H130023   3.609   5.907   4.600 -1.6800  1.1188 -0.6855
 2844TIP3    H230024   3.520   5.837   4.701  0.4095 -1.0969 -0.2970
 2845TIP3   OH230025   5.866   5.271   3.935 -0.4695 -0.2766 -0.7716
 2845TIP3    H130026   5.942   5.330   3.927  1.1306 -2.1570 -0.2843
 2845TIP3    H230027   5.820   5.302   4.013  0.3316  0.3535 -0.5349
 2846TIP3   OH230028   3.007   4.215   0.644 -0.1527  0.1524 -0.3229
 2846TIP3    H130029   3.017   4.240   0.736 -0.1248  0.4122 -0.3977
 2846TIP3    H230030   3.067   4.141   0.633 -0.8321 -0.4800  0.1051
 2847TIP3   OH230031   1.438   5.916  12.703 -0.3359  0.3453 -0.0421
 2847TIP3    H130032   1.389   5.985  12.657 -0.0985 -0.6360 -1.8541
 2847TIP3    H230033   1.528   5.948  12.704 -0.3805  0.4733 -0.0400
 2848TIP3   OH230034   0.273   2.017  14.799  0.1504  0.4959 -0.0915
 2848TIP3    H130035   0.228   2.099  14.817 -0.7575  0.2949 -1.3130
 2848TIP3    H230036   0.351   2.020  14.855 -0.2229  1.8590  0.4045
 2849TIP3   OH230037   4.563   0.838  13.314  0.5186 -0.5545 -0.2313
 2849TIP3    H130038   4.492   0.774  13.317  1.1336 -1.2957 -0.8106
 2849TIP3    H230039   4.521   0.919  13.287  0.0821 -1.3053 -1.9551
 2850TIP3   OH230040   3.396   2.136  11.102 -0.4733 -0.2789 -0.2253
 2850TIP3    H130041   3.453   2.177  11.037 -0.9267  1.1553  0.2308
 2850TIP3    H230042   3.436   2.051  11.119  1.2770  0.4932 -0.2627
 2851TIP3   OH230043   1.747   4.399   0.875  0.5059  0.0044  0.1488
 2851TIP3    H130044   1.730   4.493   0.884 -1.4380 -0.2098 -0.9018
 2851TIP3    H230045   1.688   4.358   0.938  0.2461 -0.5897 -0.4812
 2852TIP3   OH230046   5.910   6.718   1.781  0.1422  0.2509 -0.2605
 2852TIP3    H130047   5.972   6.730   1.852 -1.0400 -2.7829  1.5022
 2852TIP3    H230048   5.824   6.720   1.823 -0.8174  1.2114 -2.1171
 2853TIP3   OH230049   5.770   5.240  14.543  0.0097 -0.4446 -0.2572
 2853TIP3    H130050   5.751   5.273  14.456 -0.1200 -0.5842 -0.2817
 2853TIP3    H230051   5.776   5.318  14.598  0.1598 -0.3530 -0.4048
 2854TIP3   OH230052   4.126   0.986  16.150  0.3358 -0.1150  0.6376
 2854TIP3    H130053   4.210   0.939  16.147  1.0224  1.0829  0.5673
 2854TIP3    H230054   4.134   1.044  16.226 -0.6850 -0.4309  1.0064
 2855TIP3   OH230055   1.062   6.715  13.447 -0.5238 -0.1065 -0.1553
 2855TIP3    H130056   1.142   6.683  13.405  0.2698  0.8886  0.5491
 2855TIP3    H230057   1.027   6.639  13.493  2.2255  0.2567  2.8795
 2856TIP3   OH230058   0.385   6.545   3.798  0.2934 -0.1212 -0.1778
 2856TIP3    H130059   0.478   6.524   3.791  0.2169 -0.1822 -1.2911
 2856TIP3    H230060   0.372   6.566   3.890  1.4401  0.0400 -0.0311
 2857TIP3   OH230061   2.084   4.159  15.942 -0.1199 -0.3494 -0.2043
 2857TIP3    H130062   2.027   4.172  16.018  1.0195 -2.4572  1.0969
 2857TIP3    H230063   2.153   4.100  15.973  1.0609 -0.3302 -2.5668
 2858TIP3   OH230064   6.547   4.858  12.731 -0.1642  0.3762 -0.3747
 2858TIP3    H130065   6.459   4.831  12.758 -0.1380  0.5288 -0.1322
 2858TIP3    H230066   6.562   4.940  12.778  0.5522 -0.2181  0.4605
 2859TIP3   OH230067   6.191   0.606   3.697 -0.1098 -0.2161  0.6519
 2859TIP3    H130068   6.185   0.683   3.641  0.5734 -0.7908 -0.2344
 2859TIP3    H230069   6.204   0.641   3.785  1.9300  0.6715  0.0430
 2860TIP3   OH230070   0.078   0.716  13.173 -0.7906  0.0787  0.3214
 2860TIP3    H130071   0.080   0.710  13.078  0.8889  1.4595  0.2245
 2860TIP3    H230072   0.019   0.646  13.200 -0.7460 -0.8035 -1.6884
 2861TIP3   OH230073   0.227   5.488   0.772  0.1740 -0.1719  0.2098
 2861TIP3    H130074   0.148   5.538   0.795 -1.7253 -2.4886 -0.8985
 2861TIP3    H230075   0.288   5.506   0.843 -2.0577  0.2336  2.1350
 2862TIP3   OH230076   4.581   5.645  14.667  0.3467 -0.3175 -0.4848
 2862TIP3    H130077   4.506   5.593  14.637  1.3675 -1.3201 -1.3977
 2862TIP3    H230078   4.610   5.693  14.589 -0.3402  1.3782  0.2530
 2863TIP3   OH230079   4.403   2.719  16.411 -0.4561  0.3399  0.1038
 2863TIP3    H130080   4.411   2.696  16.319  1.1212  1.6935 -0.1294
 2863TIP3    H230081   4.339   2.790  16.413  0.5869  1.2997 -0.1388
 2864TIP3   OH230082   6.466   6.002  11.172 -0.4499  0.5943  0.0911
 2864TIP3    H130083   6.489   6.014  11.264  0.0756 -1.1994  0.2334
 2864TIP3    H230084   6.516   6.069  11.126  0.4261  0.5836  0.9829
 2865TIP3   OH230085   3.590   4.842  15.624  0.4043  0.2405  0.5399
 2865TIP3    H130086   3.524   4.773  15.630  0.5616  0.0716  0.3424
 2865TIP3    H230087   3.560   4.909  15.685 -0.1591  0.3395  0.1656
 2866TIP3   OH230088   3.844   6.017  15.825 -0.0627 -0.1779 -0.2387
 2866TIP3    H130089   3.852   6.054  15.737  0.2020 -0.0748 -0.1710
 2866TIP3    H230090   3.911   5.949  15.829  0.0772 -0.0278 -0.0348
 2867TIP3   OH230091   0.838   6.269   5.964  0.3453 -0.2672 -0.1474
 2867TIP3    H130092   0.847   6.350   6.015 -0.2282  0.1657 -0.7235
 2867TIP3    H230093   0.924   6.255   5.925 -0.2624  1.6443 -2.3722
 2868TIP3   OH230094   4.562   5.124  11.858  0.0121  1.1765  0.0438
 2868TIP3    H130095   4.598   5.213  11.860 -0.3027  1.2870  0.9615
 2868TIP3    H230096   4.632   5.072  11.819 -0.3544  2.0566 -1.9487
 2869TIP3   OH230097   5.876   3.466   4.345  0.2207  0.3866  0.4066
 2869TIP3    H130098   5.961   3.432   4.317 -0.5837 -2.2818  0.8642
 2869TIP3    H230099   5.896   3.526   4.416  1.8245  1.6972 -1.0594
 2870TIP3   OH230100   5.464   6.218  16.127  0.7135 -0.0341  0.4041
 2870TIP3    H130101   5.373   6.219  16.097  1.1439  2.1742 -1.0736
 2870TIP3    H230102   5.459   6.237  16.220 -0.3172  1.2757  0.1115
 2871TIP3   OH230103   6.359   1.474   1.795 -0.1006  0.2238 -0.3517
 2871TIP3    H130104   6.443   1.455   1.753 -0.6520  0.5651 -1.6939
 2871TIP3    H230105   6.328   1.390   1.829  1.2551  0.2806  1.1179
 2872TIP3   OH230106   6.627   0.340   2.562  0.3929 -0.4088 -0.3563
 2872TIP3    H130107   6.663   0.252   2.568 -2.9051 -1.9052  0.0103
 2872TIP3    H230108   6.641   0.379   2.648  0.3297 -1.2631  0.0429
 2873TIP3   OH230109   6.740   5.411   3.960  0.0540  0.0140  0.0029
 2873TIP3    H130110   6.783   5.431   3.877 -0.6381 -3.6562 -1.4326
 2873TIP3    H230111   6.812   5.387   4.018  0.3533 -1.5351 -0.9374
 2874TIP3   OH230112   4.473   0.848   3.256 -0.3312 -0.0067 -0.0446
 2874TIP3    H130113   4.474   0.853   3.352  0.4890 -0.0533 -0.0472
 2874TIP3    H230114   4.561   0.875   3.229 -1.0740  1.7136 -0.8896
 2875TIP3   OH230115   3.498   5.796   2.828  0.7187 -0.1940 -0.6258
 2875TIP3    H130116   3.469   5.794   2.737  1.1297 -0.3265 -0.7551
 2875TIP3    H230117   3.591   5.777   2.824  0.2764 -2.9057  0.0351
 2876TIP3   OH230118   3.608   3.425  12.317  0.0717 -0.3525 -0.0942
 2876TIP3    H130119   3.581   3.490  12.381  0.6726  0.0263 -0.2146
 2876TIP3    H230120   3.593   3.466  12.232  0.2883 -0.4301 -0.1729
 2877TIP3   OH230121   2.893   2.345  12.644  0.9466  0.0776  0.3418
 2877TIP3    H130122   2.943   2.270  12.611 -0.8866 -0.4686 -1.4104
 2877TIP3    H230123   2.837   2.371  12.570 -0.8009  1.1240  1.9407
 2878TIP3   OH230124   0.602   1.865  14.130 -0.0755 -1.0135  0.3123
 2878TIP3    H130125   0.640   1.899  14.212  1.2871 -0.9941 -0.2947
 2878TIP3    H230126   0.586   1.943  14.077  0.0484 -1.0991  0.1485
 2879TIP3   OH230127   3.316   3.063  15.497 -0.4801  0.0553 -0.5502
 2879TIP3    H130128   3.337   3.032  15.409  1.7326  1.7943 -0.7173
 2879TIP3    H230129   3.227   3.096  15.490 -0.2433  0.4167 -2.2209
 2880TIP3   OH230130   3.449   4.303  10.890 -0.3518 -0.4093 -0.3384
 2880TIP3    H130131   3.479   4.394  10.890  0.0997 -0.5186  1.8927
 2880TIP3    H230132   3.510   4.258  10.831  1.3215  0.1969  0.8498
 2881TIP3   OH230133   0.661   2.832   3.413 -0.2756  0.0552 -0.1578
 2881TIP3    H130134   0.604   2.883   3.356  0.1599 -1.1515 -1.7914
 2881TIP3    H230135   0.610   2.754   3.435 -0.1118  0.0861  0.3341
 2882TIP3   OH230136   2.050   0.122  16.464  0.4019  0.5456  0.1801
 2882TIP3    H130137   2.049   0.102  16.370 -2.5961 -2.0526  0.6003
 2882TIP3    H230138   2.136   0.093  16.494  1.2929  1.1113 -1.6374
 2883TIP3   OH230139   3.452   1.015   4.368  0.3056  0.1245  0.2695
 2883TIP3    H130140   3.531   0.973   4.335 -0.3329  0.0759 -1.2421
 2883TIP3    H230141   3.425   0.960   4.443  0.5520 -1.0551 -0.4868
 2884TIP3   OH230142   0.692   5.405   1.708  0.4012 -0.1393  0.2378
 2884TIP3    H130143   0.597   5.400   1.703  0.4929 -1.4722 -2.1933
 2884TIP3    H230144   0.713   5.495   1.686 -0.2886  0.0071  0.1653
 2885TIP3   OH230145   5.732   6.180  16.721  0.3371 -0.6181 -0.0145
 2885TIP3    H130146   5.639   6.198  16.710 -0.1058 -2.1751  0.9253
 2885TIP3    H230147   5.776   6.256  16.683 -1.3669  2.1888  3.0788
 2886TIP3   OH230148   6.640   5.835   4.524 -0.1427 -0.2349  0.0612
 2886TIP3    H130149   6.733   5.845   4.543 -0.3334  1.5970  0.1920
 2886TIP3    H230150   6.627   5.883   4.442 -0.8251 -1.2503 -0.4498
 2887TIP3   OH230151   6.528   2.512   6.767 -0.1329  0.8413  0.4909
 2887TIP3    H130152   6.520   2.422   6.799 -0.3420  1.1409  1.3034
 2887TIP3    H230153   6.534   2.503   6.672  2.6370 -0.2318  0.6694
 2888TIP3   OH230154   5.565   5.433  12.614 -0.0612 -0.3676 -0.1709
 2888TIP3    H130155   5.552   5.460  12.524 -2.1875 -0.6900  0.0065
 2888TIP3    H230156   5.645   5.478  12.641 -1.3895  2.7467 -1.0527
 2889TIP3   OH230157   4.173   6.529  15.217  0.3055 -0.5926 -0.2376
 2889TIP3    H130158   4.224   6.591  15.164 -1.2721  0.6767 -0.3499
 2889TIP3    H230159   4.238   6.471  15.254  1.9533  1.4856  0.3334
 2890TIP3   OH230160   3.131   3.501  15.184  0.0535  0.3139  0.4934
 2890TIP3    H130161   3.149   3.438  15.115 -0.9548 -0.0720  0.5633
 2890TIP3    H230162   3.069   3.457  15.242 -2.6315  2.1700 -0.7495
 2891TIP3   OH230163   2.148   3.118   5.113 -0.4141 -0.2199  0.1330
 2891TIP3    H130164   2.218   3.070   5.156 -0.7414 -0.8698 -0.0379
 2891TIP3    H230165   2.136   3.073   5.029 -2.2291 -1.2791  0.8866
 2892TIP3   OH230166   4.758   1.964  17.211  0.2838  0.2136  0.1501
 2892TIP3    H130167   4.664   1.975  17.197  0.0905 -2.5694 -1.3506
 2892TIP3    H230168   4.768   1.875  17.245  2.4476 -0.0653 -1.0102
 2893TIP3   OH230169   6.505   4.513   3.438  0.3975  0.2458 -0.4637
 2893TIP3    H130170   6.472   4.510   3.528  0.7301  0.7786 -0.3198
 2893TIP3    H230171   6.586   4.463   3.440  1.7685  2.3497  0.1388
 2894TIP3   OH230172   1.167   3.609   4.878  0.2933 -0.1345 -0.1962
 2894TIP3    H130173   1.146   3.532   4.931  1.0385  1.0748  1.9861
 2894TIP3    H230174   1.093   3.617   4.818 -1.2645 -0.8973  1.5122
 2895TIP3   OH230175   1.556   5.691  12.298  0.1663  0.5700 -1.2331
 2895TIP3    H130176   1.596   5.625  12.242  0.4555 -0.6669  0.3338
 2895TIP3    H230177   1.580   5.775  12.260 -1.1757 -0.1774 -3.9697
 2896TIP3   OH230178   2.635   2.873   3.699 -0.3573 -0.0287 -0.1338
 2896TIP3    H130179   2.673   2.795   3.660  1.1608 -0.4672  2.0203
 2896TIP3    H230180   2.710   2.930   3.716 -1.2885  1.2993 -0.3842
 2897TIP3   OH230181   2.501   2.652  15.134  0.3533  0.1932 -0.1008
 2897TIP3    H130182   2.537   2.704  15.063  0.5083  1.2110  0.6961
 2897TIP3    H230183   2.471   2.716  15.198 -2.6168 -0.5942 -0.5592
 2898TIP3   OH230184   6.755   2.581   3.580  0.6278  0.2361 -0.4845
 2898TIP3    H130185   6.815   2.605   3.510  0.8687 -0.2638 -0.4525
 2898TIP3    H230186   6.789   2.626   3.657 -0.1376  1.5068 -0.8471
 2899TIP3   OH230187   0.663   0.881   0.666 -0.2173 -0.0489  0.5323
 2899TIP3    H130188   0.654   0.975   0.647  1.8973 -0.0246 -0.6506
 2899TIP3    H230189   0.658   0.839   0.581  0.5123 -0.8405  0.8673
 2900TIP3   OH230190   2.549   0.144   1.293 -0.1282 -0.0048 -0.1536
 2900TIP3    H130191   2.576   0.054   1.272 -1.8652 -0.8211  0.9230
 2900TIP3    H230192   2.563   0.193   1.212  0.8303 -1.2439 -0.7633
 2901TIP3   OH230193   2.237   1.600   0.345  0.3954  0.3376  0.3959
 2901TIP3    H130194   2.216   1.611   0.438  1.2822 -0.5892  0.7258
 2901TIP3    H230195   2.190   1.671   0.301  0.1640  0.9420  1.5774
 2902TIP3   OH230196   1.107   5.853   2.118 -0.9276 -0.4571 -0.1528
 2902TIP3    H130197   1.196   5.837   2.088 -0.4904  0.1118  0.7783
 2902TIP3    H230198   1.067   5.905   2.048 -0.1056  0.3987 -0.0155
 2903TIP3   OH230199   6.798   5.046   5.700 -0.1089  0.0280 -0.2675
 2903TIP3    H130200   6.890   5.017   5.702 -0.0601  0.2318  1.0707
 2903TIP3    H230201   6.749   4.970   5.731 -0.1490  0.6951  1.4121
 2904TIP3   OH230202   2.607   3.448  16.381 -0.1582  0.1867  0.2686
 2904TIP3    H130203   2.556   3.368  16.394  1.3843 -0.7456  0.9013
 2904TIP3    H230204   2.690   3.417  16.342  0.7592  1.3616  1.2123
 2905TIP3   OH230205   0.415   4.325  16.365 -0.1853 -0.1735 -0.5594
 2905TIP3    H130206   0.390   4.413  16.393  0.6128 -0.1473  0.1179
 2905TIP3    H230207   0.390   4.268  16.438 -1.5070 -0.6570 -1.3511
 2906TIP3   OH230208   1.363   2.797   5.691  0.0988 -0.2518  0.2097
 2906TIP3    H130209   1.277   2.821   5.726 -0.2828 -2.3479  0.8014
 2906TIP3    H230210   1.414   2.878   5.696 -1.3574  0.6442  1.2863
 2907TIP3   OH230211   1.119   5.034   2.511  0.0167  0.3624  0.1741
 2907TIP3    H130212   1.175   5.064   2.439 -0.5791 -0.0530 -0.4790
 2907TIP3    H230213   1.034   5.018   2.470  0.1055 -1.4824  0.6323
 2908TIP3   OH230214   0.818   2.674  11.079  0.2619 -0.1057 -0.3629
 2908TIP3    H130215   0.736   2.646  11.037 -0.8985  1.0450  1.0358
 2908TIP3    H230216   0.874   2.700  11.006 -1.5596  1.4985 -1.2629
 2909TIP3   OH230217   5.977   4.670   5.945 -0.2015  0.1832 -0.5893
 2909TIP3    H130218   6.015   4.603   6.002 -0.8872 -0.5484 -0.9749
 2909TIP3    H230219   6.053   4.717   5.911  0.2825 -0.2381 -0.1283
 2910TIP3   OH230220   1.749   0.871  14.739 -0.2666  0.7896 -0.2023
 2910TIP3    H130221   1.741   0.777  14.757  2.6767  0.8313  2.0677
 2910TIP3    H230222   1.699   0.913  14.808  1.2665  0.8198  0.9672
 2911TIP3   OH230223   4.872   1.302   3.912 -0.0728  0.3302  0.2028
 2911TIP3    H130224   4.899   1.379   3.861 -0.5456 -0.3566 -1.1517
 2911TIP3    H230225   4.891   1.228   3.854 -1.5456 -0.4218  0.6309
 2912TIP3   OH230226   4.667   6.781  14.565  0.2386  0.8165  0.8249
 2912TIP3    H130227   4.741   6.834  14.593  1.9633 -1.9060  1.8106
 2912TIP3    H230228   4.658   6.714  14.632 -2.1826  0.1475 -0.0513
 2913TIP3   OH230229   3.009   3.680  15.910  0.1673 -0.8684 -0.4104
 2913TIP3    H130230   2.926   3.637  15.887 -0.3819  0.1204 -0.3148
 2913TIP3    H230231   2.996   3.711  15.999  0.6650 -0.7477 -0.3792
 2914TIP3   OH230232   4.055   5.553   4.155 -0.2669 -0.5376 -0.3544
 2914TIP3    H130233   4.117   5.613   4.196  0.1220 -0.9167 -0.3726
 2914TIP3    H230234   4.093   5.466   4.170 -1.5692 -0.9196  0.9886
 2915TIP3   OH230235   4.932   0.966  14.781  0.1217  1.0289  0.5447
 2915TIP3    H130236   4.970   0.898  14.836  0.4649  0.8267  0.0521
 2915TIP3    H230237   4.943   1.046  14.832  2.5251  1.2315 -0.1818
 2916TIP3   OH230238   1.926   0.648   1.651 -0.8062 -0.6490 -0.1893
 2916TIP3    H130239   1.904   0.691   1.733 -0.7715  1.1204 -1.0516
 2916TIP3    H230240   1.958   0.562   1.676 -0.1005  0.1182  1.7004
 2917TIP3   OH230241   0.713   2.674   1.549  0.4734  0.1185  0.0783
 2917TIP3    H130242   0.732   2.664   1.642 -0.5365  0.4788  0.3377
 2917TIP3    H230243   0.757   2.600   1.507 -0.0614 -0.7381  0.9876
 2918TIP3   OH230244   2.981   5.777   2.878  0.3676 -0.8151  0.7438
 2918TIP3    H130245   2.926   5.836   2.930  0.0126 -2.6752  2.6137
 2918TIP3    H230246   2.999   5.704   2.937  0.7774 -2.5816 -1.4667
 2919TIP3   OH230247   5.326   2.630   4.793  0.9792  0.0729 -0.2810
 2919TIP3    H130248   5.238   2.593   4.803 -0.3597  2.5855 -1.6462
 2919TIP3    H230249   5.379   2.583   4.857 -0.8433 -2.9585 -0.7708
 2920TIP3   OH230250   1.880   5.222   0.598 -0.2604 -0.4056  0.3491
 2920TIP3    H130251   1.851   5.311   0.614  1.1975  0.3842 -1.0707
 2920TIP3    H230252   1.929   5.227   0.516  4.2965 -1.4310  2.6573
 2921TIP3   OH230253   1.902   1.138   3.121  0.2602 -0.3481  0.2288
 2921TIP3    H130254   1.823   1.170   3.079  1.5285  3.5059  0.3675
 2921TIP3    H230255   1.965   1.126   3.050  1.1911  2.2978  0.4879
 2922TIP3   OH230256   5.679   5.035  16.188  0.2138  0.2681  0.3392
 2922TIP3    H130257   5.715   5.117  16.222 -0.1076  1.0294 -1.0546
 2922TIP3    H230258   5.664   5.053  16.095 -1.3121 -0.8653  0.3259
 2923TIP3   OH230259   0.000   1.649  11.376 -0.5138 -0.5865 -0.0024
 2923TIP3    H130260  -0.051   1.624  11.453 -4.2903 -0.8201 -2.3367
 2923TIP3    H230261  -0.028   1.738  11.356 -0.4861 -0.9065 -1.6593
 2924TIP3   OH230262   1.211   3.978   0.080 -0.0356 -0.5780 -0.0198
 2924TIP3    H130263   1.147   3.959   0.148  0.1682  0.6435  0.5427
 2924TIP3    H230264   1.170   4.047   0.027  0.5994 -0.1396  0.0454
 2925TIP3   OH230265   4.911   2.991   1.992  0.5465 -0.2570  0.2708
 2925TIP3    H130266   4.894   3.071   2.042  1.9953 -0.3895  1.0460
 2925TIP3    H230267   4.958   2.934   2.053  1.7702 -0.6982 -1.0123
 2926TIP3   OH230268   4.741   3.021   3.864 -0.7841  0.0386  0.8028
 2926TIP3    H130269   4.694   2.979   3.792 -1.8760 -1.1236  2.1432
 2926TIP3    H230270   4.687   3.095   3.888 -1.2436 -0.4877  1.4304
 2927TIP3   OH230271   4.464   0.570  11.948  0.4378 -0.3997 -0.0678
 2927TIP3    H130272   4.478   0.518  12.028  0.8765 -1.7646 -1.0026
 2927TIP3    H230273   4.368   0.578  11.941  0.2013 -3.2230 -1.1791
 2928TIP3   OH230274   2.096   0.904   0.066  0.3389  0.2077 -0.3664
 2928TIP3    H130275   2.016   0.882   0.020  0.3354 -1.6006  0.4528
 2928TIP3    H230276   2.083   0.995   0.094 -1.0612  0.2090 -0.9357
 2929TIP3   OH230277   6.633   5.985  13.378 -0.1454 -0.6564  0.1104
 2929TIP3    H130278   6.595   5.912  13.428  0.0206 -0.9845 -0.2347
 2929TIP3    H230279   6.620   5.960  13.287  0.5773 -0.6088 -0.0122
 2930TIP3   OH230280   2.353   5.609   4.102  0.4092 -0.2617 -0.3986
 2930TIP3    H130281   2.320   5.529   4.142  1.3648 -0.1491  0.6961
 2930TIP3    H230282   2.379   5.583   4.014 -1.7197 -0.5282 -0.9996
 2931TIP3   OH230283   2.570   6.079  15.166 -0.1857 -0.0757  0.2186
 2931TIP3    H130284   2.512   6.147  15.200  1.4077  0.9195  1.1059
 2931TIP3    H230285   2.520   5.998  15.176 -1.1402  0.6397  1.6383
 2932TIP3   OH230286   2.774   6.337   0.984  0.1642 -0.1744 -0.2018
 2932TIP3    H130287   2.723   6.330   1.065  0.3072 -1.4365 -0.2089
 2932TIP3    H230288   2.862   6.361   1.014 -0.5399  2.8976 -0.2412
 2933TIP3   OH230289   5.894   0.735   2.930 -0.5344  0.0881  0.3416
 2933TIP3    H130290   5.855   0.682   2.860 -0.3756  0.3427  0.0566
 2933TIP3    H230291   5.978   0.763   2.894 -0.7032  0.6994  0.4087
 2934TIP3   OH230292   0.630   0.714  12.370 -0.0262  0.0307 -0.3541
 2934TIP3    H130293   0.592   0.683  12.287 -0.5405 -0.6802  0.1337
 2934TIP3    H230294   0.667   0.799  12.349 -1.3423  0.4673 -1.0131
 2935TIP3   OH230295   6.433   6.175   1.995 -0.2586 -0.0683  0.3806
 2935TIP3    H130296   6.392   6.093   2.024  0.3702 -1.4049 -2.2539
 2935TIP3    H230297   6.524   6.168   2.023 -0.2976 -0.0649  0.5103
 2936TIP3   OH230298   2.575   1.550  12.764 -0.1286  0.2966  0.3864
 2936TIP3    H130299   2.610   1.586  12.846 -0.4737  0.9391  0.2592
 2936TIP3    H230300   2.620   1.600  12.695 -0.0912 -0.0068  0.1917
 2937TIP3   OH230301   1.938   4.863   3.607  0.1746  0.3612 -0.0115
 2937TIP3    H130302   1.972   4.791   3.554  1.4781  0.4612  0.6575
 2937TIP3    H230303   1.952   4.942   3.554  0.9714  0.3982  0.2533
 2938TIP3   OH230304   6.023   6.084   3.757 -0.0373  0.0923 -0.0845
 2938TIP3    H130305   6.040   6.070   3.664 -0.1723  1.8632 -0.4192
 2938TIP3    H230306   5.961   6.016   3.781  0.6647 -0.9269 -1.0620
 2939TIP3   OH230307   0.697   1.752   2.308  0.3273 -0.3225  0.3218
 2939TIP3    H130308   0.602   1.763   2.305  0.4469  0.8700  0.7542
 2939TIP3    H230309   0.711   1.684   2.374 -0.1038  1.3801  2.2701
 2940TIP3   OH230310   6.317   0.788   4.249  0.8614 -0.0586 -0.2569
 2940TIP3    H130311   6.307   0.772   4.155  1.5724 -1.6498 -0.0956
 2940TIP3    H230312   6.230   0.812   4.279  0.5486  0.1125 -1.2501
 2941TIP3   OH230313   1.131   3.371   0.428  0.2673 -0.2505 -0.6976
 2941TIP3    H130314   1.087   3.289   0.406  0.4267 -0.8474  1.0654
 2941TIP3    H230315   1.197   3.346   0.493  1.4552  1.0341 -1.3450
 2942TIP3   OH230316   5.890   3.126   3.590  0.3170  0.4522 -0.3933
 2942TIP3    H130317   5.846   3.143   3.506  0.4900  0.0523 -0.5632
 2942TIP3    H230318   5.946   3.203   3.603  0.6113  0.3178 -0.8485
 2943TIP3   OH230319   0.423   4.307  13.729 -0.1414  0.2061  0.5101
 2943TIP3    H130320   0.450   4.382  13.676 -1.9036  0.8284  0.4329
 2943TIP3    H230321   0.394   4.345  13.812 -0.5920 -0.4345  0.6558
 2944TIP3   OH230322   4.220   1.501  11.670 -0.1751 -0.2031  0.1116
 2944TIP3    H130323   4.229   1.579  11.724 -0.7559  0.3362 -0.5469
 2944TIP3    H230324   4.309   1.479  11.644  0.4174 -1.7068  2.9220
 2945TIP3   OH230325   2.970   6.381  14.702  0.2043  0.0364  0.8028
 2945TIP3    H130326   2.961   6.423  14.617 -1.4717  0.2677  1.0536
 2945TIP3    H230327   2.965   6.453  14.765  0.1454 -0.2522  1.1350
 2946TIP3   OH230328   2.726   2.290  16.789 -0.3267  0.3319 -0.5529
 2946TIP3    H130329   2.810   2.279  16.744 -0.9217  1.9052 -2.1278
 2946TIP3    H230330   2.746   2.350  16.861  0.3585 -1.1981  0.5973
 2947TIP3   OH230331   1.566   6.540   5.346 -0.2779 -0.9225 -0.3335
 2947TIP3    H130332   1.516   6.550   5.428  0.3632  0.3644 -0.0730
 2947TIP3    H230333   1.504   6.567   5.278 -0.2240 -0.1675 -0.0921
 2948TIP3   OH230334   6.320   2.672   3.522 -0.3233 -0.2240 -0.2416
 2948TIP3    H130335   6.304   2.665   3.428  0.2666  2.0077 -0.5560
 2948TIP3    H230336   6.297   2.762   3.544 -1.0434 -0.8584  1.9067
 2949TIP3   OH230337   0.770   3.913   2.852 -0.1104  0.0842  0.5447
 2949TIP3    H130338   0.755   3.822   2.879  2.3366 -0.2313  1.1042
 2949TIP3    H230339   0.798   3.905   2.760 -1.0519  0.4069  0.2240
 2950TIP3   OH230340   5.484   0.121  15.875 -0.8412 -0.0103  0.1653
 2950TIP3    H130341   5.559   0.063  15.864  0.1910  1.1079  1.0791
 2950TIP3    H230342   5.465   0.152  15.786  1.1030  1.2579  0.1228
 2951TIP3   OH230343   5.953   4.183  12.877 -0.1819  0.3013 -0.1572
 2951TIP3    H130344   6.023   4.121  12.856  1.1429  1.3525  1.0180
 2951TIP3    H230345   5.890   4.172  12.806  1.1292 -0.7131 -1.2194
 2952TIP3   OH230346   1.761   0.697  13.515 -0.2410  0.6561 -0.0977
 2952TIP3    H130347   1.840   0.642  13.509 -0.3372  0.6491 -2.1268
 2952TIP3    H230348   1.689   0.634  13.517 -0.2387  0.6752  0.5609
 2953TIP3   OH230349   5.615   0.285   2.018 -0.1297 -0.2304 -0.2107
 2953TIP3    H130350   5.602   0.215   1.954 -1.0323 -0.1508 -0.1354
 2953TIP3    H230351   5.537   0.340   2.009 -0.9294 -0.9227  1.8314
 2954TIP3   OH230352   1.065   5.699   3.786  0.3368  0.3531 -0.0415
 2954TIP3    H130353   1.085   5.734   3.873 -1.9029  0.1528  0.6139
 2954TIP3    H230354   1.039   5.608   3.802 -0.3786  0.3955 -0.8935
 2955TIP3   OH230355   1.269   1.534  15.853  0.0600 -0.4070  0.1741
 2955TIP3    H130356   1.324   1.610  15.868  0.8951 -0.7302 -1.0922
 2955TIP3    H230357   1.296   1.500  15.768  0.1986 -2.5432  0.9919
 2956TIP3   OH230358   5.315   3.007  16.502  0.4795 -0.2539 -0.1408
 2956TIP3    H130359   5.255   3.076  16.474  0.8869  0.7392  1.2987
 2956TIP3    H230360   5.282   2.980  16.588  1.7471 -0.0906  0.4153
 2957TIP3   OH230361   0.941   3.613   4.732  0.3982  0.7103  0.5126
 2957TIP3    H130362   0.970   3.619   4.642  1.2378 -1.4900  0.5775
 2957TIP3    H230363   0.845   3.611   4.726  0.4618 -0.5994 -0.4514
 2958TIP3   OH230364   6.536   6.429   0.087  0.7654 -0.4700 -0.1040
 2958TIP3    H130365   6.498   6.393   0.168  0.2431  0.0815 -0.0924
 2958TIP3    H230366   6.602   6.365   0.061  0.6038 -0.8959  0.4986
 2959TIP3   OH230367   6.524   4.144  15.688  0.0103  0.5235  0.1043
 2959TIP3    H130368   6.458   4.213  15.691 -0.8498 -0.1944 -1.2056
 2959TIP3    H230369   6.564   4.146  15.775  0.3989  2.9962 -0.0638
 2960TIP3   OH230370   0.034   0.629  17.030 -0.7750  0.2417  0.0578
 2960TIP3    H130371   0.045   0.681  17.110 -0.9188  2.2656 -1.1704
 2960TIP3    H230372   0.113   0.575  17.026  0.0187  1.3168  0.7232
 2961TIP3   OH230373   5.195   6.119   2.070  0.0666  0.1065  0.6615
 2961TIP3    H130374   5.156   6.074   2.145 -0.8087 -0.9687 -0.4018
 2961TIP3    H230375   5.126   6.179   2.039  0.3248  0.3486  0.5472
 2962TIP3   OH230376   4.879   4.924   2.882  0.3712 -0.1244  0.3697
 2962TIP3    H130377   4.842   4.882   2.959 -0.5766 -0.5437 -0.2951
 2962TIP3    H230378   4.915   4.852   2.830 -0.4606 -0.0504 -0.3440
 2963TIP3   OH230379   3.251   5.759   0.240 -0.3567 -0.1550  0.0344
 2963TIP3    H130380   3.324   5.805   0.282  0.7077 -1.0520 -0.7775
 2963TIP3    H230381   3.202   5.720   0.312  0.5540 -0.3980  0.5340
 2964TIP3   OH230382   5.251   6.053  15.528 -0.0961 -0.0335  0.3783
 2964TIP3    H130383   5.326   6.031  15.472  0.5453  1.7058  0.4822
 2964TIP3    H230384   5.265   6.145  15.550  0.1140 -0.8125  4.0517
 2965TIP3   OH230385   0.098   6.172   0.709  0.3940  0.1203 -0.0394
 2965TIP3    H130386   0.108   6.256   0.754  2.0312 -0.0250 -0.0828
 2965TIP3    H230387   0.063   6.195   0.623  0.2592  0.6968  0.1654
 2966TIP3   OH230388   0.065   3.667  11.742 -0.2615 -0.4562 -0.0072
 2966TIP3    H130389   0.112   3.750  11.734 -0.5691 -0.2201  0.5826
 2966TIP3    H230390   0.102   3.625  11.819 -2.2699  0.5847  1.6009
 2967TIP3   OH230391   2.466   5.213  16.555 -0.2830  0.0192  0.1657
 2967TIP3    H130392   2.535   5.260  16.508  0.0076 -0.8190 -0.2657
 2967TIP3    H230393   2.402   5.281  16.577  0.6657  0.8137  0.5801
 2968TIP3   OH230394   1.102   5.409   4.177 -0.1047  0.0847 -0.3037
 2968TIP3    H130395   1.191   5.427   4.148 -1.3692  4.0895 -2.5047
 2968TIP3    H230396   1.087   5.469   4.250 -1.2573  0.2341 -0.6300
 2969TIP3   OH230397   2.452   5.322   2.188  0.7041 -0.5505 -0.1625
 2969TIP3    H130398   2.514   5.394   2.202  0.3775 -0.4734  1.0122
 2969TIP3    H230399   2.437   5.322   2.093 -0.2075  1.7270 -0.0881
 2970TIP3   OH230400   5.118   1.992  16.105  0.2723  0.3252  0.0475
 2970TIP3    H130401   5.109   1.932  16.180  1.9072  0.7378  0.6179
 2970TIP3    H230402   5.113   1.935  16.028 -0.3478 -0.2531  0.5012
 2971TIP3   OH230403   4.753   3.475   4.411  0.3430  0.0074 -0.2613
 2971TIP3    H130404   4.801   3.457   4.492  0.3805 -2.5419 -0.7967
 2971TIP3    H230405   4.797   3.423   4.344 -3.0295 -2.4890 -0.7955
 2972TIP3   OH230406   5.342   5.186   1.471 -0.1485  0.2995  0.0066
 2972TIP3    H130407   5.311   5.234   1.549 -0.7102 -0.0859  0.0258
 2972TIP3    H230408   5.289   5.106   1.470  2.6507 -1.7529  1.5796
 2973TIP3   OH230409   0.221   3.658  13.050 -0.5051 -0.2228 -0.3521
 2973TIP3    H130410   0.155   3.726  13.066 -1.8440 -1.4951 -0.3303
 2973TIP3    H230411   0.180   3.577  13.080  1.5363 -0.8941  0.8271
 2974TIP3   OH230412   6.207   4.338  14.640 -0.4894 -0.1055 -0.2679
 2974TIP3    H130413   6.150   4.282  14.588 -0.9009 -0.8311  0.9390
 2974TIP3    H230414   6.287   4.287  14.652 -0.4290  0.0231 -0.1198
 2975TIP3   OH230415   0.048   1.181   1.331  0.3837 -0.0155  0.3952
 2975TIP3    H130416   0.059   1.190   1.237  2.4054  1.6736  0.7181
 2975TIP3    H230417   0.136   1.167   1.365 -0.2228 -0.0205  2.0877
 2976TIP3   OH230418   2.232   1.475  14.266  0.5781  0.0575 -0.1962
 2976TIP3    H130419   2.142   1.506  14.269  0.3071 -0.7119  2.2637
 2976TIP3    H230420   2.285   1.550  14.295  0.5399  0.0273 -0.0446
 2977TIP3   OH230421   2.049   5.261  14.419  0.0480  0.1603 -0.5260
 2977TIP3    H130422   2.088   5.299  14.340  2.9878 -0.7018  0.3660
 2977TIP3    H230423   2.038   5.169  14.397  3.0108 -0.5834  0.6554
 2978TIP3   OH230424   2.121   5.173  15.918 -0.6967  0.1704 -0.1706
 2978TIP3    H130425   2.070   5.105  15.961  1.6097 -0.7116  1.3531
 2978TIP3    H230426   2.090   5.174  15.827 -1.1035 -2.6148 -0.1247
 2979TIP3   OH230427   1.806   5.990   3.983 -0.2938 -0.1197  0.3916
 2979TIP3    H130428   1.790   5.913   3.929  1.7422  0.4140 -1.1526
 2979TIP3    H230429   1.893   6.020   3.956 -0.9213  2.6138  1.0380
 2980TIP3   OH230430   1.987   6.211   5.694 -0.7426 -0.0752 -0.0737
 2980TIP3    H130431   2.007   6.292   5.740 -0.6340  0.3523 -0.8640
 2980TIP3    H230432   1.895   6.193   5.716 -0.0623 -1.1316  2.1774
 2981TIP3   OH230433   6.074   6.052  13.435 -0.2677  0.4930 -0.2685
 2981TIP3    H130434   6.167   6.067  13.420 -0.1823 -0.5368 -0.8962
 2981TIP3    H230435   6.031   6.092  13.360 -0.2924  0.5933 -0.2001
 2982TIP3   OH230436   0.762   6.604   1.293  0.5447 -0.4720 -0.1999
 2982TIP3    H130437   0.816   6.590   1.370  0.2119 -0.9146 -0.0414
 2982TIP3    H230438   0.674   6.581   1.321  0.3601 -0.2795 -0.6085
 2983TIP3   OH230439   0.982   4.319   2.331  0.0064  0.2934  0.4359
 2983TIP3    H130440   1.065   4.352   2.365 -0.1588 -0.7062  1.9642
 2983TIP3    H230441   0.964   4.371   2.253  1.6963  1.0178  0.4950
 2984TIP3   OH230442   1.741   3.737  11.671  0.5189 -0.6108 -0.5610
 2984TIP3    H130443   1.692   3.712  11.593  0.2962 -1.3765 -0.1837
 2984TIP3    H230444   1.830   3.704  11.654  1.3395  1.9771 -1.8565
 2985TIP3   OH230445   5.220   2.260   1.970 -0.5225 -0.2519 -0.2306
 2985TIP3    H130446   5.273   2.190   2.010  2.1771  1.9439  0.3237
 2985TIP3    H230447   5.220   2.238   1.877  0.2563 -1.0245 -0.0727
 2986TIP3   OH230448   1.044   6.705  17.034  0.3810  0.1747  0.4681
 2986TIP3    H130449   1.002   6.790  17.045 -0.5110 -0.1598 -0.2216
 2986TIP3    H230450   1.099   6.714  16.957 -0.1180 -0.0119  0.0819
 2987TIP3   OH230451   4.846   0.425  16.957  0.3821 -0.6731  0.2560
 2987TIP3    H130452   4.930   0.423  16.912  0.6683 -0.5619  0.7783
 2987TIP3    H230453   4.785   0.462  16.893  0.7493 -0.6521 -0.0832
 2988TIP3   OH230454   3.277   6.060   3.874 -0.3082  0.2365 -0.5161
 2988TIP3    H130455   3.186   6.039   3.853  0.2405 -2.1750 -0.7870
 2988TIP3    H230456   3.278   6.074   3.968 -1.1934  1.8960 -0.7151
 2989TIP3   OH230457   4.218   1.112  14.528  0.4381 -0.2035  0.2027
 2989TIP3    H130458   4.277   1.155  14.589 -2.5249  1.5014  2.1369
 2989TIP3    H230459   4.200   1.179  14.461 -0.7145  0.0306  0.7161
 2990TIP3   OH230460   2.663   3.143   1.188 -0.5165 -0.2138  0.4333
 2990TIP3    H130461   2.756   3.133   1.170 -0.4955  0.4325  0.1684
 2990TIP3    H230462   2.660   3.191   1.271 -0.5710  2.4658 -1.0057
 2991TIP3   OH230463   6.478   5.487   1.155 -0.4727 -0.0549  0.0301
 2991TIP3    H130464   6.489   5.453   1.244  1.0192  1.5282  0.5011
 2991TIP3    H230465   6.454   5.410   1.103  0.3531 -1.3554  1.4754
 2992TIP3   OH230466   1.217   1.289  11.815  0.4602 -0.0932  0.3510
 2992TIP3    H130467   1.306   1.287  11.779  0.2976 -1.0333 -0.0103
 2992TIP3    H230468   1.181   1.202  11.797 -1.7243  1.2267 -2.5955
 2993TIP3   OH230469   3.253   4.366   3.482 -0.0576  0.1600  0.0319
 2993TIP3    H130470   3.280   4.318   3.561 -1.6289 -0.6160  0.1302
 2993TIP3    H230471   3.265   4.303   3.411  3.2913  1.4689 -0.7550
 2994TIP3   OH230472   0.394   1.283   4.931  0.0874  0.7399  0.2773
 2994TIP3    H130473   0.489   1.287   4.919  0.1034 -0.0380  0.1234
 2994TIP3    H230474   0.362   1.238   4.853 -0.3158  0.1365  0.7872
 2995TIP3   OH230475   0.047   1.933  12.065 -0.0685 -0.5784  0.6607
 2995TIP3    H130476   0.075   1.914  11.975 -3.2830  0.5013 -0.7275
 2995TIP3    H230477   0.034   1.847  12.104  1.6985 -1.0677  0.2850
 2996TIP3   OH230478   0.553   3.290   2.836 -0.0083  0.1346  0.0189
 2996TIP3    H130479   0.601   3.351   2.893 -0.9149 -0.7294  1.7953
 2996TIP3    H230480   0.470   3.334   2.820  0.2599  0.3913 -0.6979
 2997TIP3   OH230481   4.150   5.475  10.625  0.2950  0.2676 -0.2772
 2997TIP3    H130482   4.239   5.465  10.591 -0.2466 -1.6104 -1.3225
 2997TIP3    H230483   4.104   5.527  10.558 -0.2194 -1.6513 -1.5105
 2998TIP3   OH230484   4.735   3.163  16.626 -0.3215 -0.3456  0.4547
 2998TIP3    H130485   4.708   3.090  16.570  0.0970 -1.7954  2.0603
 2998TIP3    H230486   4.697   3.241  16.584 -1.7075 -1.5889 -0.7070
 2999TIP3   OH230487   0.446   6.015   2.868  0.3672  0.1600  0.5000
 2999TIP3    H130488   0.480   6.087   2.816 -0.9641  0.3205 -0.1699
 2999TIP3    H230489   0.510   5.944   2.855  0.3816  0.3961 -0.8607
 3000TIP3   OH230490   0.152   2.963   3.767  0.4918  0.3571  0.7574
 3000TIP3    H130491   0.090   2.977   3.696 -0.3426  3.0880  1.8782
 3000TIP3    H230492   0.230   2.927   3.725 -0.7250 -0.1126 -1.1842
 3001TIP3   OH230493   0.367   3.882   3.840 -0.0623  0.1492 -0.3877
 3001TIP3    H130494   0.411   3.962   3.813  1.9582 -0.7063  0.1874
 3001TIP3    H230495   0.326   3.849   3.760 -1.1127  1.8202 -0.5878
 3002TIP3   OH230496   4.683   4.153  16.023 -0.0952 -0.9096 -0.2739
 3002TIP3    H130497   4.598   4.113  16.043 -1.5840  1.8489 -0.5482
 3002TIP3    H230498   4.675   4.180  15.931  0.1460  1.3711  0.3196
 3003TIP3   OH230499   0.319   1.523  14.333  0.0110 -0.0291 -0.1550
 3003TIP3    H130500   0.411   1.498  14.339  0.2958  0.5714 -1.6222
 3003TIP3    H230501   0.273   1.441  14.317  0.4508 -0.1578 -0.7908
 3004TIP3   OH230502   3.297   5.394  15.132 -0.2151 -0.4421  0.7019
 3004TIP3    H130503   3.322   5.302  15.135 -1.7505 -0.8560  2.2782
 3004TIP3    H230504   3.233   5.399  15.061  1.3846 -0.1196 -0.7938
 3005TIP3   OH230505   1.741   3.657  14.517  0.4423  0.1760  0.1959
 3005TIP3    H130506   1.726   3.671  14.424  0.3197  0.1864  0.2169
 3005TIP3    H230507   1.824   3.609  14.521 -0.3118 -1.2075 -0.0079
 3006TIP3   OH230508   2.815   3.210  16.966  0.2566  0.0301  0.7197
 3006TIP3    H130509   2.851   3.185  16.882  0.0410 -2.1019  1.2087
 3006TIP3    H230510   2.832   3.304  16.972  4.5695 -0.4979  0.3387
 3007TIP3   OH230511   3.149   3.007  12.893 -0.5002  0.6239  0.8428
 3007TIP3    H130512   3.174   2.974  12.979  2.1625 -0.9420 -0.4033
 3007TIP3    H230513   3.127   2.929  12.843  1.9903  1.0322 -1.0290
 3008TIP3   OH230514   5.019   0.057  14.264  0.1470  0.0960 -0.0685
 3008TIP3    H130515   5.020   0.017  14.351  0.3170  0.5537  0.1424
 3008TIP3    H230516   5.036   0.150  14.280 -1.0561  0.4124 -0.4678
 3009TIP3   OH230517   3.659   3.819   4.280  0.0187  0.3562 -0.3093
 3009TIP3    H130518   3.565   3.833   4.287  0.0162  0.0782  0.3299
 3009TIP3    H230519   3.695   3.860   4.359  0.1689 -1.6401  0.7362
 3010TIP3   OH230520   3.541   4.001  13.355  0.7224 -0.1661 -0.0443
 3010TIP3    H130521   3.446   4.005  13.361  0.8147  2.5965  0.8936
 3010TIP3    H230522   3.564   4.063  13.285  1.8691  0.0278  0.4713
 3011TIP3   OH230523   5.276   1.799   5.601 -0.2004 -0.3947 -0.3932
 3011TIP3    H130524   5.268   1.728   5.664 -1.5955 -0.1620 -0.2933
 3011TIP3    H230525   5.293   1.755   5.517  0.0817 -0.7719 -0.1412
 3012TIP3   OH230526   5.627   4.901  13.330  0.0840 -0.9420 -0.0159
 3012TIP3    H130527   5.575   4.981  13.339  0.0586 -0.9795  0.1707
 3012TIP3    H230528   5.655   4.901  13.238  0.6316 -0.3864  0.1462
 3013TIP3   OH230529   1.221   5.510   5.498  0.0832 -0.0690  0.6809
 3013TIP3    H130530   1.253   5.599   5.507 -1.4161  0.8277 -1.8455
 3013TIP3    H230531   1.156   5.514   5.427  0.1040 -3.1876  0.3178
 3014TIP3   OH230532   1.218   4.787  16.947  0.1277  0.1089  0.2827
 3014TIP3    H130533   1.258   4.763  17.031 -1.0841 -1.2205  0.5075
 3014TIP3    H230534   1.292   4.792  16.887  0.8884 -0.1256  1.1705
 3015TIP3   OH230535   2.680   0.511   0.456 -0.6309  0.2272  0.1992
 3015TIP3    H130536   2.685   0.607   0.466  0.0183  0.0869  1.4172
 3015TIP3    H230537   2.636   0.481   0.535  0.3444 -0.5779  0.4529
 3016TIP3   OH230538   5.116   0.330  12.233 -0.9501 -0.3624  0.3825
 3016TIP3    H130539   5.043   0.383  12.203 -0.0959  1.1469  0.8550
 3016TIP3    H230540   5.193   0.369  12.191 -0.2972 -1.3204  0.6359
 3017TIP3   OH230541   1.593   4.192   4.373 -0.3690  0.1355  0.5959
 3017TIP3    H130542   1.646   4.250   4.319  0.2275  0.3109  1.3634
 3017TIP3    H230543   1.587   4.236   4.458 -1.3068 -0.1294  0.6802
 3018TIP3   OH230544   3.785   4.700   1.133  0.4382 -0.1877 -0.9644
 3018TIP3    H130545   3.851   4.754   1.090  1.3239 -0.0345  0.4998
 3018TIP3    H230546   3.782   4.733   1.223 -1.3980 -0.4351 -0.8992
 3019TIP3   OH230547   3.854   4.933   6.238  0.2372  0.0071  0.1173
 3019TIP3    H130548   3.808   4.923   6.155 -0.0535  1.9735 -0.0188
 3019TIP3    H230549   3.816   5.012   6.277  2.5433  0.9568  0.6234
 3020TIP3   OH230550   1.547   1.821   4.123 -0.4441  0.5297 -0.2879
 3020TIP3    H130551   1.458   1.791   4.102 -0.3672 -0.8701  1.1198
 3020TIP3    H230552   1.534   1.881   4.197 -0.2086  0.0105  0.1821
 3021TIP3   OH230553   2.143   4.336   2.708  1.1635 -0.1007 -0.1295
 3021TIP3    H130554   2.053   4.303   2.708  1.4511 -0.8962  0.9661
 3021TIP3    H230555   2.138   4.417   2.656 -0.3542  0.3130  0.6008
 3022TIP3   OH230556   1.379   3.510   1.820 -0.0085  0.1494 -0.1437
 3022TIP3    H130557   1.308   3.446   1.826  2.0973 -2.2671  0.3433
 3022TIP3    H230558   1.368   3.565   1.898  0.0024 -1.6791  1.2027
 3023TIP3   OH230559   4.237   4.794  17.003  0.1021 -0.1849 -0.2587
 3023TIP3    H130560   4.217   4.872  17.056  0.9548 -0.4931  0.5440
 3023TIP3    H230561   4.212   4.720  17.059  2.2160 -0.5535  0.2756
 3024TIP3   OH230562   1.883   5.555  16.939 -0.6888  0.6869 -0.3100
 3024TIP3    H130563   1.831   5.568  16.859  0.6621 -0.1272 -1.3644
 3024TIP3    H230564   1.858   5.468  16.970 -1.7586  1.2989  0.6064
 3025TIP3   OH230565   6.419   2.496   3.957  0.2564 -0.3918 -0.2709
 3025TIP3    H130566   6.458   2.529   3.876  1.3767  0.9712  0.7736
 3025TIP3    H230567   6.326   2.517   3.950  0.3545 -0.2344 -1.1687
 3026TIP3   OH230568   2.363   4.803  12.830  0.4377  0.3282 -0.0902
 3026TIP3    H130569   2.418   4.825  12.754  2.8126 -1.0202  1.1386
 3026TIP3    H230570   2.422   4.810  12.905 -1.0335 -1.3424  1.3091
 3027TIP3   OH230571   0.360   3.865  14.444  0.1984 -0.0134 -0.1426
 3027TIP3    H130572   0.439   3.870  14.390  0.3050  2.5437  0.1395
 3027TIP3    H230573   0.381   3.914  14.523 -1.3652 -0.1170  0.3824
 3028TIP3   OH230574   4.108   4.662   3.868  0.5435  0.2020 -0.0100
 3028TIP3    H130575   4.019   4.646   3.835  1.1446 -1.2474 -1.0037
 3028TIP3    H230576   4.114   4.757   3.874 -0.4516  0.4077 -1.7089
 3029TIP3   OH230577   3.895   0.529   1.364 -0.5188 -0.1025 -0.3220
 3029TIP3    H130578   3.834   0.519   1.291 -1.5233 -0.9732  0.5960
 3029TIP3    H230579   3.876   0.616   1.399  3.4832  2.6824 -4.1056
 3030TIP3   OH230580   6.686   6.572   3.776  0.0619 -0.0023  0.3261
 3030TIP3    H130581   6.633   6.643   3.812 -0.1404  0.9081 -1.6503
 3030TIP3    H230582   6.772   6.612   3.762  1.7213 -1.6855  4.3315
 3031TIP3   OH230583   4.493   3.830  10.993  0.2059  0.0899 -0.0759
 3031TIP3    H130584   4.532   3.878  10.920  0.0850  1.2780  0.6140
 3031TIP3    H230585   4.512   3.884  11.070  1.2640 -1.6447  0.9495
 3032TIP3   OH230586   0.614   0.206  13.040  0.0168 -0.6604  0.3468
 3032TIP3    H130587   0.589   0.293  13.009 -0.1492 -0.3403  1.3402
 3032TIP3    H230588   0.592   0.148  12.967 -0.7286  0.0079  0.0142
 3033TIP3   OH230589   3.359   3.938   3.301  0.3228  0.0698 -0.1019
 3033TIP3    H130590   3.332   3.891   3.380  0.6074  0.0772  0.0016
 3033TIP3    H230591   3.447   3.970   3.321  0.4106  0.0396 -0.4357
 3034TIP3   OH230592   0.480   4.145  11.657  0.3216 -0.7054  0.0604
 3034TIP3    H130593   0.415   4.175  11.593  1.0707 -3.6354 -2.3115
 3034TIP3    H230594   0.462   4.197  11.735 -4.4233 -0.8079 -0.6605
 3035TIP3   OH230595   2.011   2.656   3.081 -0.2493 -0.2729  0.6787
 3035TIP3    H130596   1.966   2.638   2.998 -0.1337  0.6239  0.4096
 3035TIP3    H230597   1.966   2.602   3.145 -1.3986  0.2370  0.3198
 3036TIP3   OH230598   4.696   6.632  11.624  0.2142  0.3686  0.1982
 3036TIP3    H130599   4.601   6.638  11.616  0.2093 -0.3110 -0.4148
 3036TIP3    H230600   4.723   6.580  11.548  1.2153  1.7044 -0.4067
 3037TIP3   OH230601   5.016   5.389  14.422  0.2973  0.0046 -0.1835
 3037TIP3    H130602   5.059   5.325  14.365  0.2424  0.1461 -0.3876
 3037TIP3    H230603   5.088   5.443  14.456  0.3828 -0.4096  0.3004
 3038TIP3   OH230604   1.641   6.520  16.835  0.2013 -0.6029  0.0297
 3038TIP3    H130605   1.604   6.606  16.856 -0.9455 -0.9772 -0.3574
 3038TIP3    H230606   1.630   6.512  16.740 -0.6382 -1.5771  0.1927
 3039TIP3   OH230607   0.729   0.267  15.861  0.0549  0.2427  0.4117
 3039TIP3    H130608   0.719   0.188  15.808 -0.0854  0.5847 -0.0842
 3039TIP3    H230609   0.769   0.237  15.942 -0.8834 -0.4921  0.6248
 3040TIP3   OH230610   5.154   2.319  10.858  0.5162 -0.0459 -0.5404
 3040TIP3    H130611   5.199   2.391  10.903  1.3438  0.0087 -1.4239
 3040TIP3    H230612   5.086   2.361  10.805 -1.0212 -0.1700  1.2326
 3041TIP3   OH230613   3.938   2.626   5.178 -0.1228 -0.4625  0.3608
 3041TIP3    H130614   4.024   2.666   5.189 -0.2204 -0.1689  0.0848
 3041TIP3    H230615   3.913   2.647   5.088 -0.9974  0.4860  0.7974
 3042TIP3   OH230616   3.919   0.903   1.186 -0.0139  0.3566 -0.2198
 3042TIP3    H130617   3.888   0.861   1.266  2.7165 -0.6431  0.4082
 3042TIP3    H230618   3.882   0.991   1.189 -3.3667 -0.9185 -0.0280
 3043TIP3   OH230619   6.082   5.203  13.401  0.3614  0.1721 -0.4846
 3043TIP3    H130620   6.105   5.191  13.309 -1.0510  1.1182 -0.9954
 3043TIP3    H230621   6.008   5.142  13.415  0.5172  0.0914  0.0021
 3044TIP3   OH230622   3.935   4.267  12.968  0.1950 -0.4372 -0.5220
 3044TIP3    H130623   3.963   4.342  12.915 -0.1836  0.7208  0.8302
 3044TIP3    H230624   3.914   4.306  13.054  0.6965 -2.2013  0.4460
 3045TIP3   OH230625   3.443   1.386   2.827 -0.1652 -0.0928 -0.3470
 3045TIP3    H130626   3.470   1.431   2.907 -1.8233  1.6781 -0.6937
 3045TIP3    H230627   3.510   1.408   2.763 -0.6136  1.4128 -0.3306
 3046TIP3   OH230628   6.251   0.119   5.036 -0.9011 -0.5163  0.8446
 3046TIP3    H130629   6.174   0.078   4.998 -1.1245  0.7440 -0.1527
 3046TIP3    H230630   6.315   0.049   5.044 -1.2346 -1.0577 -0.8655
 3047TIP3   OH230631   5.920   6.751   6.037 -0.1384 -0.2169  0.3857
 3047TIP3    H130632   5.858   6.734   5.966  0.0612  1.1304 -0.1451
 3047TIP3    H230633   5.885   6.704   6.112 -1.2196 -0.3545 -0.1935
 3048TIP3   OH230634   4.412   0.612  14.194 -0.0728 -0.1378  0.2040
 3048TIP3    H130635   4.409   0.664  14.275  0.0078  0.8517 -0.4156
 3048TIP3    H230636   4.390   0.523  14.223  2.0702 -0.2681  1.6711
 3049TIP3   OH230637   2.722   2.793  11.565  0.0313  1.2578 -0.2085
 3049TIP3    H130638   2.677   2.856  11.510 -0.3525 -0.0026 -1.3906
 3049TIP3    H230639   2.709   2.709  11.522 -0.8963  0.0873  2.1687
 3050TIP3   OH230640   5.645   4.944   1.847 -0.0722 -0.2028 -0.1426
 3050TIP3    H130641   5.677   4.977   1.763  0.3651  0.7401  0.3782
 3050TIP3    H230642   5.692   4.861   1.860  0.4639  0.0451 -0.4575
 3051TIP3   OH230643   6.460   6.800   5.170 -0.3411 -0.0364  0.2363
 3051TIP3    H130644   6.526   6.836   5.111 -1.1329  1.9658  0.5117
 3051TIP3    H230645   6.507   6.733   5.220  1.1632  0.4819 -0.4207
 3052TIP3   OH230646   6.450   5.690  14.497 -0.1899  0.7186  0.1138
 3052TIP3    H130647   6.370   5.692  14.445  0.9761  0.4896 -1.8022
 3052TIP3    H230648   6.423   5.714  14.585 -2.3417  0.6746 -0.4908
 3053TIP3   OH230649   6.074   3.919  16.084 -0.0196 -0.9360 -0.1957
 3053TIP3    H130650   6.090   3.965  16.002 -0.3108  1.1635  0.8515
 3053TIP3    H230651   6.004   3.857  16.064  0.8815 -1.4798 -1.8338
 3054TIP3   OH230652   1.590   3.222  11.802 -0.2037 -0.1755  0.2824
 3054TIP3    H130653   1.673   3.268  11.815 -0.5411  0.5677 -0.1498
 3054TIP3    H230654   1.589   3.199  11.709 -0.2681 -0.6134  0.3879
 3055TIP3   OH230655   5.905   0.452   4.840  0.0692 -0.4840 -0.1817
 3055TIP3    H130656   5.901   0.357   4.854  0.8947 -0.2734  1.8950
 3055TIP3    H230657   5.888   0.489   4.927 -1.2949  1.3210 -1.1606
 3056TIP3   OH230658   6.336   0.589   0.585 -0.0455 -0.1701  0.7217
 3056TIP3    H130659   6.429   0.601   0.606  0.4221 -0.9257 -0.7725
 3056TIP3    H230660   6.310   0.512   0.635  0.3571 -0.4580  0.4907
 3057TIP3   OH230661   1.378   1.160  14.620 -0.2895  0.9582 -0.0956
 3057TIP3    H130662   1.446   1.222  14.649 -0.7564  1.3596  0.1624
 3057TIP3    H230663   1.390   1.155  14.526 -0.4277  1.6706 -0.1573
 3058TIP3   OH230664   4.604   3.467   2.496  0.2095  0.4935  0.0429
 3058TIP3    H130665   4.692   3.498   2.519  1.0553 -0.5535 -1.6191
 3058TIP3    H230666   4.553   3.547   2.483  0.2620  1.1588  3.1225
 3059TIP3   OH230667   4.284   1.348  10.604 -0.2726  0.5195  0.0047
 3059TIP3    H130668   4.289   1.348  10.700 -2.4258  0.2208  0.1683
 3059TIP3    H230669   4.311   1.260  10.579  0.1336  0.5437  0.3341
 3060TIP3   OH230670   4.567   1.983   4.040  0.3632  0.3595  0.1019
 3060TIP3    H130671   4.628   1.980   3.967  2.0362 -0.4447  1.4658
 3060TIP3    H230672   4.566   1.894   4.075  0.7684  1.0155  1.9292
 3061TIP3   OH230673   5.722   2.483  11.889  0.3256 -0.0879 -0.5619
 3061TIP3    H130674   5.666   2.458  11.816  0.0952  2.1195 -1.2327
 3061TIP3    H230675   5.690   2.432  11.963 -1.8458  0.2884 -1.1834
 3062TIP3   OH230676   5.784   3.064   6.296 -0.0981 -0.2090 -0.1246
 3062TIP3    H130677   5.746   3.107   6.373 -2.4863 -2.6165  0.2131
 3062TIP3    H230678   5.817   2.981   6.329  0.2683 -0.6159 -1.4665
 3063TIP3   OH230679   6.524   5.075   5.013 -1.1618 -0.4433 -0.7329
 3063TIP3    H130680   6.507   5.031   5.096  0.3905 -0.4559 -0.3881
 3063TIP3    H230681   6.508   5.009   4.946 -0.2332 -1.1335 -0.2969
 3064TIP3   OH230682   6.631   2.946  16.837  0.4939  0.3401 -0.1520
 3064TIP3    H130683   6.568   2.915  16.902  0.3458  0.0773 -0.4194
 3064TIP3    H230684   6.688   2.871  16.821  0.6053  0.4422 -0.2383
 3065TIP3   OH230685   2.995   0.576  13.226  0.0561  0.5602 -0.1846
 3065TIP3    H130686   2.963   0.648  13.172 -0.7033  1.6493  1.6388
 3065TIP3    H230687   3.087   0.566  13.200  0.2667  2.3954 -0.2984
 3066TIP3   OH230688   5.208   0.724  13.535  0.1239  0.1232 -0.2675
 3066TIP3    H130689   5.122   0.738  13.576 -0.2826 -1.4649 -0.5121
 3066TIP3    H230690   5.253   0.808  13.545 -0.5371  0.2791  2.0480
 3067TIP3   OH230691   1.862   6.036   0.891 -0.1070  0.1630 -0.1987
 3067TIP3    H130692   1.910   6.072   0.965 -0.6873 -1.0469  0.7951
 3067TIP3    H230693   1.813   6.111   0.856  3.1238  1.7160 -1.8992
 3068TIP3   OH230694   5.005   4.881   5.691 -0.5008 -0.1865 -0.1827
 3068TIP3    H130695   4.971   4.818   5.755 -1.9525 -0.0042 -0.7269
 3068TIP3    H230696   5.037   4.954   5.745  0.2705 -0.9375  0.4049
 3069TIP3   OH230697   4.550   1.708  12.464  0.2411 -0.2501 -0.4817
 3069TIP3    H130698   4.538   1.729  12.371 -0.7695  0.2076 -0.2605
 3069TIP3    H230699   4.487   1.763  12.510  0.4383 -0.7737  0.4479
 3070TIP3   OH230700   0.918   4.086   4.057  0.0603 -0.0543  0.1470
 3070TIP3    H130701   0.917   4.016   4.122 -0.8312 -0.2125 -0.0272
 3070TIP3    H230702   0.826   4.111   4.047  0.4316  1.8343  0.9493
 3071TIP3   OH230703   1.296   0.080  13.546  0.1035  0.1918  0.1364
 3071TIP3    H130704   1.267   0.054  13.633 -0.7892 -0.9829 -0.4798
 3071TIP3    H230705   1.373   0.025  13.529 -1.3043 -1.6004 -0.8405
 3072TIP3   OH230706   5.912   4.157   1.513 -1.0334 -0.6957 -0.4518
 3072TIP3    H130707   5.880   4.237   1.470 -2.4969 -0.6664  0.5976
 3072TIP3    H230708   6.007   4.167   1.514 -1.1048  0.4427 -1.4491
 3073TIP3   OH230709   2.950   3.768  14.169  0.1104 -0.7071 -0.5387
 3073TIP3    H130710   2.876   3.824  14.144  0.2335 -0.3092 -0.0057
 3073TIP3    H230711   2.989   3.742  14.085 -1.0392 -1.4774 -0.8550
 3074TIP3   OH230712   4.147   1.298  15.623  0.4026 -0.0963 -0.2334
 3074TIP3    H130713   4.069   1.351  15.603  0.3472 -0.2423 -0.4101
 3074TIP3    H230714   4.219   1.360  15.623  0.5719 -0.2498 -1.9917
 3075TIP3   OH230715   0.515   6.401  16.850 -0.1554 -0.6226 -0.2597
 3075TIP3    H130716   0.535   6.314  16.883 -0.7415 -0.6457  0.0409
 3075TIP3    H230717   0.508   6.390  16.755  0.7174 -0.7144 -0.3184
 3076TIP3   OH230718   2.620   5.919   5.015  0.1261 -0.4242  0.7453
 3076TIP3    H130719   2.536   5.874   5.011 -0.0446 -0.0592 -0.2951
 3076TIP3    H230720   2.666   5.889   4.937 -0.0555  1.2880 -0.0702
 3077TIP3   OH230721   1.485   3.536   3.311 -0.2540  0.0539  0.0216
 3077TIP3    H130722   1.436   3.515   3.231 -1.2723 -0.3834  0.7405
 3077TIP3    H230723   1.534   3.456   3.331  1.1062  0.6230 -0.9202
 3078TIP3   OH230724   1.979   0.946   4.585 -0.1292 -0.4362  0.3307
 3078TIP3    H130725   1.941   0.871   4.540  0.2262 -1.3266  1.4552
 3078TIP3    H230726   1.933   1.022   4.548  0.2470 -1.0862 -1.5835
 3079TIP3   OH230727   0.398   4.686   3.584  0.4281 -0.5031 -0.1238
 3079TIP3    H130728   0.449   4.650   3.656  0.8300  1.4302  0.6384
 3079TIP3    H230729   0.463   4.706   3.516  0.6168  1.0932  0.4792
 3080TIP3   OH230730   2.408   5.869   2.926 -0.5200  0.0341  0.7375
 3080TIP3    H130731   2.435   5.786   2.966 -0.3594 -0.3833 -0.2103
 3080TIP3    H230732   2.361   5.915   2.995 -0.1199 -0.6077  1.4455
 3081TIP3   OH230733   3.807   6.437  16.229  0.2262 -0.7838  0.1474
 3081TIP3    H130734   3.872   6.384  16.275 -0.0565 -0.8997  0.4087
 3081TIP3    H230735   3.859   6.487  16.165  0.2810 -2.6856 -1.3568
 3082TIP3   OH230736   1.283   1.521  15.114 -0.0753  0.2182  0.3506
 3082TIP3    H130737   1.313   1.611  15.098 -0.2465  0.5633  1.8234
 3082TIP3    H230738   1.342   1.467  15.061  1.0250  1.1002  0.6131
 3083TIP3   OH230739   3.850   3.938   4.667  0.0889 -0.1652  0.4096
 3083TIP3    H130740   3.944   3.955   4.674 -0.1253  0.6079  1.6456
 3083TIP3    H230741   3.844   3.842   4.659  0.9764 -0.2104  0.1256
 3084TIP3   OH230742   5.839   3.649  10.297  0.0948  0.4037  0.3420
 3084TIP3    H130743   5.885   3.704  10.361  0.7381 -1.2639  1.3644
 3084TIP3    H230744   5.908   3.598  10.255 -0.2685  1.7327 -2.0411
 3085TIP3   OH230745   0.511   0.055   5.297  0.2352  0.3276 -0.1326
 3085TIP3    H130746   0.457  -0.014   5.337  0.1224  0.0324 -0.7726
 3085TIP3    H230747   0.452   0.100   5.237  0.4120  0.7328 -0.0036
 3086TIP3   OH230748   2.166   1.317  12.524  0.1467 -0.2322  0.4590
 3086TIP3    H130749   2.104   1.375  12.568 -0.9508 -1.1838  0.2327
 3086TIP3    H230750   2.252   1.356  12.540 -0.5584  1.6004  0.0674
 3087TIP3   OH230751   2.924   3.423  11.876 -0.7861  0.1640 -0.0371
 3087TIP3    H130752   2.992   3.412  11.943 -1.2528  1.0521  0.6114
 3087TIP3    H230753   2.867   3.491  11.911 -1.3219  0.3036 -1.1348
 3088TIP3   OH230754   0.459   6.016   4.245 -0.5415  0.3594  0.1663
 3088TIP3    H130755   0.495   6.014   4.156  0.7181 -0.6393  0.6637
 3088TIP3    H230756   0.463   6.109   4.270  1.3236  0.3539  0.0281
 3089TIP3   OH230757   4.746   2.190  16.699 -0.1193 -0.1829 -0.3364
 3089TIP3    H130758   4.669   2.207  16.645  0.1497 -0.4070 -0.7929
 3089TIP3    H230759   4.710   2.173  16.786 -0.5501  0.2627 -0.4210
 3090TIP3   OH230760   3.633   4.315  11.219  0.1604 -0.1175 -0.4637
 3090TIP3    H130761   3.649   4.293  11.127 -0.7888  0.1949 -0.7219
 3090TIP3    H230762   3.631   4.230  11.264  0.3159 -0.2943 -0.7851
 3091TIP3   OH230763   2.291   4.207  14.879  0.1260 -0.2929 -0.0002
 3091TIP3    H130764   2.280   4.146  14.807 -1.6481 -0.7900  0.6380
 3091TIP3    H230765   2.351   4.273  14.846  0.7220 -1.4436 -1.3072
 3092TIP3   OH230766   5.103   6.525   1.779 -0.3677  0.8345  0.1235
 3092TIP3    H130767   5.176   6.486   1.732  1.2344  1.8058  1.6613
 3092TIP3    H230768   5.130   6.522   1.871 -1.8749  2.0434  0.6470
 3093TIP3   OH230769   5.086   3.034  13.337 -0.1433 -0.3492 -0.3373
 3093TIP3    H130770   5.087   2.943  13.305 -2.2955 -0.5693  0.0625
 3093TIP3    H230771   5.012   3.037  13.397 -2.0614  2.3582 -2.5496
 3094TIP3   OH230772   2.469   6.052  17.114  0.8285  0.0544  0.4912
 3094TIP3    H130773   2.425   5.996  17.178 -0.2065  2.1387  1.7220
 3094TIP3    H230774   2.539   6.094  17.164  0.6534  0.9369  0.0185
 3095TIP3   OH230775   0.776   0.995   6.329 -0.1543 -0.5630 -0.5726
 3095TIP3    H130776   0.839   0.936   6.370 -0.0465 -1.1274 -1.5437
 3095TIP3    H230777   0.828   1.044   6.265  0.2397  2.0906  1.5514
 3096TIP3   OH230778   4.922   3.712  12.484  0.4765 -0.1346 -0.4472
 3096TIP3    H130779   4.882   3.728  12.570 -1.8224 -2.0282 -1.0687
 3096TIP3    H230780   4.969   3.793  12.464 -0.3425  0.9898  1.8407
 3097TIP3   OH230781   3.452   1.741  15.136 -0.2157 -0.1455 -0.8351
 3097TIP3    H130782   3.369   1.780  15.164 -0.1668 -0.9567  0.5670
 3097TIP3    H230783   3.443   1.648  15.159  0.4509 -0.5650 -2.1923
 3098TIP3   OH230784   0.998   6.577  14.016  0.2973  0.6240  0.1217
 3098TIP3    H130785   1.076   6.578  14.072 -0.2234 -1.7216  1.0139
 3098TIP3    H230786   1.032   6.567  13.927  1.0575 -0.7326  0.5315
 3099TIP3   OH230787   4.045   2.856  15.174 -0.0075  0.3929  0.1765
 3099TIP3    H130788   3.957   2.817  15.170  1.1441 -2.9965  2.8835
 3099TIP3    H230789   4.030   2.949  15.163 -3.5722 -0.2517 -2.3215
 3100TIP3   OH230790   3.409   3.093  12.898 -0.4785  0.6323  0.0249
 3100TIP3    H130791   3.324   3.050  12.894 -0.6037  0.9768 -1.4799
 3100TIP3    H230792   3.388   3.187  12.896 -0.0531  0.7131 -0.7496
 3101TIP3   OH230793   0.817   3.317  13.956  0.2677 -0.3949 -0.3423
 3101TIP3    H130794   0.783   3.229  13.971 -2.4456  0.6612  0.4166
 3101TIP3    H230795   0.911   3.311  13.976  0.0751 -2.9779  0.0967
 3102TIP3   OH230796   5.917   5.184  10.800 -0.6084  0.7039 -0.6880
 3102TIP3    H130797   6.012   5.185  10.813 -0.6385 -0.4803 -0.2827
 3102TIP3    H230798   5.885   5.258  10.852  0.1713  1.7925 -1.7012
 3103TIP3   OH230799   2.546   2.090   4.702  0.1230  0.4430 -0.1188
 3103TIP3    H130800   2.522   2.069   4.793 -2.7676  0.0643 -0.8573
 3103TIP3    H230801   2.566   2.184   4.705  2.3900 -0.0113  1.2627
 3104TIP3   OH230802   0.584   5.826   3.116  0.1601  0.4078  0.1306
 3104TIP3    H130803   0.582   5.922   3.107 -0.1282  0.3284 -0.7453
 3104TIP3    H230804   0.664   5.808   3.165  1.1418  1.0001 -1.1948
 3105TIP3   OH230805   0.983   5.838  15.992  0.3127 -0.1825 -0.4151
 3105TIP3    H130806   0.923   5.851  15.919  0.9716  0.3565 -0.8735
 3105TIP3    H230807   1.016   5.926  16.012 -0.1090 -0.2722  0.7473
 3106TIP3   OH230808   5.777   6.786   5.756  0.0082  0.5000 -0.1889
 3106TIP3    H130809   5.704   6.753   5.808 -0.1638  1.0448 -0.0794
 3106TIP3    H230810   5.768   6.743   5.672 -0.6479  0.8270 -0.2931
 3107TIP3   OH230811   2.491   3.675  10.681 -0.4763  0.5598  0.6530
 3107TIP3    H130812   2.527   3.618  10.613  0.3121  1.4733  0.2615
 3107TIP3    H230813   2.424   3.623  10.724  0.4526 -0.7855  0.5524
 3108TIP3   OH230814   5.869   4.839   0.946 -0.1497 -0.4682 -0.3186
 3108TIP3    H130815   5.805   4.876   0.885  0.5084 -1.0985 -1.4187
 3108TIP3    H230816   5.951   4.883   0.925  0.0541 -0.5964  0.2023
 3109TIP3   OH230817   3.764   0.011  12.700 -0.2246 -0.7576 -0.5744
 3109TIP3    H130818   3.676  -0.007  12.669 -0.3546 -1.5516  0.2270
 3109TIP3    H230819   3.756   0.014  12.795 -0.0293  2.5974 -0.5169
 3110TIP3   OH230820   1.549   6.407   3.947 -0.3788  0.2696  0.1844
 3110TIP3    H130821   1.457   6.390   3.968  0.3895 -1.2613  2.8295
 3110TIP3    H230822   1.579   6.327   3.904  0.1726 -0.0589  1.1520
 3111TIP3   OH230823   4.549   3.289   3.601 -0.0981  0.1016  0.3628
 3111TIP3    H130824   4.556   3.363   3.540  1.0768  1.6137  2.2125
 3111TIP3    H230825   4.634   3.287   3.645 -0.9941 -0.7290  2.1640
 3112TIP3   OH230826   2.332   6.104  16.019 -0.1466  0.1418 -0.2731
 3112TIP3    H130827   2.327   6.130  16.111 -2.5136  0.4261 -0.4372
 3112TIP3    H230828   2.316   6.184  15.970 -1.4973 -0.4579 -0.8637
 3113TIP3   OH230829   6.133   6.494  16.925 -0.3248  0.2992  0.3670
 3113TIP3    H130830   6.121   6.435  16.999 -1.6939 -1.0658 -0.8858
 3113TIP3    H230831   6.107   6.580  16.958 -1.5961 -0.4130  1.2968
 3114TIP3   OH230832   5.987   6.329  14.848  0.2987  0.0869  0.3553
 3114TIP3    H130833   6.068   6.377  14.831  1.5732 -1.4948  1.6292
 3114TIP3    H230834   5.927   6.395  14.883  1.9937  0.8235  2.1017
 3115TIP3   OH230835   1.358   5.444   1.681 -0.2286  0.0954 -0.2279
 3115TIP3    H130836   1.332   5.527   1.639 -0.3679  0.5342  0.6865
 3115TIP3    H230837   1.452   5.452   1.694 -0.5681  1.2917  2.2133
 3116TIP3   OH230838   2.584   0.915  14.523 -0.3916 -0.3280 -0.1392
 3116TIP3    H130839   2.672   0.942  14.548 -0.7561 -0.0358  0.8540
 3116TIP3    H230840   2.588   0.819  14.520  0.0532 -0.3028 -0.4897
 3117TIP3   OH230841   1.116   4.017   0.382  0.1161 -0.7400 -0.1585
 3117TIP3    H130842   1.044   4.079   0.394  1.4259  1.0131 -0.9354
 3117TIP3    H230843   1.095   3.945   0.441 -1.2536  0.6430  1.1544
 3118TIP3   OH230844   2.363   0.918   3.592 -0.3573 -0.4050 -0.7827
 3118TIP3    H130845   2.278   0.899   3.631  0.1955 -1.3011  0.0299
 3118TIP3    H230846   2.343   0.973   3.516 -1.5455  0.7000  0.2711
 3119TIP3   OH230847   2.966   6.374  16.668 -0.2369  0.1822  0.3277
 3119TIP3    H130848   2.991   6.283  16.651  0.2772  0.3442  0.1924
 3119TIP3    H230849   3.001   6.423  16.594  0.3063  0.6138  0.8513
 3120TIP3   OH230850   6.192   4.725   0.706 -0.1000  0.5482  0.6485
 3120TIP3    H130851   6.244   4.645   0.704 -0.1112  0.5421 -1.1836
 3120TIP3    H230852   6.255   4.795   0.689 -0.5163  0.6279 -0.6556
 3121TIP3   OH230853   3.606   3.279   2.068 -1.0817  0.8761 -0.2088
 3121TIP3    H130854   3.539   3.311   2.128 -0.9133  0.6035  0.1302
 3121TIP3    H230855   3.660   3.221   2.122  0.3167  2.2353 -0.1102
 3122TIP3   OH230856   4.740   1.695   1.549 -0.0835  0.0270 -0.3840
 3122TIP3    H130857   4.709   1.618   1.500  0.6930  0.6286 -1.8826
 3122TIP3    H230858   4.721   1.769   1.492  1.9021  0.6503 -0.3041
 3123TIP3   OH230859   4.310   4.484  15.634  0.3007 -0.6334 -0.5447
 3123TIP3    H130860   4.225   4.479  15.678  0.7879  0.8938  0.6702
 3123TIP3    H230861   4.369   4.522  15.699  1.2491  0.9671 -2.2351
 3124TIP3   OH230862   3.745   6.819   0.301  0.4516 -0.1839  0.1137
 3124TIP3    H130863   3.671   6.769   0.266 -0.2040  1.6271 -1.3033
 3124TIP3    H230864   3.729   6.824   0.395  0.3722 -2.2690  0.2552
 3125TIP3   OH230865   3.856   2.212   4.381  0.4547 -0.4136 -0.4201
 3125TIP3    H130866   3.775   2.218   4.331  0.3503 -0.7707 -0.3000
 3125TIP3    H230867   3.880   2.119   4.375 -0.6922 -0.9546  1.9563
 3126TIP3   OH230868   6.429   3.381  16.108 -0.2463 -0.1977  0.6790
 3126TIP3    H130869   6.505   3.323  16.101 -0.3441 -0.3569  0.9296
 3126TIP3    H230870   6.443   3.447  16.040 -0.5033 -0.9404 -0.1169
 3127TIP3   OH230871   0.858   6.744   0.581 -0.0188  0.0630 -0.5101
 3127TIP3    H130872   0.864   6.648   0.585 -0.2979  0.0687  0.2438
 3127TIP3    H230873   0.857   6.771   0.673  0.0925  0.7932 -0.7234
 3128TIP3   OH230874   1.287   0.004  13.133  0.1460 -0.4088 -0.5148
 3128TIP3    H130875   1.273  -0.071  13.191 -1.1896  1.2726  1.4642
 3128TIP3    H230876   1.297  -0.035  13.046  0.8231 -2.9419  0.5918
 3129TIP3   OH230877   5.828   5.161   3.682 -0.8497  0.6867 -0.2771
 3129TIP3    H130878   5.818   5.212   3.762 -0.9285  0.5072 -0.1750
 3129TIP3    H230879   5.889   5.091   3.705  0.1660  1.3911 -0.7149
 3130TIP3   OH230880   5.049   4.676  13.654  0.1242 -0.5106 -0.0495
 3130TIP3    H130881   5.092   4.613  13.712  1.0491  0.6396  0.5550
 3130TIP3    H230882   5.062   4.640  13.566  2.5561 -0.1172  0.0828
 3131TIP3   OH230883   1.943   6.186  14.667 -0.1790  0.1198  0.3305
 3131TIP3    H130884   2.001   6.110  14.667 -0.7351 -0.3227 -0.4331
 3131TIP3    H230885   1.998   6.258  14.637  0.1159 -0.1897  0.1207
 3132TIP3   OH230886   1.621   1.683   5.127 -0.2932 -0.0364 -0.6424
 3132TIP3    H130887   1.544   1.733   5.101 -0.9169 -0.5798  0.0931
 3132TIP3    H230888   1.682   1.748   5.163 -0.4726  0.3749 -1.0752
 3133TIP3   OH230889   4.098   6.816   1.256 -0.2380 -0.2051  0.3706
 3133TIP3    H130890   4.027   6.767   1.297  1.2777 -1.7758  1.2029
 3133TIP3    H230891   4.117   6.887   1.317 -2.3634  1.4820 -0.7876
 3134TIP3   OH230892   5.505   5.805   2.040  0.0665  0.1233 -0.3542
 3134TIP3    H130893   5.496   5.875   2.105  1.8507 -1.2225  1.4660
 3134TIP3    H230894   5.456   5.732   2.076 -1.8744  0.3790 -2.3007
 3135TIP3   OH230895   6.654   6.455  10.233  0.3854 -0.3632 -0.2616
 3135TIP3    H130896   6.650   6.433  10.140 -0.9844 -0.2609 -0.2432
 3135TIP3    H230897   6.727   6.404  10.267  2.4032  1.3065 -1.8286
 3136TIP3   OH230898   4.446   3.151  15.541  0.0544 -0.2156 -0.0748
 3136TIP3    H130899   4.494   3.228  15.509  2.2961 -0.4147  2.4012
 3136TIP3    H230900   4.498   3.077  15.511 -1.0364 -0.7007 -0.8153
 3137TIP3   OH230901   5.728   6.578   2.924  0.4054  0.1698  0.2584
 3137TIP3    H130902   5.817   6.543   2.931  0.2777  0.0744  1.8882
 3137TIP3    H230903   5.678   6.508   2.883  0.4786 -1.0198  2.0956
 3138TIP3   OH230904   4.462   4.900  10.425  0.1886  0.4525  0.3002
 3138TIP3    H130905   4.436   4.987  10.454  1.0137  0.1501  2.0921
 3138TIP3    H230906   4.381   4.859  10.396 -0.8959  0.5921  2.8521
 3139TIP3   OH230907   2.494   5.686  12.099  0.3449 -0.3425 -0.0074
 3139TIP3    H130908   2.448   5.696  12.182 -1.1755  0.3781 -0.9040
 3139TIP3    H230909   2.576   5.642  12.122 -0.2525 -0.5718  1.7988
 3140TIP3   OH230910   5.463   3.441  13.528  0.7473  0.7886 -0.2463
 3140TIP3    H130911   5.369   3.450  13.544  0.7849  1.0890 -0.1834
 3140TIP3    H230912   5.473   3.457  13.434  0.2943 -2.8115 -1.0320
 3141TIP3   OH230913   2.033   1.603  14.588  0.4575 -0.3026  0.6546
 3141TIP3    H130914   2.124   1.577  14.601  0.1026 -1.7755  0.4054
 3141TIP3    H230915   1.997   1.609  14.677  0.3339 -1.5639  0.7071
 3142TIP3   OH230916   0.748   5.967   1.878 -0.0829 -0.4658 -0.0486
 3142TIP3    H130917   0.844   5.971   1.880  0.0490 -2.4933  0.4174
 3142TIP3    H230918   0.722   5.989   1.968 -0.1615  1.3383 -0.4886
 3143TIP3   OH230919   0.536   3.004  16.097 -0.0502  0.4087  0.4363
 3143TIP3    H130920   0.596   2.941  16.136 -1.3619 -0.4795  1.0976
 3143TIP3    H230921   0.548   2.994  16.003 -0.0660 -0.6609  0.5398
 3144TIP3   OH230922   0.205   1.233   2.574  0.1520 -0.5427 -0.0543
 3144TIP3    H130923   0.225   1.140   2.590 -1.6995 -0.7270  1.4622
 3144TIP3    H230924   0.140   1.232   2.504 -2.7693 -0.7419  2.4782
 3145TIP3   OH230925   0.309   1.607   5.383 -0.1463  0.3202 -0.1012
 3145TIP3    H130926   0.354   1.641   5.306  2.6762  0.3417  1.4077
 3145TIP3    H230927   0.280   1.519   5.357  3.1866 -0.7978 -0.4663
 3146TIP3   OH230928   1.426   2.155  13.874  0.1710 -0.2024  0.1044
 3146TIP3    H130929   1.385   2.085  13.823 -0.4391  0.5823 -0.5059
 3146TIP3    H230930   1.419   2.126  13.965 -0.0726 -0.9381 -0.1433
 3147TIP3   OH230931   3.535   5.135  13.548 -0.4448  0.2180  0.3208
 3147TIP3    H130932   3.579   5.148  13.464 -0.1583  0.0190  0.4407
 3147TIP3    H230933   3.554   5.215  13.598 -0.1920  0.1180  0.3848
 3148TIP3   OH230934   6.762   1.917   6.547 -0.1006 -0.3146 -0.7292
 3148TIP3    H130935   6.689   1.901   6.488 -1.0122  1.2066 -0.0729
 3148TIP3    H230936   6.770   2.012   6.551  1.1263 -0.4267  0.1715
 3149TIP3   OH230937   3.162   5.276   1.346 -0.3095 -0.2690 -0.2204
 3149TIP3    H130938   3.188   5.200   1.295 -1.8238 -0.2883 -1.0383
 3149TIP3    H230939   3.163   5.246   1.437  2.0522 -0.3375 -0.2301
 3150TIP3   OH230940   3.223   2.009   2.984 -0.0699  0.0885  0.5159
 3150TIP3    H130941   3.132   2.038   2.980 -0.0280  0.1709  0.1579
 3150TIP3    H230942   3.242   1.978   2.896  0.2447  0.0574  0.5945
 3151TIP3   OH230943   4.163   4.805  12.765 -0.6332  0.5266 -0.2203
 3151TIP3    H130944   4.119   4.890  12.765  1.3704  1.6695  1.2424
 3151TIP3    H230945   4.162   4.778  12.857  1.0608  0.2848 -0.2438
 3152TIP3   OH230946   1.110   3.204  13.763  0.0117  0.1185 -0.3213
 3152TIP3    H130947   1.191   3.233  13.721  0.0790 -0.4256 -0.5676
 3152TIP3    H230948   1.108   3.251  13.847 -1.4814  3.4335 -1.9927
 3153TIP3   OH230949   1.156   5.878   3.141  0.0490 -0.1715  0.4321
 3153TIP3    H130950   1.135   5.968   3.167 -0.3671 -0.1894  0.1604
 3153TIP3    H230951   1.098   5.823   3.192 -0.0192 -0.2627  0.2580
 3154TIP3   OH230952   4.296   1.408   3.158  0.1373  0.5407 -0.5010
 3154TIP3    H130953   4.254   1.324   3.138 -0.7141  0.9713 -0.5638
 3154TIP3    H230954   4.234   1.474   3.127  0.2560  1.2029  0.6403
 3155TIP3   OH230955   4.591   2.342  11.727 -0.1800 -0.4662 -0.0597
 3155TIP3    H130956   4.578   2.436  11.715 -2.5513 -0.9721 -2.2327
 3155TIP3    H230957   4.682   2.327  11.698 -0.6428  0.8216 -2.4722
 3156TIP3   OH230958   6.419   5.811   4.686 -0.0781 -0.4683 -0.1675
 3156TIP3    H130959   6.489   5.786   4.625 -0.1809 -0.0369 -0.4651
 3156TIP3    H230960   6.452   5.888   4.731 -0.6687  0.2215 -0.8780
 3157TIP3   OH230961   4.280   5.255  13.307  0.2410 -0.0342 -0.7732
 3157TIP3    H130962   4.355   5.199  13.286 -1.5233 -2.2392 -1.4998
 3157TIP3    H230963   4.256   5.296  13.224  0.9696  1.1827 -0.4164
 3158TIP3   OH230964   1.632   0.311   0.308 -0.0998 -0.0000  0.0551
 3158TIP3    H130965   1.609   0.301   0.401  0.8677 -3.0692  0.0885
 3158TIP3    H230966   1.559   0.271   0.261  0.6774 -1.0138 -0.3242
 3159TIP3   OH230967   4.548   5.676  13.301 -0.3274 -0.1763 -0.0640
 3159TIP3    H130968   4.473   5.632  13.339 -0.4344 -1.0671 -1.2416
 3159TIP3    H230969   4.564   5.751  13.358 -2.9379  0.8076 -0.5118
 3160TIP3   OH230970   5.679   5.129  12.868  0.5956 -0.4699  0.7909
 3160TIP3    H130971   5.620   5.204  12.856  1.2937  0.0389  0.4119
 3160TIP3    H230972   5.656   5.094  12.954  0.2604  0.1925  0.9818
 3161TIP3   OH230973   4.883   2.449   2.768  0.2897 -0.8837 -0.0287
 3161TIP3    H130974   4.911   2.499   2.845  0.3181 -1.1434  0.1334
 3161TIP3    H230975   4.826   2.508   2.719  0.7046 -0.5298 -0.0870
 3162TIP3   OH230976   3.975   0.104   0.121  0.5902 -0.2384 -0.0164
 3162TIP3    H130977   3.912   0.166   0.084 -0.1752 -0.7861  0.3670
 3162TIP3    H230978   3.954   0.020   0.081  0.5087 -0.5990  0.7626
 3163TIP3   OH230979   0.274   0.146  12.952  0.1054  0.5188 -0.8331
 3163TIP3    H130980   0.344   0.086  12.926  1.0949  0.9997  0.5872
 3163TIP3    H230981   0.198   0.089  12.963  1.3346 -0.7869  1.8226
 3164TIP3   OH230982   5.903   6.353   2.364 -0.4233  0.0349 -0.5071
 3164TIP3    H130983   5.973   6.315   2.311 -1.0009 -0.7333 -0.7395
 3164TIP3    H230984   5.842   6.280   2.379  0.2756 -0.0828  2.1883
 3165TIP3   OH230985   6.349   4.550  17.054 -0.0845 -0.0651  0.5231
 3165TIP3    H130986   6.261   4.581  17.032 -0.0082 -0.0885  0.1743
 3165TIP3    H230987   6.336   4.462  17.089 -0.1352 -0.3800 -0.2609
 3166TIP3   OH230988   4.044   6.161  14.581  0.3139 -0.3625  0.6200
 3166TIP3    H130989   4.006   6.199  14.502 -1.1872 -1.6645  0.6547
 3166TIP3    H230990   4.138   6.167  14.568  0.1016 -0.4437 -1.2212
 3167TIP3   OH230991   1.946   5.343   0.899 -0.2770  0.1557 -0.1009
 3167TIP3    H130992   1.957   5.324   0.992  0.6615 -0.8221 -0.3924
 3167TIP3    H230993   2.029   5.382   0.873 -0.2271 -0.3393 -0.7079
 3168TIP3   OH230994   1.739   4.258   6.330  0.4599  0.5305  0.2400
 3168TIP3    H130995   1.707   4.289   6.246  0.2386 -2.6453 -0.9557
 3168TIP3    H230996   1.661   4.252   6.385  0.0011 -0.7505 -0.5104
 3169TIP3   OH230997   0.045   3.875   4.717  0.2631 -0.1545 -0.1988
 3169TIP3    H130998   0.083   3.952   4.675  0.1485 -0.6979 -1.3246
 3169TIP3    H230999  -0.037   3.906   4.755 -0.3576  0.0288 -1.6533
 3170TIP3   OH231000   5.718   4.502  11.150 -0.2959  0.5486  0.2551
 3170TIP3    H131001   5.757   4.416  11.168  0.1075  1.0192  1.7564
 3170TIP3    H231002   5.752   4.526  11.064  0.1899 -0.4606  0.1539
 3171TIP3   OH231003   4.044   2.367   2.575 -0.5167 -0.2205 -0.5764
 3171TIP3    H131004   3.982   2.398   2.509 -1.1744 -1.5080 -0.5896
 3171TIP3    H231005   3.995   2.302   2.626  1.0739 -1.9910 -1.1788
 3172TIP3   OH231006   0.370   3.454   1.501  0.1083 -0.2927  0.0907
 3172TIP3    H131007   0.320   3.381   1.537  0.5292  0.0847  1.4988
 3172TIP3    H231008   0.312   3.530   1.508  0.8004  0.1260  1.6345
 3173TIP3   OH231009   3.397   5.397  11.847 -0.1643  0.4372 -0.4476
 3173TIP3    H131010   3.381   5.305  11.868  0.4693  0.0975 -1.3664
 3173TIP3    H231011   3.356   5.410  11.762  1.0578  0.5767 -1.0433
 3174TIP3   OH231012   5.360   3.193   3.044 -0.1264 -0.5175 -0.2689
 3174TIP3    H131013   5.316   3.108   3.040 -0.6322 -0.3471  1.0349
 3174TIP3    H231014   5.399   3.195   3.131 -0.4264  0.7213 -0.1446
 3175TIP3   OH231015   4.643   3.267   3.957 -0.1254 -0.5154  0.9210
 3175TIP3    H131016   4.576   3.199   3.962  0.0902 -0.7720  0.3873
 3175TIP3    H231017   4.634   3.315   4.039  0.2879 -1.7329  1.7195
 3176TIP3   OH231018   3.003   3.283   2.644  0.2978 -0.8293  0.8096
 3176TIP3    H131019   3.048   3.199   2.634 -0.8053 -1.6794  2.5697
 3176TIP3    H231020   2.910   3.262   2.635  0.0940  0.6607 -1.2325
 3177TIP3   OH231021   1.975   4.617   4.606  0.5969  0.3615 -0.3977
 3177TIP3    H131022   2.041   4.615   4.675  1.7219  2.2196 -1.3239
 3177TIP3    H231023   2.014   4.567   4.534 -0.7675 -1.9694  0.4044
 3178TIP3   OH231024   4.853   2.045  12.819  0.1068  0.8058 -0.5377
 3178TIP3    H131025   4.914   1.971  12.820 -1.5278 -0.6237 -1.0930
 3178TIP3    H231026   4.770   2.008  12.851 -0.7103  2.4592 -0.6293
 3179TIP3   OH231027   1.008   4.039   5.091  0.3025  0.8301  0.6485
 3179TIP3    H131028   1.010   4.078   5.004 -1.0433  1.4347  0.8635
 3179TIP3    H231029   0.978   3.949   5.076  0.8947  0.6716  0.4058
 3180TIP3   OH231030   3.603   3.884   5.658 -0.7063 -0.1370  0.3605
 3180TIP3    H131031   3.583   3.862   5.749 -0.1738  0.6554  0.6795
 3180TIP3    H231032   3.695   3.862   5.647 -0.6335  0.2524  0.1690
 3181TIP3   OH231033   2.593   3.727  11.274 -0.3451 -0.1681 -0.7352
 3181TIP3    H131034   2.559   3.700  11.189 -1.7169  0.1638 -0.3072
 3181TIP3    H231035   2.546   3.674  11.337 -0.1418  0.3750 -0.1120
 3182TIP3   OH231036   5.322   5.812   4.237  0.4052  0.0009  0.1965
 3182TIP3    H131037   5.270   5.813   4.318 -2.7827 -0.9464 -1.6753
 3182TIP3    H231038   5.382   5.739   4.248 -0.6568 -0.7446  1.3318
 3183TIP3   OH231039   6.443   5.495  16.280  0.0938 -0.0409  0.6446
 3183TIP3    H131040   6.451   5.546  16.361  1.4015 -0.3390  0.7191
 3183TIP3    H231041   6.368   5.437  16.296  0.5876 -0.3834  1.8099
 3184TIP3   OH231042   2.967   1.237   3.970  0.1937  0.0461  0.5604
 3184TIP3    H131043   2.891   1.181   3.985  0.8705 -1.3293 -0.8580
 3184TIP3    H231044   3.034   1.204   4.030  0.8865 -1.3428 -0.9025
 3185TIP3   OH231045   4.696   4.918   0.173  0.5111 -0.1857  0.4551
 3185TIP3    H131046   4.735   4.959   0.250 -1.3112  0.8650  0.8841
 3185TIP3    H231047   4.627   4.978   0.147  1.1259 -0.4927 -2.0704
 3186TIP3   OH231048   3.246   3.746   3.511 -0.9030  0.0343 -0.0605
 3186TIP3    H131049   3.317   3.734   3.574  0.6464 -1.0035 -1.8969
 3186TIP3    H231050   3.181   3.680   3.534 -0.8143  0.3090  1.0107
 3187TIP3   OH231051   5.667   6.822   5.063  0.3230 -0.1681 -0.0844
 3187TIP3    H131052   5.630   6.746   5.018 -0.9326  0.6517 -0.5128
 3187TIP3    H231053   5.743   6.788   5.110  0.4953 -1.4455 -1.2145
 3188TIP3   OH231054   0.192   1.892   2.311 -0.4163 -0.0627 -0.3539
 3188TIP3    H131055   0.135   1.933   2.376 -0.5777  0.9890 -1.1356
 3188TIP3    H231056   0.154   1.805   2.296 -1.8070  0.6093 -0.8339
 3189TIP3   OH231057   6.658   1.136   5.786  0.0926 -0.0687 -0.0749
 3189TIP3    H131058   6.728   1.070   5.779  0.9894  0.7422  0.8564
 3189TIP3    H231059   6.699   1.209   5.833 -1.1198  0.8233 -0.3621
 3190TIP3   OH231060   2.129   4.487  15.837 -0.4082  0.0157 -0.4380
 3190TIP3    H131061   2.219   4.453  15.833 -0.5031 -0.1277 -1.6317
 3190TIP3    H231062   2.074   4.409  15.840 -0.5435  0.0929 -0.9580
 3191TIP3   OH231063   5.862   0.693   0.899  0.5332 -0.0167  0.2049
 3191TIP3    H131064   5.787   0.746   0.926  1.1830  1.5539 -0.9090
 3191TIP3    H231065   5.827   0.635   0.831  0.3100  0.7132 -0.3171
 3192TIP3   OH231066   5.708   2.828   3.418 -0.2712 -0.0321 -0.6731
 3192TIP3    H131067   5.774   2.848   3.352  0.8215  2.2831  0.9671
 3192TIP3    H231068   5.748   2.760   3.472 -0.4211 -0.6296 -1.2993
 3193TIP3   OH231069   6.163   3.329   5.135  0.8675  0.3250  0.2731
 3193TIP3    H131070   6.079   3.305   5.097  0.8835 -0.2051  0.5795
 3193TIP3    H231071   6.228   3.283   5.081  0.8654 -0.9498  1.3140
 3194TIP3   OH231072   1.039   2.404   3.231 -0.1659 -0.3307  0.6798
 3194TIP3    H131073   0.960   2.353   3.250 -0.2265 -0.3518  0.3680
 3194TIP3    H231074   1.006   2.487   3.196 -0.0271 -1.1639 -1.5700
 3195TIP3   OH231075   5.556   1.253  15.565  0.0468 -0.3588  0.5831
 3195TIP3    H131076   5.612   1.276  15.491 -1.7069  0.4149 -0.5673
 3195TIP3    H231077   5.598   1.175  15.603  2.3717  0.7142  0.3735
 3196TIP3   OH231078   6.674   0.304   5.133  0.0422 -0.2891 -0.2256
 3196TIP3    H131079   6.596   0.285   5.080 -0.5525  2.8980 -0.7230
 3196TIP3    H231080   6.639   0.319   5.221  0.1691  0.4174 -0.2905
 3197TIP3   OH231081   6.628   1.517  14.002 -0.0639 -0.3069 -0.3782
 3197TIP3    H131082   6.583   1.523  14.086  0.5172 -0.6790 -0.0347
 3197TIP3    H231083   6.654   1.607  13.983  2.4607 -0.5571  1.3405
 3198TIP3   OH231084   4.456   2.577   3.596 -0.1939 -0.2093 -0.8712
 3198TIP3    H131085   4.504   2.500   3.566 -2.1736 -1.3795 -1.1606
 3198TIP3    H231086   4.442   2.562   3.689 -3.7436 -2.1164 -1.5505
 3199TIP3   OH231087   3.189   6.405   2.019 -0.0002  0.9458 -0.5036
 3199TIP3    H131088   3.130   6.471   1.980 -0.3412  0.9549  0.0168
 3199TIP3    H231089   3.247   6.455   2.075  1.1116  1.0494 -1.6962
 3200TIP3   OH231090   0.619   4.793   1.469  0.4545 -0.0193  0.7769
 3200TIP3    H131091   0.600   4.844   1.391  0.6435  1.0557  1.4064
 3200TIP3    H231092   0.566   4.834   1.538 -1.2734 -2.1793  0.8439
 3201TIP3   OH231093   3.588   0.412   6.294  0.0784  0.2644  0.3759
 3201TIP3    H131094   3.627   0.491   6.258  2.3033 -1.4135 -1.1526
 3201TIP3    H231095   3.650   0.382   6.360  0.1194 -1.0389 -0.2162
 3202TIP3   OH231096   2.255   1.508  15.408  0.4095  0.4985 -0.1103
 3202TIP3    H131097   2.203   1.587  15.421 -0.2848  0.0884 -0.3343
 3202TIP3    H231098   2.335   1.538  15.366  1.6178  1.5278  2.6888
 3203TIP3   OH231099   0.439   2.556   0.116  0.1497 -0.5579 -0.1153
 3203TIP3    H131100   0.356   2.527   0.080 -0.1532  0.5900 -0.3853
 3203TIP3    H231101   0.482   2.476   0.145 -1.0419 -1.1646  0.0245
 3204TIP3   OH231102   2.990   6.800   0.906  0.1534 -0.5458  0.2278
 3204TIP3    H131103   2.904   6.758   0.910  0.5836 -1.4681  0.0114
 3204TIP3    H231104   3.033   6.776   0.988  0.6242 -1.0233 -0.1557
 3205TIP3   OH231105   6.391   3.685  11.708  0.1473  0.0811 -0.2354
 3205TIP3    H131106   6.480   3.657  11.689  1.1219  0.2806  3.2875
 3205TIP3    H231107   6.336   3.628  11.654  2.3353 -1.0613 -1.4174
 3206TIP3   OH231108   1.741   3.226  16.991  0.0811  0.0619 -0.0853
 3206TIP3    H131109   1.662   3.189  17.030  0.0304  0.0318 -0.2165
 3206TIP3    H231110   1.777   3.154  16.939  0.4406 -0.0674  0.3354
 3207TIP3   OH231111   5.624   6.497  15.406  0.3620 -0.0170  0.3131
 3207TIP3    H131112   5.679   6.419  15.410 -0.3909 -0.7607 -2.0970
 3207TIP3    H231113   5.538   6.464  15.382  0.1152  1.5398 -1.1691
 3208TIP3   OH231114   2.733   0.271   0.824  0.4422  0.5824 -0.2157
 3208TIP3    H131115   2.672   0.228   0.764 -0.9827  0.2268  1.3976
 3208TIP3    H231116   2.787   0.200   0.858 -1.2233  0.0983  1.6564
 3209TIP3   OH231117   1.397   5.355  13.645  0.4988 -0.6394 -0.6019
 3209TIP3    H131118   1.326   5.379  13.705  2.3288  1.2443  0.9773
 3209TIP3    H231119   1.420   5.266  13.670  0.1161 -0.4815  0.3713
 3210TIP3   OH231120   2.974   3.784  11.111 -0.0843  0.3422  0.0862
 3210TIP3    H131121   2.988   3.858  11.171 -0.6336 -0.3215  1.0679
 3210TIP3    H231122   2.938   3.715  11.167  1.7732 -1.1731 -0.5078
 3211TIP3   OH231123   2.899   1.082  14.132  0.1723 -0.5537 -0.2276
 3211TIP3    H131124   2.819   1.048  14.090  0.3735  1.2862 -2.3149
 3211TIP3    H231125   2.872   1.167  14.168  1.4400  0.8888 -2.4203
 3212TIP3   OH231126   4.001   4.909   4.455  0.0572  0.5724  0.3951
 3212TIP3    H131127   3.976   4.827   4.497  0.6608 -0.0089 -0.3632
 3212TIP3    H231128   4.095   4.916   4.469  0.2536  0.4190 -0.7480
 3213TIP3   OH231129   1.309   5.223   3.959  0.0060  0.2687 -0.2917
 3213TIP3    H131130   1.337   5.289   4.022  0.2757 -0.7058  0.6603
 3213TIP3    H231131   1.391   5.182   3.929 -0.2015 -0.3882  0.0048
 3214TIP3   OH231132   0.112   0.496  16.283 -0.4022  0.1523 -1.2139
 3214TIP3    H131133   0.138   0.443  16.207  0.0821  0.8103 -1.5194
 3214TIP3    H231134   0.048   0.441  16.329  1.9747 -1.8444 -0.0585
 3215TIP3   OH231135   0.279   5.286  12.252 -0.6461  0.1084  0.7974
 3215TIP3    H131136   0.305   5.219  12.189 -3.3606 -0.4524  0.1397
 3215TIP3    H231137   0.359   5.335  12.269  1.5087 -3.2915  1.4098
 3216TIP3   OH231138   3.980   5.504   5.722  0.2587 -0.1895 -0.5117
 3216TIP3    H131139   4.058   5.560   5.733 -0.9126  1.0627  2.6612
 3216TIP3    H231140   3.998   5.427   5.776 -0.7368  0.2308  0.4646
 3217TIP3   OH231141   0.392   0.929  12.841  0.2609 -0.1610  0.2305
 3217TIP3    H131142   0.446   0.855  12.812 -0.4878 -1.3921  1.8559
 3217TIP3    H231143   0.455   1.001  12.852  1.1468 -0.8064 -0.4284
 3218TIP3   OH231144   5.784   3.723  14.989  0.4251  0.5233  0.2677
 3218TIP3    H131145   5.771   3.816  15.007 -0.2224  0.2878  1.0798
 3218TIP3    H231146   5.789   3.717  14.893 -2.5493  1.0541 -0.0159
 3219TIP3   OH231147   5.779   3.348   5.952 -0.0931  0.2237 -0.2626
 3219TIP3    H131148   5.772   3.253   5.955  0.3173  0.1144 -1.9525
 3219TIP3    H231149   5.692   3.377   5.923  0.0003  0.3140 -0.4523
 3220TIP3   OH231150   4.515   0.266  15.668 -0.1015  0.5491  0.4729
 3220TIP3    H131151   4.489   0.179  15.699 -0.4834 -0.2892 -1.9933
 3220TIP3    H231152   4.433   0.312  15.654  0.0478  0.7781  0.3497
 3221TIP3   OH231153   3.660   2.572  16.376  0.1557 -0.5036  0.1532
 3221TIP3    H131154   3.739   2.561  16.324  0.0404 -0.5821 -0.0091
 3221TIP3    H231155   3.592   2.593  16.312  0.0552 -0.3956  0.2930
 3222TIP3   OH231156   1.925   2.345   4.361 -0.2903  0.2983  0.6636
 3222TIP3    H131157   1.951   2.255   4.382  0.2357  0.5930  1.2862
 3222TIP3    H231158   1.908   2.343   4.267  0.8264 -0.1830  0.4614
 3223TIP3   OH231159   6.460   1.591  12.931  0.1754  0.2996 -0.8361
 3223TIP3    H131160   6.420   1.612  13.015  1.0307  0.2246 -0.3993
 3223TIP3    H231161   6.486   1.499  12.939 -0.0491  0.1915 -1.3106
 3224TIP3   OH231162   3.970   2.089  12.452 -0.5236 -0.3268 -0.1201
 3224TIP3    H131163   3.994   2.135  12.532 -2.0942  1.3093 -0.5143
 3224TIP3    H231164   3.897   2.032  12.478 -1.7027  0.9349 -0.5062
 3225TIP3   OH231165   1.525   2.629  13.737 -0.0148 -0.7760 -0.5328
 3225TIP3    H131166   1.486   2.565  13.798 -0.2409 -0.6850 -0.5789
 3225TIP3    H231167   1.616   2.636  13.764 -0.7341  1.4406  1.6754
 3226TIP3   OH231168   3.622   4.198  16.257 -1.0101  0.0076 -0.7564
 3226TIP3    H131169   3.709   4.160  16.242 -0.1423  2.1677 -1.6423
 3226TIP3    H231170   3.575   4.185  16.175 -1.8145 -1.7541 -0.0572
 3227TIP3   OH231171   1.071   4.597   1.347  0.3897  0.4422  0.0317
 3227TIP3    H131172   1.014   4.573   1.274 -1.4051 -0.3892  1.6045
 3227TIP3    H231173   1.090   4.515   1.391 -0.3844  1.1063  1.7119
 3228TIP3   OH231174   6.323   5.995   5.088 -0.2964  0.1097 -0.0645
 3228TIP3    H131175   6.412   5.983   5.121  0.1649 -1.0187 -1.5987
 3228TIP3    H231176   6.302   5.911   5.047 -1.8388  0.5748 -0.2727
 3229TIP3   OH231177   2.748   5.406  15.321  0.2561  0.0715 -0.0707
 3229TIP3    H131178   2.824   5.348  15.309  0.5300  0.6758 -1.4251
 3229TIP3    H231179   2.786   5.488  15.352  0.1683  0.3815 -0.7713
 3230TIP3   OH231180   4.476   1.976   0.025  0.0275  0.1975  0.2528
 3230TIP3    H131181   4.438   2.063   0.035 -0.9498 -0.3599  1.5663
 3230TIP3    H231182   4.426   1.936  -0.047 -2.0004 -0.5446  1.9843
 3231TIP3   OH231183   6.418   2.305  15.075  0.0822  0.2878  0.4445
 3231TIP3    H131184   6.477   2.237  15.044  1.8213  0.7889  2.4274
 3231TIP3    H231185   6.333   2.262  15.086  0.8789 -1.2679  0.6192
 3232TIP3   OH231186   2.330   0.852  14.671 -0.6515 -0.2930 -0.0882
 3232TIP3    H131187   2.390   0.842  14.597  0.1030 -1.3605  0.6315
 3232TIP3    H231188   2.260   0.789  14.655 -0.3822 -0.6701  0.1916
 3233TIP3   OH231189   2.352   5.758  14.310  0.5919 -0.1006  0.2838
 3233TIP3    H131190   2.401   5.715  14.380  2.5562  3.1393  1.1540
 3233TIP3    H231191   2.395   5.729  14.230  1.7308  0.0160  0.8241
 3234TIP3   OH231192   0.842   2.952   4.341  0.3872 -0.6348  0.2245
 3234TIP3    H131193   0.800   3.001   4.270 -1.6297 -0.9367  1.1290
 3234TIP3    H231194   0.898   2.889   4.296  0.6251  0.4152 -1.0365
 3235TIP3   OH231195   4.826   1.411   1.955  0.6187  0.5190 -0.4653
 3235TIP3    H131196   4.882   1.350   1.906 -0.4809 -1.1452  0.2622
 3235TIP3    H231197   4.886   1.456   2.014  1.2874 -1.0389  0.1081
 3236TIP3   OH231198   2.260   5.495   1.186 -0.3321  0.5203  1.0413
 3236TIP3    H131199   2.210   5.414   1.182 -0.5733  0.7076 -1.4885
 3236TIP3    H231200   2.351   5.468   1.174 -0.2780  0.5148  1.4726
 3237TIP3   OH231201   1.270   2.540  13.213  0.5165 -0.0150  0.6135
 3237TIP3    H131202   1.264   2.463  13.270 -2.8225 -0.3866 -0.0346
 3237TIP3    H231203   1.364   2.550  13.197  1.2522 -2.5700  2.5414
 3238TIP3   OH231204   0.909   2.377  13.513  0.6404 -0.0123 -0.0789
 3238TIP3    H131205   0.999   2.348  13.495 -0.6186 -3.2514 -1.8909
 3238TIP3    H231206   0.876   2.407  13.428 -0.2598  0.4439  0.4148
 3239TIP3   OH231207   2.518   1.486  14.824  0.4198 -0.0247 -0.2625
 3239TIP3    H131208   2.449   1.430  14.861  1.4678 -0.9522  0.3780
 3239TIP3    H231209   2.542   1.443  14.742  0.3048  0.2497 -0.4412
 3240TIP3   OH231210   0.406   5.764  13.346 -0.0483  0.5979  1.0473
 3240TIP3    H131211   0.451   5.800  13.422  1.8911 -0.1094  0.2996
 3240TIP3    H231212   0.427   5.671  13.347 -0.0311  0.5681 -0.2989
 3241TIP3   OH231213   4.275   3.931   0.646  0.1179  0.5142 -0.7110
 3241TIP3    H131214   4.342   3.941   0.578  1.1559  2.8942  0.5285
 3241TIP3    H231215   4.317   3.876   0.712 -0.6768 -1.3021 -1.6392
 3242TIP3   OH231216   3.519   0.292  12.065 -0.2454  0.1987 -0.4749
 3242TIP3    H131217   3.602   0.256  12.034 -0.2369  0.0710 -0.3008
 3242TIP3    H231218   3.454   0.227  12.038 -0.3754  0.6302 -1.2329
 3243TIP3   OH231219   2.171   5.291   0.580 -0.0324 -0.3885  0.5251
 3243TIP3    H131220   2.247   5.298   0.637 -0.3531  1.7957  0.7647
 3243TIP3    H231221   2.096   5.286   0.639 -0.1927 -1.0406  0.2818
 3244TIP3   OH231222   5.366   5.953   0.894 -0.2767  0.0414 -0.4005
 3244TIP3    H131223   5.442   5.902   0.865  0.7934  1.5503 -0.3573
 3244TIP3    H231224   5.387   6.044   0.871 -1.6505  0.6251  0.4917
 3245TIP3   OH231225   3.881   2.208  12.221 -1.1506  0.6116 -0.0904
 3245TIP3    H131226   3.906   2.215  12.314 -0.4957 -1.1985 -0.1056
 3245TIP3    H231227   3.790   2.180  12.223 -0.6539 -1.0873  0.0556
 3246TIP3   OH231228   5.561   0.376   0.903 -0.3985 -0.3665 -0.0577
 3246TIP3    H131229   5.639   0.322   0.912 -2.0328 -3.0098 -0.5879
 3246TIP3    H231230   5.581   0.437   0.832 -0.0969 -3.6795 -3.0824
 3247TIP3   OH231231   5.061   2.500  12.764 -0.0339  0.4035 -0.0295
 3247TIP3    H131232   5.061   2.595  12.757  1.6979  0.4156 -0.2385
 3247TIP3    H231233   5.008   2.471  12.690 -1.4905  1.2040  0.6543
 3248TIP3   OH231234   1.438   3.360   5.780 -0.3274  0.5168 -0.4253
 3248TIP3    H131235   1.370   3.390   5.840 -0.1885  1.0698 -0.5352
 3248TIP3    H231236   1.509   3.330   5.836 -1.0038 -0.9470 -0.2867
 3249TIP3   OH231237   6.556   6.289  13.335  0.2702  0.4637  0.2363
 3249TIP3    H131238   6.544   6.195  13.349  0.1516  0.3629 -0.4726
 3249TIP3    H231239   6.496   6.331  13.396 -3.2998  0.0038 -2.5681
 3250TIP3   OH231240   6.789   6.724   0.979 -0.3827 -0.0290 -0.2421
 3250TIP3    H131241   6.833   6.796   1.025 -1.0656 -0.1848  0.6748
 3250TIP3    H231242   6.753   6.669   1.049 -0.4256 -0.9152 -0.9460
 3251TIP3   OH231243   6.575   0.949   5.998  0.5017  0.2382  0.2305
 3251TIP3    H131244   6.524   1.009   6.052 -2.0774  0.7508 -2.5052
 3251TIP3    H231245   6.648   1.001   5.966  0.7685  0.5718  1.3474
 3252TIP3   OH231246   5.043   1.489  12.241 -0.0370  0.9308 -0.0248
 3252TIP3    H131247   4.959   1.445  12.253  0.5876 -0.4865 -0.5706
 3252TIP3    H231248   5.097   1.459  12.314  0.3179  0.9992 -0.2548
 3253TIP3   OH231249   0.129   0.475  16.685  0.5062 -0.1162 -0.3966
 3253TIP3    H131250   0.072   0.512  16.617  0.9149 -2.3326 -2.0453
 3253TIP3    H231251   0.068   0.435  16.747  0.1669  0.9696 -0.0096
 3254TIP3   OH231252   1.908   1.057  12.711  0.0072  0.3123 -0.8437
 3254TIP3    H131253   1.892   1.087  12.621  0.1563 -0.5339 -1.1557
 3254TIP3    H231254   1.879   0.966  12.712 -1.0665  0.6221  0.2704
 3255TIP3   OH231255   5.608   3.439   4.697 -0.0074 -0.2394  0.1958
 3255TIP3    H131256   5.589   3.352   4.732 -1.7758 -0.6449 -1.5647
 3255TIP3    H231257   5.523   3.484   4.696  0.8271  1.4754  0.8754
 3256TIP3   OH231258   1.057   3.022   1.379  0.0414  0.7385 -0.7838
 3256TIP3    H131259   1.143   3.027   1.338  0.0120 -0.3850 -1.0157
 3256TIP3    H231260   1.000   2.989   1.310 -0.5485  1.3261 -0.5847
 3257TIP3   OH231261   0.835   5.833   6.577  0.5013 -0.5197 -0.3149
 3257TIP3    H131262   0.880   5.823   6.661  0.3652 -0.7737 -0.2740
 3257TIP3    H231263   0.904   5.858   6.516  0.5118  0.2239 -0.0119
 3258TIP3   OH231264   0.633   2.245   0.669 -0.0537 -0.1062  0.5235
 3258TIP3    H131265   0.657   2.337   0.654  0.0168 -0.4060 -1.6067
 3258TIP3    H231266   0.543   2.249   0.701  0.4368  0.7356  1.9130
 3259TIP3   OH231267   2.247   6.088  16.608  0.1710  0.6153  0.1904
 3259TIP3    H131268   2.194   6.065  16.531 -0.2786  0.5700  0.5070
 3259TIP3    H231269   2.325   6.130  16.572  0.6809 -0.7599 -0.3769
 3260TIP3   OH231270   5.732   5.057  11.215 -0.3830  0.5951 -0.9197
 3260TIP3    H131271   5.702   5.090  11.131 -2.4451 -0.5656 -0.7122
 3260TIP3    H231272   5.749   4.964  11.199  0.3856  0.6203 -0.3174
 3261TIP3   OH231273   1.279   6.749   3.106 -0.4557 -0.2797  0.2241
 3261TIP3    H131274   1.348   6.683   3.114  0.1944  0.3248 -0.2560
 3261TIP3    H231275   1.300   6.815   3.172  0.4352  0.7673 -1.0474
 3262TIP3   OH231276   2.672   0.764   0.554  0.5296  0.0412  0.2384
 3262TIP3    H131277   2.649   0.835   0.615 -0.2910 -0.7029  0.8144
 3262TIP3    H231278   2.762   0.785   0.526  0.0253  1.7426 -0.2439
 3263TIP3   OH231279   4.634   4.148   3.005 -0.4211  0.0972 -0.0549
 3263TIP3    H131280   4.543   4.121   2.999 -0.2766 -0.1762 -1.3478
 3263TIP3    H231281   4.684   4.072   2.976  0.0785  1.0341 -1.8539
 3264TIP3   OH231282   0.061   2.976  13.118 -0.5638  0.7934  0.0528
 3264TIP3    H131283   0.109   3.057  13.102  0.0347  0.8434  1.8127
 3264TIP3    H231284  -0.006   2.999  13.182 -0.1421 -0.1364  0.8717
 3265TIP3   OH231285   0.372   2.663  14.972 -0.0920 -0.5332 -0.6150
 3265TIP3    H131286   0.404   2.579  14.940 -0.2045 -0.3323 -1.2537
 3265TIP3    H231287   0.379   2.656  15.068 -0.5041 -1.4286 -0.6374
 3266TIP3   OH231288   1.392   5.710  13.585 -0.4255  0.1043  0.1761
 3266TIP3    H131289   1.316   5.687  13.637  0.4394 -1.4162  0.8294
 3266TIP3    H231290   1.467   5.675  13.634  0.4978 -0.5558 -1.5937
 3267TIP3   OH231291   0.954   5.244  11.602 -0.0201  0.4904  0.1758
 3267TIP3    H131292   0.960   5.317  11.664  0.7643  1.2781 -0.8077
 3267TIP3    H231293   1.006   5.271  11.527  0.5173 -1.2079 -0.1071
 3268TIP3   OH231294   3.323   3.587   4.647  0.2175  0.5029  0.2932
 3268TIP3    H131295   3.276   3.665   4.618  1.3193  1.0678 -0.0386
 3268TIP3    H231296   3.412   3.600   4.615  0.5171 -0.7051  0.5910
 3269TIP3   OH231297   6.611   2.450  15.243  0.6803  0.4008  0.4751
 3269TIP3    H131298   6.547   2.518  15.265 -0.3292 -0.5897  0.7181
 3269TIP3    H231299   6.570   2.401  15.171  1.4776  0.1622  0.1694
 3270TIP3   OH231300   4.312   2.696   3.407  0.0585  0.2782 -0.6059
 3270TIP3    H131301   4.357   2.684   3.490  0.2974  1.6424 -0.5102
 3270TIP3    H231302   4.299   2.607   3.373  0.3312 -0.2686  0.6761
 3271TIP3   OH231303   0.301   0.348  15.733  0.7043  0.5693  0.3936
 3271TIP3    H131304   0.236   0.396  15.784  1.4581  0.4206  1.5204
 3271TIP3    H231305   0.295   0.386  15.645 -1.5939 -0.1226  0.1841
 3272TIP3   OH231306   5.205   3.354  15.813  0.0542  0.5579 -0.4328
 3272TIP3    H131307   5.127   3.403  15.789  1.1385  1.8481 -1.5166
 3272TIP3    H231308   5.276   3.397  15.765  1.3912 -0.7503  0.2784
 3273TIP3   OH231309   1.979   5.448  11.220 -0.2834 -1.1847 -0.0344
 3273TIP3    H131310   1.965   5.429  11.127  0.4051 -1.5768 -0.0603
 3273TIP3    H231311   1.894   5.479  11.250  0.0844  1.4572 -1.3890
 3274TIP3   OH231312   0.814   3.687  13.246 -0.3183 -0.5883 -0.3721
 3274TIP3    H131313   0.754   3.735  13.190 -0.2612 -0.5080 -0.3644
 3274TIP3    H231314   0.759   3.624  13.293 -0.5091 -0.0460  0.1490
 3275TIP3   OH231315   2.207   4.209   4.971  0.7363 -0.3017 -0.0328
 3275TIP3    H131316   2.163   4.290   4.996  1.0350 -0.0438 -0.3244
 3275TIP3    H231317   2.274   4.196   5.038  0.4396 -0.5105  0.2224
 3276TIP3   OH231318   4.970   6.351   5.062 -0.3933 -0.3169  0.4736
 3276TIP3    H131319   4.964   6.439   5.024 -1.9807  0.0273  1.4272
 3276TIP3    H231320   4.883   6.336   5.100  0.3299 -1.6912  1.6511
 3277TIP3   OH231321   4.434   1.100  12.491 -0.1174  0.0617  0.4162
 3277TIP3    H131322   4.353   1.114  12.441 -0.4076  1.1933  1.1724
 3277TIP3    H231323   4.432   1.007  12.512 -2.0072  0.3377  1.7056
 3278TIP3   OH231324   4.559   3.526   3.454  0.0141 -0.8056  0.0426
 3278TIP3    H131325   4.500   3.570   3.393  0.5442  1.7117  1.2275
 3278TIP3    H231326   4.645   3.565   3.437  0.6912 -1.9820  0.6169
 3279TIP3   OH231327   6.541   5.023  16.604 -0.1531  0.0996 -0.3553
 3279TIP3    H131328   6.628   5.043  16.569 -0.3428  1.4787 -0.0971
 3279TIP3    H231329   6.530   4.930  16.587  0.9373  0.1208 -1.3554
 3280TIP3   OH231330   4.242   6.593  10.729 -0.0813  0.2824  0.5798
 3280TIP3    H131331   4.183   6.629  10.662 -0.5995 -1.4168  0.0795
 3280TIP3    H231332   4.284   6.519  10.686 -0.4474 -0.8659  2.1435
 3281TIP3   OH231333   3.973   0.772  12.672 -0.0319 -0.1929 -0.2211
 3281TIP3    H131334   4.041   0.815  12.620 -1.5329 -0.1396 -2.2381
 3281TIP3    H231335   3.997   0.791  12.763  3.3085 -1.2082 -0.7563
 3282TIP3   OH231336   2.775   1.674  16.328 -0.0254  0.5348  0.1921
 3282TIP3    H131337   2.746   1.664  16.419 -0.9529 -2.5636 -0.3289
 3282TIP3    H231338   2.850   1.615  16.320 -1.9592 -1.8948 -1.7608
 3283TIP3   OH231339   0.170   5.946  15.730  0.2473  0.1465 -0.5573
 3283TIP3    H131340   0.107   5.873  15.732 -1.2494  1.3880 -0.6371
 3283TIP3    H231341   0.253   5.905  15.704 -0.6745 -1.4376 -1.1663
 3284TIP3   OH231342   1.235   3.021   4.258  0.4250 -0.3288  0.5081
 3284TIP3    H131343   1.188   2.995   4.178  0.3812 -1.6857  0.9613
 3284TIP3    H231344   1.167   3.023   4.325  0.5640  0.2755  0.6378
 3285TIP3   OH231345   2.069   2.703  12.819 -0.3751 -0.1470  0.0795
 3285TIP3    H131346   2.158   2.732  12.837 -0.3523  0.0437 -0.3436
 3285TIP3    H231347   2.075   2.655  12.737 -0.3392 -1.7385  0.9725
 3286TIP3   OH231348   5.215   1.049   1.871 -0.2682 -0.0287  0.0638
 3286TIP3    H131349   5.214   1.091   1.957 -0.9537 -0.7699  0.4213
 3286TIP3    H231350   5.231   0.957   1.889 -2.5202 -0.5648 -0.4244
 3287TIP3   OH231351   6.692   3.087   2.802  0.6602 -0.0084 -0.5666
 3287TIP3    H131352   6.623   3.138   2.762 -0.5105 -0.8291  0.3272
 3287TIP3    H231353   6.728   3.034   2.731 -1.6878 -1.7895 -0.5526
 3288TIP3   OH231354   6.400   3.140  11.831 -0.3332 -0.0976 -0.0583
 3288TIP3    H131355   6.450   3.121  11.752  0.1519  1.0428 -0.0443
 3288TIP3    H231356   6.398   3.235  11.837 -2.5748 -0.0726 -0.0873
 3289TIP3   OH231357   3.471   5.928   5.788 -0.0627  0.1662 -0.3992
 3289TIP3    H131358   3.429   5.962   5.709 -0.3376 -1.1319 -0.8386
 3289TIP3    H231359   3.408   5.865   5.823  0.4313  0.0900  0.3829
 3290TIP3   OH231360   5.685   3.568  12.263 -0.3911 -0.3355  0.7346
 3290TIP3    H131361   5.607   3.525  12.226 -1.8420  1.5826  1.3921
 3290TIP3    H231362   5.747   3.572  12.190 -1.8732  0.2788 -0.5511
 3291TIP3   OH231363   1.071   6.219  12.730  0.5937  0.5326  0.1939
 3291TIP3    H131364   1.066   6.158  12.656 -0.9283 -1.9898  2.1672
 3291TIP3    H231365   1.005   6.186  12.792  1.0556  3.1183  2.2363
 3292TIP3   OH231366   3.803   4.390   2.449  0.2066 -0.4825 -0.2166
 3292TIP3    H131367   3.892   4.404   2.481  0.2445  0.0791 -0.5651
 3292TIP3    H231368   3.814   4.369   2.356 -0.0611  0.0863 -0.3789
 3293TIP3   OH231369   6.134   3.535   1.356 -0.0904 -0.3725  0.4965
 3293TIP3    H131370   6.082   3.525   1.436  0.3173 -0.3050  0.7702
 3293TIP3    H231371   6.106   3.462   1.301 -0.9145 -0.0007  0.3966
 3294TIP3   OH231372   6.271   5.232   1.103 -0.6151  0.1435 -0.3718
 3294TIP3    H131373   6.264   5.204   1.011 -1.6576  1.5665 -0.7488
 3294TIP3    H231374   6.199   5.294   1.115 -0.4307  0.0671  1.3966
 3295TIP3   OH231375   3.689   6.702   5.803  0.0603 -0.5589  0.0383
 3295TIP3    H131376   3.757   6.769   5.792 -0.4589 -0.3910 -2.6540
 3295TIP3    H231377   3.725   6.624   5.762 -0.3462 -1.2644  0.9799
 3296TIP3   OH231378   1.150   3.040  13.470 -0.1258 -0.9099  0.5524
 3296TIP3    H131379   1.120   3.110  13.413 -0.2035 -0.9271  0.5715
 3296TIP3    H231380   1.229   3.074  13.512 -0.8308 -0.3636  1.4751
 3297TIP3   OH231381   6.452   5.617  16.529  0.0638 -0.2414 -0.2378
 3297TIP3    H131382   6.422   5.704  16.552  1.1897  0.7588 -2.2729
 3297TIP3    H231383   6.531   5.604  16.583 -0.5428 -0.3588  0.6430
 3298TIP3   OH231384   0.483   3.181  12.309  0.0825 -0.5367  0.0174
 3298TIP3    H131385   0.466   3.258  12.255 -0.0674 -0.7695 -0.2696
 3298TIP3    H231386   0.526   3.119  12.250  0.1991 -0.6744  0.2462
 3299TIP3   OH231387   2.528   5.941  16.842 -0.0319  0.1211 -0.5688
 3299TIP3    H131388   2.442   5.959  16.804  0.4381  0.9886 -1.2636
 3299TIP3    H231389   2.512   5.935  16.936 -0.7576  0.8591 -0.6365
 3300TIP3   OH231390   6.134   0.727  11.619  0.5530  0.1715  0.5379
 3300TIP3    H131391   6.184   0.780  11.681 -1.1418  0.9049  1.3455
 3300TIP3    H231392   6.060   0.782  11.595 -0.2858 -1.1508 -0.0201
 3301TIP3   OH231393   1.577   4.452   6.477  0.2331  0.6204 -0.7091
 3301TIP3    H131394   1.614   4.405   6.551 -0.0622  1.2531 -0.1509
 3301TIP3    H231395   1.492   4.411   6.463  0.1412  0.7273 -0.4709
 3302TIP3   OH231396   1.451   4.827  11.520  0.1023 -0.8559  0.4034
 3302TIP3    H131397   1.365   4.851  11.485  0.3543 -0.8782 -0.2393
 3302TIP3    H231398   1.494   4.910  11.537 -0.2178 -0.8346  1.1909
 3303TIP3   OH231399   0.268   1.915  13.829  0.2828  0.0799 -0.0125
 3303TIP3    H131400   0.332   1.981  13.802  0.1995  0.1627 -0.0067
 3303TIP3    H231401   0.267   1.919  13.924 -0.0398  0.3749 -0.0232
 3304TIP3   OH231402   0.379   2.948   4.619  0.1854  0.5553  0.0349
 3304TIP3    H131403   0.446   2.893   4.580  0.2639  1.0351 -0.5178
 3304TIP3    H231404   0.408   2.962   4.709  0.1837 -0.2606  0.1723
 3305TIP3   OH231405   5.093   0.611  16.278  0.2051  0.2439 -0.2555
 3305TIP3    H131406   5.022   0.549  16.260 -0.3267  0.8317 -0.1932
 3305TIP3    H231407   5.172   0.566  16.248 -0.2454 -0.2340 -0.7392
 3306TIP3   OH231408   0.951   4.584  11.786  0.8896  0.5270  0.4429
 3306TIP3    H131409   1.017   4.530  11.742  1.1987  2.2102 -1.2858
 3306TIP3    H231410   0.870   4.535  11.776  1.4755 -0.5133  0.5992
 3307TIP3   OH231411   6.528   0.521   2.186 -0.2153  0.4061  0.3040
 3307TIP3    H131412   6.498   0.431   2.174  0.4024 -0.2233  2.8969
 3307TIP3    H231413   6.500   0.544   2.275  1.4245  2.0510  0.4563
 3308TIP3   OH231414   6.308   2.135   5.305 -0.2176  0.4630 -0.2951
 3308TIP3    H131415   6.327   2.086   5.385  0.6062 -2.9778 -2.3793
 3308TIP3    H231416   6.389   2.182   5.286  0.0088  0.2957  0.2285
 3309TIP3   OH231417   6.571   2.867   5.877 -0.1290  0.3114  0.2789
 3309TIP3    H131418   6.577   2.809   5.954  0.1723 -0.2483 -0.1594
 3309TIP3    H231419   6.628   2.941   5.899  1.5190 -0.7690 -0.1825
 3310TIP3   OH231420   2.360   0.365   5.914  0.3696 -0.7548 -0.3118
 3310TIP3    H131421   2.376   0.320   5.997  0.8374  1.0073  0.5964
 3310TIP3    H231422   2.289   0.316   5.873  0.0596 -1.5946  1.1743
 3311TIP3   OH231423   2.172   5.525  11.903 -0.8106  0.4444  0.0712
 3311TIP3    H131424   2.190   5.474  11.982  1.1645  3.0251  1.4422
 3311TIP3    H231425   2.222   5.482  11.834 -0.4246 -0.3276  0.8124
 3312TIP3   OH231426   1.139   4.450  15.651  0.1524  0.0747  0.2874
 3312TIP3    H131427   1.122   4.442  15.557  0.4739 -0.4136  0.2712
 3312TIP3    H231428   1.059   4.490  15.686 -1.0711 -2.1846  0.2198
 3313TIP3   OH231429   2.351   1.034  13.633  0.3579  0.3360 -0.0381
 3313TIP3    H131430   2.295   0.959  13.652  1.5813 -0.2081  1.6791
 3313TIP3    H231431   2.308   1.107  13.678 -0.1772  0.4191 -0.6712
 3314TIP3   OH231432   5.022   2.479   2.297 -0.1240 -0.3836 -0.2157
 3314TIP3    H131433   4.990   2.434   2.218 -1.9391 -0.0182  0.2678
 3314TIP3    H231434   5.000   2.419   2.368 -0.2922  0.1649  0.1964
 3315TIP3   OH231435   6.671   6.209   2.101  0.2780  0.2777 -0.6222
 3315TIP3    H131436   6.674   6.132   2.158 -1.8634  0.4516 -0.1954
 3315TIP3    H231437   6.743   6.196   2.039  1.3907 -0.9115  0.8452
 3316TIP3   OH231438   0.184   5.558  12.890 -0.2761 -0.0364  0.2283
 3316TIP3    H131439   0.247   5.564  12.963 -0.5025 -0.1101  0.4338
 3316TIP3    H231440   0.179   5.464  12.871 -1.4320 -0.2121  1.2103
 3317TIP3   OH231441   5.731   5.347  16.160 -0.0148 -0.9678 -0.1963
 3317TIP3    H131442   5.688   5.404  16.097  2.8985  0.9122 -0.6585
 3317TIP3    H231443   5.696   5.374  16.245  1.7277  2.1102 -0.3219
 3318TIP3   OH231444   6.596   3.502  16.980  0.0569 -0.3608 -0.1915
 3318TIP3    H131445   6.600   3.585  16.931  1.0767  0.0736  0.5935
 3318TIP3    H231446   6.542   3.445  16.926 -0.5512  0.7784 -0.8164
 3319TIP3   OH231447   1.548   6.159  11.788 -0.1849  0.4278 -0.4379
 3319TIP3    H131448   1.594   6.199  11.862 -1.3890  0.6418  0.2051
 3319TIP3    H231449   1.582   6.206  11.712  0.4887  0.7356  0.0353
 3320TIP3   OH231450   1.675   2.851  15.366 -0.1949 -0.4494  0.0597
 3320TIP3    H131451   1.643   2.854  15.276  0.5004  2.5469 -0.1869
 3320TIP3    H231452   1.751   2.792  15.362  1.0550  1.1718 -1.8034
 3321TIP3   OH231453   0.542   2.769  15.625  0.1832  0.1633 -0.3084
 3321TIP3    H131454   0.487   2.692  15.608  0.1518  0.4813 -1.7985
 3321TIP3    H231455   0.631   2.739  15.611  0.3002 -0.0270  0.8203
 3322TIP3   OH231456   2.541   1.336  10.935 -0.0372 -0.0744  1.1085
 3322TIP3    H131457   2.503   1.249  10.953 -2.2559  0.3123 -1.2036
 3322TIP3    H231458   2.635   1.319  10.923 -0.6425 -2.4972 -0.9884
 3323TIP3   OH231459   0.991   6.561   5.670  0.2164  0.0194  0.1120
 3323TIP3    H131460   0.901   6.531   5.679  0.2679 -0.4559 -0.7577
 3323TIP3    H231461   1.032   6.495   5.613  1.0490  0.3514  0.3102
 3324TIP3   OH231462   6.376   2.776  14.818  0.0837  0.1973 -0.0587
 3324TIP3    H131463   6.385   2.719  14.895 -1.3470  0.7824  0.5844
 3324TIP3    H231464   6.397   2.719  14.744 -0.7457 -1.0286  0.6041
 3325TIP3   OH231465   0.061   5.112  12.292 -0.2137  0.1855  0.7013
 3325TIP3    H131466   0.056   5.088  12.385  2.2416 -0.8462  0.6493
 3325TIP3    H231467   0.140   5.164  12.285 -0.1580 -0.0685 -0.8874
 3326TIP3   OH231468   0.911   6.637   1.881  0.4005  0.2213 -0.1749
 3326TIP3    H131469   0.951   6.605   1.962  1.1375  0.7043 -0.3349
 3326TIP3    H231470   0.861   6.563   1.848  1.2637 -0.4560 -0.0214
 3327TIP3   OH231471   5.184   2.872   4.374 -0.1926 -0.0968 -0.2396
 3327TIP3    H131472   5.217   2.794   4.419 -0.0169 -0.7875 -1.5356
 3327TIP3    H231473   5.206   2.859   4.282 -1.2655  0.9053 -0.6725
 3328TIP3   OH231474   3.044   1.802  13.729 -0.0248 -0.1805 -0.6783
 3328TIP3    H131475   2.958   1.845  13.734 -0.6006 -1.1314 -1.9671
 3328TIP3    H231476   3.105   1.874  13.712 -0.9779  0.2178 -2.8558
 3329TIP3   OH231477   2.008   5.858  12.126 -0.3981  0.1394  0.3397
 3329TIP3    H131478   2.042   5.884  12.040  0.4326 -0.4549  0.4780
 3329TIP3    H231479   2.085   5.855  12.182 -0.3453 -2.9385  0.2554
 3330TIP3   OH231480   4.222   5.005  16.237 -0.0010  1.0364 -0.6443
 3330TIP3    H131481   4.268   5.076  16.191  0.7560 -0.0242 -1.5889
 3330TIP3    H231482   4.229   4.930  16.178  2.5393 -0.9143  1.8725
 3331TIP3   OH231483   4.570   1.062  17.015  0.4378  0.4955  0.2958
 3331TIP3    H131484   4.619   1.014  17.081 -0.4000  1.6150  1.7764
 3331TIP3    H231485   4.637   1.100  16.958  1.1597 -0.4688  0.4701
 3332TIP3   OH231486   5.543   2.364  11.071  0.0388  0.8006  0.4559
 3332TIP3    H131487   5.636   2.360  11.092  0.1176 -0.8005 -0.0722
 3332TIP3    H231488   5.540   2.363  10.975 -0.5386 -0.6376  0.4655
 3333TIP3   OH231489   1.901   1.818   0.470 -0.2099  0.0710  0.2881
 3333TIP3    H131490   1.929   1.902   0.504  1.7471 -0.2173 -0.4846
 3333TIP3    H231491   1.940   1.813   0.383  1.7088 -2.5824  1.1790
 3334TIP3   OH231492   5.319   1.899   5.033  0.2025  0.6166  0.2073
 3334TIP3    H131493   5.300   1.805   5.026  1.9415  0.2100  0.4712
 3334TIP3    H231494   5.245   1.935   5.083 -0.1212 -0.7506  0.7601
 3335TIP3   OH231495   5.486   3.917  11.739  0.3463 -0.3766 -0.5466
 3335TIP3    H131496   5.415   3.896  11.799  0.4336 -0.0898 -0.3433
 3335TIP3    H231497   5.447   3.908  11.652 -0.3446  1.1755 -0.4244
 3336TIP3   OH231498   3.805   4.993  16.867  0.1018  0.3785 -0.4687
 3336TIP3    H131499   3.736   5.056  16.846 -1.1109 -0.7766 -0.1053
 3336TIP3    H231500   3.816   4.942  16.787 -1.5650 -1.3033  0.2824
 3337TIP3   OH231501   4.493   5.392  11.807 -0.0963 -0.8275  0.4103
 3337TIP3    H131502   4.586   5.384  11.826  0.3758  0.0111 -1.3806
 3337TIP3    H231503   4.479   5.338  11.729 -0.8508  0.0758 -0.0971
 3338TIP3   OH231504   4.301   6.139   1.335 -0.2247 -0.3590  1.0102
 3338TIP3    H131505   4.232   6.174   1.392 -0.9139 -0.8851  0.5092
 3338TIP3    H231506   4.382   6.152   1.385 -0.6847  0.2169  1.6268
 3339TIP3   OH231507   5.501   5.430   0.954 -0.4219  0.3559  0.2552
 3339TIP3    H131508   5.449   5.455   1.030  0.9923  1.8346  0.7866
 3339TIP3    H231509   5.572   5.493   0.951  0.2213 -0.3704 -1.6357
 3340TIP3   OH231510   6.623   1.264  14.788  0.4254  0.2696 -0.5369
 3340TIP3    H131511   6.673   1.345  14.800 -0.1384  0.3762  1.4717
 3340TIP3    H231512   6.572   1.255  14.869 -0.4319 -1.4754 -1.2183
 3341TIP3   OH231513   5.577   3.698   5.465  0.0178 -0.6779  0.7409
 3341TIP3    H131514   5.625   3.618   5.486  2.6556  0.7910  0.7146
 3341TIP3    H231515   5.600   3.717   5.374  1.3688  1.3020  1.4318
 3342TIP3   OH231516   2.463   4.176  15.485  0.0687  0.3006  0.1384
 3342TIP3    H131517   2.391   4.157  15.546  0.6385  0.0516  0.7453
 3342TIP3    H231518   2.448   4.267  15.458 -1.9906 -0.5287 -1.8352
 3343TIP3   OH231519   0.307   5.826   1.444  0.4859 -0.6941 -0.4296
 3343TIP3    H131520   0.358   5.761   1.396  2.4930  0.3005  0.2405
 3343TIP3    H231521   0.298   5.790   1.532  0.5372 -0.5990 -0.3856
 3344TIP3   OH231522   6.810   2.172   3.417  0.2734 -0.1686  0.2635
 3344TIP3    H131523   6.738   2.233   3.401 -0.0472 -0.4251  0.7254
 3344TIP3    H231524   6.768   2.090   3.442  0.5404 -1.5033 -3.1042
 3345TIP3   OH231525   5.831   1.347   2.944  0.3861 -0.0910  0.0755
 3345TIP3    H131526   5.814   1.345   3.039  0.2248 -0.0175  0.0483
 3345TIP3    H231527   5.783   1.423   2.913  0.9266  0.2327  0.0247
 3346TIP3   OH231528   3.251   5.890  16.748  0.0921 -0.8390  0.0889
 3346TIP3    H131529   3.225   5.893  16.840 -0.7872 -0.8998 -0.1387
 3346TIP3    H231530   3.232   5.800  16.721 -0.9865 -0.4531 -0.4998
 3347TIP3   OH231531   5.977   6.490   5.551 -0.3298 -0.7656  0.4391
 3347TIP3    H131532   6.032   6.450   5.484 -1.8592  0.4995 -1.7079
 3347TIP3    H231533   5.932   6.417   5.593 -2.3361 -1.5193 -2.6964
 3348TIP3   OH231534   6.419   3.201   7.095  0.2499  0.5525  0.1669
 3348TIP3    H131535   6.349   3.216   7.031  0.1958 -0.0859  0.0700
 3348TIP3    H231536   6.448   3.111   7.078  2.7190  1.5615 -1.3566
 3349TIP3   OH231537   3.760   2.205   3.720 -0.2683  0.1436 -0.4916
 3349TIP3    H131538   3.688   2.253   3.680 -0.3143  0.6563  0.1897
 3349TIP3    H231539   3.720   2.124   3.753 -0.3463  0.0033 -0.9189
 3350TIP3   OH231540   5.359   2.802   6.725 -0.1030  0.2138 -0.1873
 3350TIP3    H131541   5.277   2.784   6.679 -1.4272  0.4083  1.9267
 3350TIP3    H231542   5.346   2.889   6.765  1.0550  0.1711  0.3383
 3351TIP3   OH231543   5.587   0.653  14.979  0.0605 -0.1351 -0.2023
 3351TIP3    H131544   5.531   0.679  15.053  1.1761  0.5149  0.4326
 3351TIP3    H231545   5.652   0.723  14.973  0.3527 -0.4950 -1.4221
 3352TIP3   OH231546   0.576   2.593  11.007  0.0167  0.4871  0.3460
 3352TIP3    H131547   0.586   2.634  10.921 -0.0440  0.4726  0.3314
 3352TIP3    H231548   0.508   2.527  10.994  1.3015 -0.8054 -0.0538
 3353TIP3   OH231549   1.924   5.595  16.646  0.0280  0.5543 -0.4675
 3353TIP3    H131550   1.978   5.551  16.711 -0.1545  0.0603 -0.6467
 3353TIP3    H231551   1.967   5.575  16.562 -0.1743  0.5440 -0.5685
 3354TIP3   OH231552   3.142   1.324  13.462  0.2182 -0.0091  1.3254
 3354TIP3    H131553   3.177   1.412  13.478  1.7886 -0.2508 -0.4712
 3354TIP3    H231554   3.218   1.266  13.466 -0.7126 -1.2402  1.9574
 3355TIP3   OH231555   2.066   0.682   1.942 -0.4745  0.2591 -0.3569
 3355TIP3    H131556   2.004   0.657   2.011 -1.1207 -1.1174 -1.3877
 3355TIP3    H231557   2.149   0.643   1.968 -1.2946 -2.5003 -1.5609
 3356TIP3   OH231558   2.447   0.658   6.069 -0.1803 -0.0587 -0.2821
 3356TIP3    H131559   2.360   0.695   6.056  0.2378  0.9057 -0.3632
 3356TIP3    H231560   2.450   0.582   6.011 -0.6535  0.4146 -0.9349
 3357TIP3   OH231561   3.296   1.767  15.867  0.9654 -0.9088  0.1661
 3357TIP3    H131562   3.216   1.715  15.862 -0.6675  1.1293  2.6189
 3357TIP3    H231563   3.313   1.792  15.776 -0.6686 -2.0901 -0.5318
 3358TIP3   OH231564   2.950   6.618  16.274  0.3395  0.4186  0.3547
 3358TIP3    H131565   3.014   6.548  16.280 -0.2838 -0.0852  1.5687
 3358TIP3    H231566   2.995   6.689  16.228  1.4376 -0.2708  0.3498
 3359TIP3   OH231567   6.272   3.906  15.259  0.2361  0.4078 -0.4874
 3359TIP3    H131568   6.228   3.946  15.334 -0.6507 -0.4799 -0.5123
 3359TIP3    H231569   6.233   3.950  15.183 -0.3007 -0.0621 -0.4917
 3360TIP3   OH231570   0.626   1.897  16.894 -0.0506  0.0287  0.3746
 3360TIP3    H131571   0.706   1.949  16.890  0.9364 -1.2655  1.9914
 3360TIP3    H231572   0.631   1.840  16.817 -0.5595  1.4371 -0.7478
 3361TIP3   OH231573   6.105   6.192  16.234 -0.3582  0.0589 -0.1321
 3361TIP3    H131574   6.098   6.286  16.251  0.9516  0.1556 -0.0164
 3361TIP3    H231575   6.073   6.151  16.314 -0.7752  0.4111 -0.1153
 3362TIP3   OH231576   6.635   3.417  15.608 -0.1625 -0.5190  0.0885
 3362TIP3    H131577   6.618   3.512  15.611 -0.1605 -0.5189  0.0928
 3362TIP3    H231578   6.566   3.379  15.662 -0.3996 -0.5521 -0.2374
 3363TIP3   OH231579   0.251   6.144   1.733 -0.0364  0.2191 -0.7446
 3363TIP3    H131580   0.301   6.118   1.811 -2.1638 -0.3032  0.5359
 3363TIP3    H231581   0.210   6.063   1.703 -0.6628  0.7303 -1.3147
 3364TIP3   OH231582   0.220   1.804   1.316 -0.5347 -0.5570  0.1785
 3364TIP3    H131583   0.182   1.827   1.400  0.0652  0.1806  0.2630
 3364TIP3    H231584   0.273   1.881   1.292  1.2795 -1.7136  0.2985
 3365TIP3   OH231585   4.646   4.285   5.754 -0.0217 -0.1105 -0.3589
 3365TIP3    H131586   4.715   4.223   5.731 -0.6735 -0.4757 -1.3688
 3365TIP3    H231587   4.649   4.351   5.685 -1.5509 -0.8539 -1.1806
 3366TIP3   OH231588   4.821   3.735   5.036  0.0367 -0.4169 -0.6811
 3366TIP3    H131589   4.746   3.779   4.995 -0.7588 -1.1917 -0.0842
 3366TIP3    H231590   4.864   3.804   5.087 -1.6246 -0.4337  0.8451
 3367TIP3   OH231591   6.558   0.890  11.823  0.2827  0.5680  0.3798
 3367TIP3    H131592   6.614   0.955  11.779  2.3539 -2.2030 -1.4125
 3367TIP3    H231593   6.573   0.809  11.774 -2.5552 -1.2060  2.1886
 3368TIP3   OH231594   1.144   5.793  11.685 -0.4905 -0.1611  0.1872
 3368TIP3    H131595   1.210   5.802  11.617  0.5053  2.0473  1.3466
 3368TIP3    H231596   1.192   5.759  11.761 -1.2466 -1.0032  0.3161
 3369TIP3   OH231597   2.532   1.539  14.027 -0.3383  0.1676 -0.0943
 3369TIP3    H131598   2.575   1.484  13.961 -0.5472 -1.0721  0.7677
 3369TIP3    H231599   2.599   1.553  14.094 -1.6831 -3.8059  2.5012
 3370TIP3   OH231600   5.611   4.329   1.578  0.0045 -0.3682  0.2989
 3370TIP3    H131601   5.528   4.352   1.538 -0.5409  0.1414  1.6705
 3370TIP3    H231602   5.618   4.234   1.568 -1.0126 -0.4867  0.6787
 3371TIP3   OH231603   0.417   0.709  11.124  0.4245 -0.4401 -0.2101
 3371TIP3    H131604   0.496   0.743  11.082 -0.0393 -0.5518 -1.1931
 3371TIP3    H231605   0.388   0.638  11.068  1.2418 -2.3965  1.6950
 3372TIP3   OH231606   0.577   1.665  10.792 -0.0199 -0.0276 -0.4463
 3372TIP3    H131607   0.582   1.734  10.726 -0.5552 -0.4021 -0.8888
 3372TIP3    H231608   0.583   1.583  10.742  1.1636 -0.3111  0.1186
 3373TIP3   OH231609   2.463   3.571  15.507 -0.1096  0.0065 -0.6575
 3373TIP3    H131610   2.450   3.654  15.463 -0.0459  0.0502 -0.5942
 3373TIP3    H231611   2.405   3.510  15.461 -1.2312  0.3975  0.1830
 3374TIP3   OH231612   4.036   5.133  10.349  0.6388 -0.6702  0.2873
 3374TIP3    H131613   4.090   5.127  10.428  2.5577 -1.2659 -0.9834
 3374TIP3    H231614   3.994   5.048  10.341 -0.4031 -0.2515  1.2158
 3375TIP3   OH231615   3.317   4.978  14.806 -0.5692  0.1650  0.3966
 3375TIP3    H131616   3.316   4.980  14.711  1.0091 -1.7464  0.2839
 3375TIP3    H231617   3.406   5.007  14.830 -1.0813  1.0424  1.3133
 3376TIP3   OH231618   4.979   6.550   2.894  0.7312 -0.1890  0.1372
 3376TIP3    H131619   4.887   6.545   2.869  0.5345  0.3857  0.7095
 3376TIP3    H231620   4.978   6.552   2.989  1.3673 -0.6430  0.1586
 3377TIP3   OH231621   1.401   4.072  13.244 -0.2069 -0.0201 -0.9221
 3377TIP3    H131622   1.392   3.981  13.274 -1.8549  1.1173  2.6145
 3377TIP3    H231623   1.484   4.101  13.281 -0.0465  0.1478 -1.4059
 3378TIP3   OH231624   4.961   3.923  13.735  0.5616 -0.1481 -0.6730
 3378TIP3    H131625   4.919   3.930  13.649 -0.3864  0.0579 -0.2139
 3378TIP3    H231626   5.054   3.917  13.717  0.6161  2.4661 -1.6294
 3379TIP3   OH231627   2.017   4.262  13.198 -0.4923  0.4382 -0.1691
 3379TIP3    H131628   2.082   4.243  13.130 -2.6797 -1.2629 -1.9007
 3379TIP3    H231629   2.052   4.339  13.243  1.8954  0.5868 -2.0789
 3380TIP3   OH231630   3.915   0.771   5.201 -0.1565  0.0886 -0.2664
 3380TIP3    H131631   3.954   0.730   5.124 -0.6276 -0.0716 -0.4233
 3380TIP3    H231632   3.954   0.859   5.204  0.7155 -0.3048 -0.0262
 3381TIP3   OH231633   4.698   6.277   5.132  0.1744  0.6562  0.3652
 3381TIP3    H131634   4.647   6.255   5.210 -0.4869 -1.9797 -0.6931
 3381TIP3    H231635   4.641   6.337   5.083 -1.3433 -1.0182 -0.0452
 3382TIP3   OH231636   5.937   3.501  12.713  0.0646 -0.1017  0.6509
 3382TIP3    H131637   5.923   3.593  12.688 -0.7948 -0.0543  1.2256
 3382TIP3    H231638   5.993   3.465  12.645  0.0855  0.7505  0.2048
 3383TIP3   OH231639   3.182   6.311  14.477 -0.3214 -0.6720 -0.2249
 3383TIP3    H131640   3.195   6.217  14.491 -0.1272 -0.7352 -0.7986
 3383TIP3    H231641   3.091   6.318  14.449 -0.4167 -0.6575  0.0879
 3384TIP3   OH231642   4.550   1.413   2.135  0.1294  0.6087  0.1615
 3384TIP3    H131643   4.580   1.455   2.216  1.3632 -1.6806  0.9659
 3384TIP3    H231644   4.628   1.409   2.080 -0.4707  1.2206 -0.7599
 3385TIP3   OH231645   6.729   1.291  13.050  0.0379 -0.3766 -0.0336
 3385TIP3    H131646   6.753   1.244  12.970  0.6450 -0.4916  0.2122
 3385TIP3    H231647   6.636   1.311  13.039  0.5904  1.5554 -1.7534
 3386TIP3   OH231648   4.516   4.687  14.806 -0.0662  0.3050 -0.5960
 3386TIP3    H131649   4.604   4.716  14.831  0.0154 -0.1335 -0.3628
 3386TIP3    H231650   4.460   4.764  14.821  0.1136  0.2885  0.1931
 3387TIP3   OH231651   5.694   6.739  15.896 -0.1379  0.0772  0.1023
 3387TIP3    H131652   5.747   6.688  15.835  0.6448  0.0094  0.8138
 3387TIP3    H231653   5.623   6.680  15.921 -0.0885 -0.1253 -0.2287
 3388TIP3   OH231654   1.900   3.194   3.159  0.1006 -0.0684  0.5463
 3388TIP3    H131655   1.948   3.160   3.084  0.0305 -0.0986  0.5146
 3388TIP3    H231656   1.818   3.144   3.160 -0.6584  1.1014 -0.3763
 3389TIP3   OH231657   2.207   3.181   1.067 -0.1093  0.1438  0.3688
 3389TIP3    H131658   2.163   3.258   1.103  1.2239 -0.2116  3.0417
 3389TIP3    H231659   2.268   3.216   1.003  0.1827  1.3161  1.2537
 3390TIP3   OH231660   2.879   5.866   2.634 -0.0967  0.2583  0.0234
 3390TIP3    H131661   2.923   5.887   2.716 -0.8674 -0.2748  0.5906
 3390TIP3    H231662   2.881   5.771   2.629 -0.0131  0.2890 -0.6076
 3391TIP3   OH231663   3.898   4.859   5.935  0.2849  0.7772 -0.1371
 3391TIP3    H131664   3.971   4.810   5.896 -1.2409 -1.7228 -0.0119
 3391TIP3    H231665   3.851   4.795   5.987 -1.0802  2.7301  1.1544
 3392TIP3   OH231666   4.308   1.614   0.750 -0.1276  0.0666  0.1570
 3392TIP3    H131667   4.380   1.654   0.702  0.7318  0.5297  1.7443
 3392TIP3    H231668   4.234   1.674   0.738  0.3455  0.6589  0.1994
 3393TIP3   OH231669   0.008   5.833   6.020 -0.1495 -0.5538  0.7656
 3393TIP3    H131670  -0.060   5.789   5.969  0.8410 -0.1326 -1.0213
 3393TIP3    H231671  -0.038   5.906   6.062 -0.9226 -0.5778  0.0125
 3394TIP3   OH231672   5.469   1.755  16.537 -0.9711 -0.3390  0.1162
 3394TIP3    H131673   5.436   1.837  16.573 -1.5572 -0.5693  0.1163
 3394TIP3    H231674   5.544   1.732  16.593 -0.2530  0.6321 -0.4235
 3395TIP3   OH231675   4.870   3.161  12.368 -0.2676  0.4362  0.0748
 3395TIP3    H131676   4.869   3.252  12.396 -0.3904  0.1005  1.1945
 3395TIP3    H231677   4.791   3.123  12.405  0.1878 -0.3201  0.2843
 3396TIP3   OH231678   0.864   4.826   2.818 -0.2579  0.7842  0.0015
 3396TIP3    H131679   0.900   4.752   2.769 -0.9286  0.6671 -0.3175
 3396TIP3    H231680   0.818   4.787   2.891 -2.0628  0.7700 -1.0944
 3397TIP3   OH231681   3.182   2.149  13.222 -0.1621  0.0909 -0.3848
 3397TIP3    H131682   3.215   2.088  13.156  0.0286  0.3740 -0.5523
 3397TIP3    H231683   3.173   2.232  13.176 -0.2811  0.2261 -0.1205
 3398TIP3   OH231684   3.270   1.474   5.771 -0.0152 -0.5450  0.6118
 3398TIP3    H131685   3.217   1.441   5.698 -0.5181 -0.7757  1.0710
 3398TIP3    H231686   3.205   1.508   5.833  0.4758  1.7031 -0.0194
 3399TIP3   OH231687   2.971   4.775  16.116  0.1127  0.3974 -0.3298
 3399TIP3    H131688   3.019   4.848  16.079 -0.2476  0.3209 -0.9675
 3399TIP3    H231689   3.035   4.704  16.124  0.1329  0.3255 -1.0806
 3400TIP3   OH231690   6.633   0.744  11.199 -1.0733  0.5163 -0.0420
 3400TIP3    H131691   6.560   0.755  11.259 -0.6411 -1.9981  1.0577
 3400TIP3    H231692   6.598   0.693  11.126 -0.2849 -1.3917  0.8726
 3401TIP3   OH231693   2.246   0.501  13.673 -0.3621  0.0690 -0.0520
 3401TIP3    H131694   2.292   0.508  13.756  1.0137 -0.3693 -0.7555
 3401TIP3    H231695   2.247   0.408  13.652  0.7770  0.3426 -1.3453
 3402TIP3   OH231696   3.118   6.349  11.551  0.0876 -0.1787  0.2954
 3402TIP3    H131697   3.210   6.348  11.578 -0.2174 -2.0953  1.4880
 3402TIP3    H231698   3.088   6.437  11.572  1.8239  0.7547 -0.8786
 3403TIP3   OH231699   5.232   0.035  13.506 -0.6144 -0.0745 -0.4219
 3403TIP3    H131700   5.150   0.057  13.462 -0.8491  0.0607  0.0699
 3403TIP3    H231701   5.247  -0.057  13.485 -1.9289 -0.6656  1.0751
 3404TIP3   OH231702   2.746   3.551  17.082  0.3414  0.3828  0.0053
 3404TIP3    H131703   2.755   3.513  17.169 -0.4645 -0.4872 -0.2795
 3404TIP3    H231704   2.667   3.605  17.087  0.2628  0.2870 -0.2083
 3405TIP3   OH231705   3.136   0.942   5.514 -0.0835 -0.0319  0.1372
 3405TIP3    H131706   3.118   0.992   5.435 -4.4026 -0.6575  0.5063
 3405TIP3    H231707   3.129   1.006   5.585 -0.0380 -0.1661  0.2629
 3406TIP3   OH231708   1.616   5.430   5.049 -0.4907  0.1320 -0.0379
 3406TIP3    H131709   1.655   5.420   5.136  0.0798  0.5718 -0.2337
 3406TIP3    H231710   1.522   5.435   5.065 -0.3342  1.2531  0.6715
 3407TIP3   OH231711   2.019   4.034   1.371 -0.2784 -0.1241 -0.0044
 3407TIP3    H131712   2.070   4.096   1.423  0.1270 -1.4400  1.2129
 3407TIP3    H231713   2.054   4.042   1.283 -0.0221  1.1382  0.1877
 3408TIP3   OH231714   0.597   3.528  14.964 -0.4483  0.5486 -0.7504
 3408TIP3    H131715   0.527   3.477  14.923 -0.1231  0.0822 -0.7411
 3408TIP3    H231716   0.669   3.466  14.973 -0.4162  0.7175  0.2684
 3409TIP3   OH231717   4.895   2.008   2.838  0.4117 -1.1381 -0.1000
 3409TIP3    H131718   4.862   1.920   2.818  0.7986 -1.0214 -1.2956
 3409TIP3    H231719   4.975   2.016   2.786  1.0091 -0.4997  0.8913
 3410TIP3   OH231720   2.170   4.635   3.879  0.0836 -0.1008  0.2049
 3410TIP3    H131721   2.226   4.688   3.935  0.5628 -0.9713  0.5639
 3410TIP3    H231722   2.082   4.647   3.915  0.0716  0.9757 -0.1357
 3411TIP3   OH231723   5.698   2.956  16.529 -0.1064 -0.6648 -0.0985
 3411TIP3    H131724   5.654   3.013  16.465  1.8592  0.6130 -0.4258
 3411TIP3    H231725   5.778   2.927  16.484 -0.4572 -2.7482  0.5161
 3412TIP3   OH231726   0.409   2.909   3.925 -0.2349  0.8015 -0.3448
 3412TIP3    H131727   0.423   3.000   3.952 -0.0277  0.2924  1.3445
 3412TIP3    H231728   0.331   2.881   3.973  0.9085 -0.5458  0.8198
 3413TIP3   OH231729   3.926   5.976  16.612 -0.5189 -0.7289  0.1484
 3413TIP3    H131730   3.895   5.969  16.521  1.1690 -0.5593 -0.4650
 3413TIP3    H231731   3.944   6.069  16.623 -1.8155 -0.5587  1.0725
 3414TIP3   OH231732   1.630   4.281   6.667  0.0642  0.1818  0.4664
 3414TIP3    H131733   1.616   4.205   6.611  1.9274 -1.0626  1.5668
 3414TIP3    H231734   1.557   4.281   6.728 -1.7454  1.2917 -1.5814
 3415TIP3   OH231735   3.076   4.008  11.666 -0.0030  0.1223 -0.3859
 3415TIP3    H131736   2.992   4.009  11.621  0.2855 -2.6318 -1.1631
 3415TIP3    H231737   3.057   3.972  11.753  0.3191 -0.3362 -0.4988
 3416TIP3   OH231738   5.733   0.108   3.915 -0.4716  0.4467 -0.1439
 3416TIP3    H131739   5.735   0.201   3.939 -2.2935  0.4390  0.1771
 3416TIP3    H231740   5.825   0.080   3.920 -0.0972  1.7938  1.4715
 3417TIP3   OH231741   6.200   6.325   0.102  0.7891  0.2594 -0.3189
 3417TIP3    H131742   6.181   6.245   0.053 -1.1044 -0.0601  0.8150
 3417TIP3    H231743   6.235   6.386   0.038 -1.1820 -0.2721 -1.9871
 3418TIP3   OH231744   3.060   0.310  16.851  0.0756 -0.5172 -0.2205
 3418TIP3    H131745   3.131   0.298  16.787 -1.7584 -0.4144 -2.3887
 3418TIP3    H231746   3.074   0.240  16.916  1.2092 -1.5286 -1.5012
 3419TIP3   OH231747   5.410   4.246   0.555  0.2624 -0.1021 -0.3942
 3419TIP3    H131748   5.503   4.255   0.536  0.1077 -1.8869 -2.3563
 3419TIP3    H231749   5.366   4.269   0.472 -0.9685 -0.3572  0.1584
 3420TIP3   OH231750   1.026   3.081  16.796  0.1754  0.0464 -0.5292
 3420TIP3    H131751   1.055   3.172  16.786  1.7551 -0.5755 -2.2027
 3420TIP3    H231752   0.978   3.062  16.716 -0.8927 -0.3738  0.1870
 3421TIP3   OH231753   0.778   3.691  13.569  0.1413 -0.2329 -0.1003
 3421TIP3    H131754   0.840   3.619  13.561  1.3186  0.6226  0.9774
 3421TIP3    H231755   0.740   3.681  13.656  0.3440  0.4588  0.0738
 3422TIP3   OH231756   0.809   2.581   3.100 -0.6690  0.0243 -0.3929
 3422TIP3    H131757   0.751   2.640   3.053  0.3918  2.1036  0.7564
 3422TIP3    H231758   0.895   2.623   3.097  0.4348 -2.0890 -0.5459
 3423TIP3   OH231759   4.482   1.712   4.800 -0.2292 -1.2955 -0.7427
 3423TIP3    H131760   4.544   1.724   4.729 -0.5884 -1.6765 -1.1266
 3423TIP3    H231761   4.536   1.696   4.878  0.1885  0.0484 -0.7393
 3424TIP3   OH231762   4.299   3.474   5.658  0.3179 -0.6277  0.0443
 3424TIP3    H131763   4.225   3.414   5.671  1.1380 -1.6527  0.0295
 3424TIP3    H231764   4.305   3.484   5.563 -0.9978  1.0051  0.0815
 3425TIP3   OH231765   1.400   1.388   0.815  0.6371  0.2053 -0.1227
 3425TIP3    H131766   1.351   1.433   0.884  0.7785  1.1657 -0.6297
 3425TIP3    H231767   1.485   1.432   0.813  0.5333  0.3924 -1.0929
 3426TIP3   OH231768   5.981   6.414  14.025 -0.4480  0.7069  0.7365
 3426TIP3    H131769   6.062   6.457  13.999 -1.1171  1.5391 -0.0237
 3426TIP3    H231770   5.913   6.480  14.011 -1.5034 -0.5723 -0.4759
 3427TIP3   OH231771   4.745   4.949   2.012  0.3241  0.1926  0.0755
 3427TIP3    H131772   4.772   4.947   2.104  1.3949 -0.3283 -0.2311
 3427TIP3    H231773   4.802   5.014   1.971  1.2130 -0.9892 -0.6087
 3428TIP3   OH231774   4.297   1.506   5.070 -0.0865  0.0476 -0.1287
 3428TIP3    H131775   4.274   1.415   5.089  0.3050 -0.0536 -0.1251
 3428TIP3    H231776   4.347   1.534   5.147 -0.1121  0.2305 -0.1783
 3429TIP3   OH231777   4.326   2.207   0.078  0.0183  0.1747  0.4015
 3429TIP3    H131778   4.353   2.280   0.134 -0.0439  0.1502  0.4635
 3429TIP3    H231779   4.258   2.162   0.129 -0.6712  0.6667 -0.0506
 3430TIP3   OH231780   0.758   6.196  14.906 -0.4769 -0.2414  0.2641
 3430TIP3    H131781   0.763   6.217  14.813 -1.7635  0.9406  0.4422
 3430TIP3    H231782   0.685   6.133  14.913 -2.8152  2.3347  0.8377
 3431TIP3   OH231783   0.446   4.309   0.173  0.3831 -0.1485  0.2212
 3431TIP3    H131784   0.495   4.285   0.252  0.9727  1.0620  0.2518
 3431TIP3    H231785   0.468   4.241   0.109 -0.7423 -1.6075  1.3142
 3432TIP3   OH231786   3.284   5.291   3.730  0.9734 -0.1151  0.2074
 3432TIP3    H131787   3.288   5.384   3.749  0.6593 -0.2743  1.1659
 3432TIP3    H231788   3.374   5.260   3.741  1.0455  0.0474  0.0691
 3433TIP3   OH231789   5.378   0.671   2.706  0.0871 -0.0894 -0.0819
 3433TIP3    H131790   5.391   0.594   2.761  1.3840 -2.2165 -3.0838
 3433TIP3    H231791   5.454   0.727   2.724 -0.5829  0.3168  1.7200
 3434TIP3   OH231792   2.693   1.620   2.808 -0.3035 -0.5838  0.0664
 3434TIP3    H131793   2.621   1.655   2.756 -1.9120 -1.9651  1.2556
 3434TIP3    H231794   2.659   1.619   2.898  1.4304 -0.7265  0.7610
 3435TIP3   OH231795   1.515   6.069  16.746 -0.4985 -0.4006  0.3152
 3435TIP3    H131796   1.481   5.982  16.724  0.0467 -0.6393  0.3969
 3435TIP3    H231797   1.444   6.129  16.724 -1.6288 -1.0155  2.0292
 3436TIP3   OH231798   1.464   4.991   2.523 -0.2356 -0.3199 -0.2738
 3436TIP3    H131799   1.440   5.081   2.501 -1.5716  0.1926  2.7889
 3436TIP3    H231800   1.560   4.993   2.529 -0.3130  1.3789  1.3418
 3437TIP3   OH231801   1.191   5.358   0.941  0.2449 -0.4948  0.3835
 3437TIP3    H131802   1.228   5.419   1.005  0.5813  0.7144 -0.9098
 3437TIP3    H231803   1.257   5.289   0.933  0.3079 -0.5288  1.1562
 3438TIP3   OH231804   6.019   6.283  12.724 -0.3670  0.3468 -0.4737
 3438TIP3    H131805   6.093   6.284  12.664 -0.6651  3.0152 -0.9124
 3438TIP3    H231806   5.953   6.230  12.680  0.1818  0.4879 -1.4878
 3439TIP3   OH231807   0.199   3.286   1.605 -0.3719  0.3323  0.3466
 3439TIP3    H131808   0.200   3.190   1.613 -0.5611  0.0581 -2.1089
 3439TIP3    H231809   0.119   3.313   1.650 -2.1099 -1.0441 -1.7168
 3440TIP3   OH231810   3.726   1.466  12.836  0.0806 -0.3015  0.7347
 3440TIP3    H131811   3.789   1.403  12.802 -1.0797 -1.8986  1.3995
 3440TIP3    H231812   3.713   1.528  12.765  1.4036 -0.6789  0.1309
 3441TIP3   OH231813   4.965   3.598  13.608  0.2992  0.8450  0.4068
 3441TIP3    H131814   4.931   3.663  13.669  1.0251  1.0556  0.5998
 3441TIP3    H231815   4.975   3.646  13.526  0.2181  0.8059  0.3741
 3442TIP3   OH231816   4.711   1.452  17.202  0.3496  0.2598 -0.6642
 3442TIP3    H131817   4.630   1.417  17.165  0.4586 -0.5769 -0.1332
 3442TIP3    H231818   4.781   1.405  17.157  0.5304  0.5121 -0.6518
 3443TIP3   OH231819   1.426   3.596  13.868  0.5982  0.1324 -0.0826
 3443TIP3    H131820   1.504   3.587  13.923 -0.5480  1.6365  1.9276
 3443TIP3    H231821   1.407   3.690  13.868  0.6570  0.2694 -3.3560
 3444TIP3   OH231822   1.385   2.623   1.639 -0.0634  0.3242  0.6165
 3444TIP3    H131823   1.391   2.641   1.545  1.5777  0.7099  0.7756
 3444TIP3    H231824   1.408   2.530   1.647 -0.7751  0.1345  0.6050
 3445TIP3   OH231825   2.738   2.003  12.017 -0.0642 -0.1111  0.1040
 3445TIP3    H131826   2.666   1.969  12.071 -1.5924  1.1528 -1.0325
 3445TIP3    H231827   2.774   2.074  12.070  0.9314 -1.2468  1.0225
 3446TIP3   OH231828   2.897   0.099   5.583  0.1151 -0.5208  0.3764
 3446TIP3    H131829   2.974   0.068   5.631  0.2927  0.3405  0.6655
 3446TIP3    H231830   2.905   0.194   5.584 -0.5681 -0.4489 -0.2398
 3447TIP3   OH231831   4.437   3.718  12.074 -0.5141  0.1445 -0.3464
 3447TIP3    H131832   4.394   3.659  12.136  1.7319 -1.4608 -0.2094
 3447TIP3    H231833   4.505   3.665  12.033  0.3819  2.1501 -1.6120
 3448TIP3   OH231834   5.919   0.667  16.964  0.4158 -0.7542  0.3848
 3448TIP3    H131835   5.942   0.734  16.901  0.7964  0.4967  1.8063
 3448TIP3    H231836   5.947   0.585  16.924 -2.6485 -0.5177 -2.6816
 3449TIP3   OH231837   6.337   0.256  13.167  0.5473  0.4544  0.0558
 3449TIP3    H131838   6.387   0.194  13.114 -0.1056 -0.3068  0.3040
 3449TIP3    H231839   6.273   0.293  13.107 -1.0795 -1.3913  0.5411
 3450TIP3   OH231840   0.612   3.799   2.189  0.0672  0.4618 -0.4305
 3450TIP3    H131841   0.695   3.799   2.237 -0.2515  0.2092  0.1261
 3450TIP3    H231842   0.550   3.839   2.249 -1.2943 -3.4858  1.1092
 3451TIP3   OH231843   3.368   0.486  10.848 -0.0139  0.0847  0.0395
 3451TIP3    H131844   3.303   0.539  10.802 -0.4763 -0.2750  0.2719
 3451TIP3    H231845   3.401   0.425  10.781 -1.8777 -1.5670  0.5110
 3452TIP3   OH231846   5.416   1.852  16.951  0.2975 -0.1309 -0.0463
 3452TIP3    H131847   5.414   1.946  16.969  1.5086  0.0414 -0.7081
 3452TIP3    H231848   5.508   1.828  16.958  0.7183 -0.3639 -4.1112
 3453TIP3   OH231849   0.488   4.533  14.072  0.2694  0.3060  0.0822
 3453TIP3    H131850   0.480   4.582  14.153  0.7378  1.1083 -0.3497
 3453TIP3    H231851   0.488   4.599  14.003 -0.9410 -0.4100 -0.6382
 3454TIP3   OH231852   6.737   1.451   4.910  0.0739  0.4792 -0.9362
 3454TIP3    H131853   6.785   1.515   4.857 -1.2085  0.7863 -1.7640
 3454TIP3    H231854   6.794   1.374   4.911  0.4866  0.7488 -2.1004
 3455TIP3   OH231855   3.612   0.786  10.705  0.2200 -0.5361  0.4053
 3455TIP3    H131856   3.576   0.722  10.644 -2.5259 -0.5781  1.9264
 3455TIP3    H231857   3.546   0.854  10.712  2.2760  1.6356  0.2163
 3456TIP3   OH231858   2.335   4.018   4.612  0.2146  0.0567  0.3217
 3456TIP3    H131859   2.240   4.022   4.610  0.2037 -0.2772 -0.0495
 3456TIP3    H231860   2.363   4.108   4.592 -0.0169  0.3031  1.0694
 3457TIP3   OH231861   1.403   6.700   5.124 -0.2365 -0.8788  0.2953
 3457TIP3    H131862   1.347   6.684   5.047 -1.0359 -0.4299  0.7731
 3457TIP3    H231863   1.419   6.794   5.123  1.5837 -1.1565 -0.5452
 3458TIP3   OH231864   4.142   4.948   2.064 -0.3547  0.3789  0.1344
 3458TIP3    H131865   4.055   4.976   2.036 -0.8723 -0.5764  0.7004
 3458TIP3    H231866   4.184   5.028   2.095 -0.2189  1.2419 -2.0989
 3459TIP3   OH231867   0.836   1.659  13.451 -0.2136 -0.2731  0.0624
 3459TIP3    H131868   0.861   1.682  13.541 -2.1698  1.6875  0.1912
 3459TIP3    H231869   0.768   1.592  13.462 -1.2574  0.7710  0.1350
 3460TIP3   OH231870   6.296   2.047  16.798  0.8730  0.0061  0.4716
 3460TIP3    H131871   6.262   1.958  16.807 -0.8743 -0.0329 -4.0120
 3460TIP3    H231872   6.360   2.041  16.727  0.3923  2.3730 -0.2539
 3461TIP3   OH231873   0.678   2.338  14.727 -0.2597  0.3462  0.4440
 3461TIP3    H131874   0.608   2.295  14.677 -0.3204  1.0330 -0.0735
 3461TIP3    H231875   0.755   2.285  14.711 -0.5598 -0.1675  0.6649
 3462TIP3   OH231876   1.791   4.129  16.648 -0.2632 -0.1745  0.4723
 3462TIP3    H131877   1.882   4.156  16.634 -0.9889  1.9002 -0.6226
 3462TIP3    H231878   1.774   4.150  16.740  0.2946 -0.4010  0.6327
 3463TIP3   OH231879   2.516   3.282   0.967  0.2539  0.0849  0.0847
 3463TIP3    H131880   2.550   3.262   1.054  2.0045 -1.5277 -0.8960
 3463TIP3    H231881   2.593   3.305   0.915 -0.9126  2.4467 -0.7415
 3464TIP3   OH231882   6.012   2.912   2.874 -0.3127 -0.6994  0.0803
 3464TIP3    H131883   6.042   2.926   2.964 -0.7331  1.4172 -0.0557
 3464TIP3    H231884   5.918   2.931   2.877  0.0822  1.8127 -1.2177
 3465TIP3   OH231885   3.766   1.925  17.193  0.1514  0.1399 -0.1019
 3465TIP3    H131886   3.702   1.903  17.125  0.0527 -0.8516  0.2988
 3465TIP3    H231887   3.851   1.908  17.153  0.1741  1.2006 -0.5428
 3466TIP3   OH231888   4.861   5.432   5.006  0.2594 -0.6244  0.2826
 3466TIP3    H131889   4.842   5.446   5.099 -0.5249 -1.5263  0.2694
 3466TIP3    H231890   4.802   5.491   4.960  1.0719  0.2714  0.3536
 3467TIP3   OH231891   5.101   4.289   0.666 -0.6241  0.4189 -0.0608
 3467TIP3    H131892   5.138   4.377   0.664  1.1500 -0.2685  0.2772
 3467TIP3    H231893   5.032   4.290   0.600 -1.4818  2.3871  0.7958
 3468TIP3   OH231894   6.642   1.577   6.398 -0.1251 -0.1075 -0.7523
 3468TIP3    H131895   6.700   1.636   6.445  1.8412 -1.7801 -0.9068
 3468TIP3    H231896   6.591   1.633   6.340  0.4624  1.5555  0.2936
 3469TIP3   OH231897   3.762   3.145  10.509  0.2940  0.2094 -0.8032
 3469TIP3    H131898   3.831   3.079  10.519  0.9521  0.9813 -0.0366
 3469TIP3    H231899   3.740   3.142  10.416  0.3465 -1.0372 -0.7966
 3470TIP3   OH231900   0.095   3.122   1.894 -0.4318 -0.6018 -0.1785
 3470TIP3    H131901   0.102   3.044   1.838  0.8740 -0.6741  0.0566
 3470TIP3    H231902   0.109   3.089   1.983 -0.7240 -0.2170  0.0121
 3471TIP3   OH231903   6.306   5.607   3.026 -0.0277 -0.2821 -0.0314
 3471TIP3    H131904   6.331   5.530   2.974 -3.1179  0.6956 -3.3296
 3471TIP3    H231905   6.224   5.581   3.069  1.0734 -0.1173  2.3677
 3472TIP3   OH231906   0.665   3.057   1.229  0.2070 -0.3529 -0.4502
 3472TIP3    H131907   0.682   3.151   1.234  3.5690 -0.8143 -0.7127
 3472TIP3    H231908   0.746   3.020   1.194 -0.6095 -3.4531  0.6020
 3473TIP3   OH231909   0.696   0.984   5.641  0.4599 -0.5434 -0.0182
 3473TIP3    H131910   0.716   0.927   5.715  0.7738  0.6020  0.8088
 3473TIP3    H231911   0.601   1.000   5.647  0.0225 -2.3619 -1.3004
 3474TIP3   OH231912   4.585   2.584  10.957 -0.4525 -0.0699  0.3863
 3474TIP3    H131913   4.557   2.674  10.940 -1.5741 -0.0616  2.0621
 3474TIP3    H231914   4.679   2.590  10.973 -0.5655  0.8406  0.7255
 3475TIP3   OH231915   4.634   3.632  13.487 -0.1140 -0.2038  0.3322
 3475TIP3    H131916   4.604   3.665  13.572 -0.1843  0.4729  0.0554
 3475TIP3    H231917   4.677   3.707  13.446 -1.4958 -0.0206 -0.8991
 3476TIP3   OH231918   0.841   6.695  16.139  0.3931 -0.4756  0.3873
 3476TIP3    H131919   0.763   6.703  16.195  1.3524 -0.4207  1.7666
 3476TIP3    H231920   0.824   6.618  16.086 -0.5226 -0.5861  0.8200
 3477TIP3   OH231921   2.899   5.185   3.872 -0.6191 -0.0115  0.8632
 3477TIP3    H131922   2.935   5.098   3.889 -0.5183  0.0397  0.9104
 3477TIP3    H231923   2.873   5.218   3.958  0.5256  0.5288  1.0231
 3478TIP3   OH231924   4.408   0.620  13.194  0.0296  0.1529 -0.2567
 3478TIP3    H131925   4.331   0.656  13.238  0.4092  0.3110  0.2824
 3478TIP3    H231926   4.390   0.526  13.189 -0.6392  0.3018 -1.0272
 3479TIP3   OH231927   2.014   5.611   0.358  0.1925 -0.1913  0.4715
 3479TIP3    H131928   2.020   5.687   0.300  0.6250 -0.4399  0.1782
 3479TIP3    H231929   1.930   5.571   0.337  0.7572 -0.8266 -0.6963
 3480TIP3   OH231930   0.630   1.124  14.646  0.1529 -0.1736  0.3420
 3480TIP3    H131931   0.589   1.051  14.693 -1.5558  0.7032  0.2967
 3480TIP3    H231932   0.657   1.087  14.562  0.2193 -0.9894  0.7155
 3481TIP3   OH231933   0.823   4.078  12.536  0.0235 -0.6736 -0.0202
 3481TIP3    H131934   0.887   4.117  12.595 -0.5641  0.0840  0.1391
 3481TIP3    H231935   0.791   4.151  12.483 -0.1036 -1.1881 -0.6661
 3482TIP3   OH231936   5.707   4.662  15.578 -0.3662  0.3027  0.2475
 3482TIP3    H131937   5.656   4.584  15.595 -0.7242  0.1798 -1.2092
 3482TIP3    H231938   5.655   4.712  15.515  1.2402  0.1884 -1.2521
 3483TIP3   OH231939   1.174   1.773   2.926  0.1289  0.1659  0.0014
 3483TIP3    H131940   1.219   1.808   3.003  0.8354 -0.1648 -0.2524
 3483TIP3    H231941   1.223   1.693   2.903 -2.2342 -1.8269  1.3968
 3484TIP3   OH231942   0.000   4.684  15.638  0.4470 -0.4322 -0.0094
 3484TIP3    H131943   0.023   4.740  15.712  0.9431  0.6944 -0.9918
 3484TIP3    H231944  -0.093   4.702  15.623  0.9487  1.3508 -1.2872
 3485TIP3   OH231945   3.012   3.503   1.257  0.0405 -0.0735  0.0954
 3485TIP3    H131946   3.034   3.465   1.341 -0.5964 -0.5736  0.0438
 3485TIP3    H231947   3.062   3.584   1.253  0.5873 -0.3796  0.6645
 3486TIP3   OH231948   6.823   5.385  11.985 -0.2489  1.0542 -0.5556
 3486TIP3    H131949   6.848   5.424  12.069  0.4962  0.7089 -0.6073
 3486TIP3    H231950   6.743   5.336  12.004 -1.3582  2.8083 -0.5526
 3487TIP3   OH231951   4.003   0.044  16.959  0.1758  0.5806 -0.0180
 3487TIP3    H131952   4.017  -0.046  16.989  2.7676  1.5373  2.1056
 3487TIP3    H231953   4.091   0.075  16.937 -0.4818  2.9094  0.3755
 3488TIP3   OH231954   4.213   0.878  10.461  0.0498 -0.6923  0.1173
 3488TIP3    H131955   4.212   0.849  10.370 -0.7114  1.0055 -0.4628
 3488TIP3    H231956   4.281   0.825  10.503 -0.2428 -2.1657 -1.1962
 3489TIP3   OH231957   5.099   1.027  13.670 -0.3131 -0.0422 -0.0134
 3489TIP3    H131958   5.134   1.071  13.591 -2.2259  0.4067 -0.6572
 3489TIP3    H231959   5.175   0.982  13.707  1.4265  2.4396 -0.2413
 3490TIP3   OH231960   5.742   2.376  14.600 -0.4178 -0.2153  0.2828
 3490TIP3    H131961   5.658   2.341  14.631 -0.0411 -0.4305  1.1030
 3490TIP3    H231962   5.800   2.300  14.597 -0.2973 -0.0963 -0.4461
 3491TIP3   OH231963   0.646   1.478   3.326  0.0030 -0.3503 -0.0048
 3491TIP3    H131964   0.727   1.468   3.376  0.7622  1.9142 -0.6784
 3491TIP3    H231965   0.661   1.427   3.246  1.1980  0.8345 -0.5742
 3492TIP3   OH231966   3.595   2.742   0.593 -0.4171 -0.3360 -1.0502
 3492TIP3    H131967   3.626   2.732   0.503  0.6083 -0.8788 -0.6565
 3492TIP3    H231968   3.504   2.769   0.585 -0.1145  0.3951 -2.2601
 3493TIP3   OH231969   0.288   0.738   5.094 -0.5890  0.0843 -0.2189
 3493TIP3    H131970   0.342   0.663   5.118 -0.6093  0.0886 -0.1597
 3493TIP3    H231971   0.198   0.707   5.106 -0.6234 -0.1800 -1.0652
 3494TIP3   OH231972   5.438   4.580  17.124  0.3239 -0.2003 -0.2029
 3494TIP3    H131973   5.450   4.640  17.050  0.9701  0.0006  0.0548
 3494TIP3    H231974   5.508   4.604  17.185 -0.4392 -0.1002  0.6521
 3495TIP3   OH231975   1.224   4.427  17.198  0.0309 -0.2264 -0.3730
 3495TIP3    H131976   1.187   4.515  17.206  0.8742  0.4118 -2.5820
 3495TIP3    H231977   1.310   4.434  17.240  0.6206  0.4160 -1.6149
 3496TIP3   OH231978   3.379   0.019  14.022  0.0737 -0.0008  0.2796
 3496TIP3    H131979   3.354   0.103  13.984 -1.2237 -0.3918  0.1885
 3496TIP3    H231980   3.448  -0.014  13.965  1.4529  1.5092  1.0018
 3497TIP3   OH231981   1.907   0.959  15.638  0.1518 -0.1258  0.2640
 3497TIP3    H131982   1.925   0.929  15.727  0.9403  1.9507  0.8443
 3497TIP3    H231983   1.961   0.901  15.582  0.3132 -0.8850  1.1836
 3498TIP3   OH231984   2.321   0.216   2.850 -0.4827  0.2842 -0.2618
 3498TIP3    H131985   2.395   0.277   2.862 -0.6306  0.4047  0.0332
 3498TIP3    H231986   2.358   0.130   2.868 -0.1808  0.2433 -1.0339
 3499TIP3   OH231987   1.018   5.871   0.316 -0.2529 -0.4045 -0.2593
 3499TIP3    H131988   0.941   5.871   0.259 -1.5954 -0.7251  1.4710
 3499TIP3    H231989   1.018   5.958   0.355 -0.8222 -0.9905  1.0998
 3500TIP3   OH231990   4.913   3.548   1.024  0.6495  0.0934 -0.6817
 3500TIP3    H131991   4.959   3.539   1.108 -0.0768  0.2035 -0.2613
 3500TIP3    H231992   4.820   3.544   1.047  0.4239  0.8579 -1.3941
 3501TIP3   OH231993   2.387   0.508   5.383  0.5657 -0.0406 -0.0395
 3501TIP3    H131994   2.474   0.474   5.364  0.5638 -0.0926  0.0483
 3501TIP3    H231995   2.392   0.601   5.359  0.5448 -0.1202 -0.3636
 3502TIP3   OH231996   3.758   0.963  16.426  0.2063 -0.1191  0.2248
 3502TIP3    H131997   3.761   0.985  16.519 -0.5828  0.0707  0.2084
 3502TIP3    H231998   3.850   0.952  16.402  0.5904  2.1799  0.4660
 3503TIP3   OH231999   1.677   6.825   5.023  0.0162 -0.2592 -0.0846
 3503TIP3    H132000   1.595   6.822   5.071  0.6229  0.5263  1.0405
 3503TIP3    H232001   1.745   6.828   5.090  1.1427 -3.1573 -0.9172
 3504TIP3   OH232002   0.911   6.482  15.192  0.7302  0.1177  0.3434
 3504TIP3    H132003   0.872   6.567  15.176  2.7803  0.7760 -1.7620
 3504TIP3    H232004   0.955   6.491  15.277  1.1320  1.2721  0.0307
 3505TIP3   OH232005   4.160   2.837  13.398  0.3119  0.6468  0.1422
 3505TIP3    H132006   4.255   2.847  13.411  0.3395 -0.9272  1.5989
 3505TIP3    H232007   4.150   2.815  13.306  1.5698 -0.9203  0.3460
 3506TIP3   OH232008   0.157   2.636   5.075 -0.2182 -0.5910 -0.7568
 3506TIP3    H132009   0.174   2.723   5.038  2.9220 -1.4586 -1.7287
 3506TIP3    H232010   0.149   2.579   4.998  1.3654 -1.6515 -0.1881
 3507TIP3   OH232011   1.925   3.194   0.351  0.4299  0.1039 -0.6603
 3507TIP3    H132012   2.008   3.186   0.304  0.1436  0.6754 -1.2729
 3507TIP3    H232013   1.859   3.166   0.288  0.2629 -1.8797  0.3238
 3508TIP3   OH232014   2.391   5.996  13.526 -0.7135 -0.3231 -0.1410
 3508TIP3    H132015   2.461   5.946  13.484 -1.3499 -0.9319 -0.5106
 3508TIP3    H232016   2.395   6.082  13.485 -0.1384 -0.3337 -0.1099
 3509TIP3   OH232017   0.384   3.689  13.556 -0.0832 -0.3193  0.0749
 3509TIP3    H132018   0.386   3.661  13.465  1.2989 -1.3217  0.3670
 3509TIP3    H232019   0.417   3.613  13.605 -1.5331 -0.0873  1.5055
 3510TIP3   OH232020   5.906   1.648   5.408  0.0085 -0.4879  0.5342
 3510TIP3    H132021   5.811   1.651   5.406  0.0236  1.0561 -1.7374
 3510TIP3    H232022   5.932   1.724   5.460  0.0166 -0.7657  0.9409
 3511TIP3   OH232023   3.251   4.801  11.743  0.2018 -0.1808 -0.1759
 3511TIP3    H132024   3.343   4.806  11.770 -0.0667 -0.2194  0.7800
 3511TIP3    H232025   3.254   4.760  11.656  1.2503  1.7577 -1.1409
 3512TIP3   OH232026   5.618   0.919  16.631 -0.2987 -0.7164  0.0948
 3512TIP3    H132027   5.714   0.927  16.631 -0.3429 -0.0386 -0.4993
 3512TIP3    H232028   5.601   0.828  16.655  0.5269 -1.1449 -0.8719
 3513TIP3   OH232029   5.829   1.106   6.609  0.2916 -0.1123 -0.3473
 3513TIP3    H132030   5.888   1.062   6.547  1.8656  2.8299 -1.1415
 3513TIP3    H232031   5.753   1.131   6.557 -0.1358 -0.9852 -0.1450
 3514TIP3   OH232032   6.571   3.779  16.449  0.2993 -0.0591 -0.7868
 3514TIP3    H132033   6.516   3.819  16.516 -0.2560  1.3590 -2.0411
 3514TIP3    H232034   6.575   3.687  16.474 -1.4081  0.0790  0.1842
 3515TIP3   OH232035   5.578   4.496  16.326 -0.3098 -0.2865  0.0935
 3515TIP3    H132036   5.547   4.409  16.300  1.4323  0.0988 -4.0902
 3515TIP3    H232037   5.505   4.554  16.307 -0.2713 -0.4658 -0.6544
 3516TIP3   OH232038   1.179   2.887  14.727  0.1109  0.1851  0.3811
 3516TIP3    H132039   1.167   2.830  14.803 -0.0870 -0.3446 -0.0363
 3516TIP3    H232040   1.151   2.973  14.757  0.9618  0.1935  1.1956
 3517TIP3   OH232041   3.916   5.278  12.071 -0.6412  0.0974 -0.3890
 3517TIP3    H132042   3.965   5.301  12.150 -0.8180 -0.7851 -0.0121
 3517TIP3    H232043   3.845   5.341  12.068  0.6801  1.6259 -1.1321
 3518TIP3   OH232044   0.800   3.848  15.376  0.0059 -0.3482 -0.2590
 3518TIP3    H132045   0.766   3.885  15.294 -1.2009  0.9975  0.8081
 3518TIP3    H232046   0.894   3.839  15.360 -0.0332  0.8938 -1.4356
 3519TIP3   OH232047   2.783   2.371   4.431 -0.2275 -0.1465 -0.3220
 3519TIP3    H132048   2.747   2.284   4.446  0.4736 -0.4517 -0.3591
 3519TIP3    H232049   2.878   2.359   4.434 -0.1238  0.6879  0.0615
 3520TIP3   OH232050   2.963   1.335  11.364  0.2941 -0.2465 -0.1522
 3520TIP3    H132051   2.943   1.306  11.275 -0.0053  0.0301 -0.1773
 3520TIP3    H232052   2.918   1.272  11.420 -0.5074  0.2621 -0.2085
 3521TIP3   OH232053   5.123   6.791   5.624  0.0778  1.1675 -0.0370
 3521TIP3    H132054   5.153   6.855   5.689  1.0423  0.1165  0.5924
 3521TIP3    H232055   5.037   6.823   5.596  0.1544  2.2503  0.9042
 3522TIP3   OH232056   4.378   6.407   3.016 -0.4319 -0.2451 -0.3347
 3522TIP3    H132057   4.347   6.438   2.930  2.1058 -0.4161 -1.3885
 3522TIP3    H232058   4.341   6.319   3.024  1.0731 -1.1405 -2.3389
 3523TIP3   OH232059   1.042   1.132   6.197 -0.3947  0.4307 -0.1597
 3523TIP3    H132060   1.068   1.223   6.184 -0.5324  0.6463  0.9454
 3523TIP3    H232061   1.122   1.082   6.185  0.2202  0.9319  1.5373
 3524TIP3   OH232062   1.007   1.504  14.181 -0.2376 -0.1876  0.5221
 3524TIP3    H132063   1.100   1.526  14.188 -0.0509 -1.0808  1.1644
 3524TIP3    H232064   0.991   1.492  14.087  0.6671 -1.4300  0.4944
 3525TIP3   OH232065   4.218   5.708   0.545  0.1207 -0.7971 -0.1574
 3525TIP3    H132066   4.230   5.666   0.630  1.1300 -0.6839 -0.2249
 3525TIP3    H232067   4.272   5.656   0.486  0.4305 -0.1159 -0.4767
 3526TIP3   OH232068   4.357   3.973   3.996  0.7072 -0.5460  0.0779
 3526TIP3    H132069   4.343   4.045   4.058 -0.8903 -0.3139 -0.5105
 3526TIP3    H232070   4.431   3.924   4.032  2.9636  2.2752 -0.3111
 3527TIP3   OH232071   6.740   2.077  14.595  0.3498  0.0737 -0.1671
 3527TIP3    H132072   6.799   2.003  14.586  0.4334  0.3069 -1.6703
 3527TIP3    H232073   6.797   2.154  14.598  0.1548  0.2550 -1.0385
 3528TIP3   OH232074   3.436   5.385   0.854  0.1581  0.2005  0.1951
 3528TIP3    H132075   3.453   5.291   0.854 -0.1575  0.1007 -1.6769
 3528TIP3    H232076   3.515   5.424   0.892  0.4831 -0.7847  0.5578
 3529TIP3   OH232077   4.292   2.865   6.010  0.2710 -0.1570 -0.1596
 3529TIP3    H132078   4.199   2.856   5.990  0.1614  0.0647  0.2465
 3529TIP3    H232079   4.298   2.852   6.104  0.5587  0.5155 -0.0803
 3530TIP3   OH232080   1.491   4.145   3.651 -0.2173  0.1944 -0.4008
 3530TIP3    H132081   1.474   4.052   3.632 -0.9567  0.2149  0.1261
 3530TIP3    H232082   1.516   4.181   3.566  0.1009 -0.4892 -0.6114
 3531TIP3   OH232083   0.065   4.591   6.670 -0.3383  0.6258 -0.0169
 3531TIP3    H132084   0.046   4.684   6.658 -0.8675  0.5656  0.2944
 3531TIP3    H232085   0.087   4.582   6.763 -3.2588 -0.0098  0.7123
 3532TIP3   OH232086   1.555   3.079  12.618  0.1083 -0.0618 -0.6501
 3532TIP3    H132087   1.545   2.998  12.568  0.3790 -0.4806 -0.0421
 3532TIP3    H232088   1.525   3.057  12.706 -1.3003  0.9412 -0.8419
 3533TIP3   OH232089   1.337   6.478   0.863  0.5686  0.1617  0.3540
 3533TIP3    H132090   1.308   6.565   0.836  1.5321  0.3602 -0.0724
 3533TIP3    H232091   1.266   6.445   0.919  0.3465  1.3537  0.8000
 3534TIP3   OH232092   1.591   4.079  17.095 -0.1251 -0.3660  0.0073
 3534TIP3    H132093   1.538   4.158  17.111 -1.6862 -1.2096 -0.7862
 3534TIP3    H232094   1.550   4.012  17.149  0.2938 -0.9895 -0.4461
 3535TIP3   OH232095   0.860   2.031   1.842 -0.0521  0.3965 -0.1030
 3535TIP3    H132096   0.923   2.103   1.836 -0.2507  0.6698  0.9226
 3535TIP3    H232097   0.812   2.049   1.922 -0.6112 -0.4819 -0.2395
 3536TIP3   OH232098   0.633   6.171  10.787 -0.8317  0.4055  0.4031
 3536TIP3    H132099   0.575   6.095  10.785 -0.4677  0.1025  1.0513
 3536TIP3    H232100   0.693   6.158  10.715 -0.5551 -0.1037  0.7215
 3537TIP3   OH232101   4.792   0.621   1.764 -0.1114 -0.4993 -0.1688
 3537TIP3    H132102   4.741   0.553   1.721 -0.0765 -0.1581 -0.7581
 3537TIP3    H232103   4.879   0.582   1.776 -0.3566 -0.8923  0.3599
 3538TIP3   OH232104   1.950   2.983   1.723 -0.0606 -0.1423  0.0934
 3538TIP3    H132105   1.894   3.055   1.751  0.5539 -0.1740  1.4797
 3538TIP3    H232106   2.000   2.960   1.801  0.2798 -1.5867 -0.5210
 3539TIP3   OH232107   2.714   3.899  15.119  0.6435  0.5606  0.2043
 3539TIP3    H132108   2.649   3.969  15.127 -2.2605 -1.9914  1.1398
 3539TIP3    H232109   2.694   3.840  15.192  0.5658 -2.9878 -2.4205
 3540TIP3   OH232110   6.427   3.724  10.920  0.5752 -0.4335 -0.3040
 3540TIP3    H132111   6.415   3.646  10.865 -0.0513 -0.5912  0.0434
 3540TIP3    H232112   6.339   3.747  10.949  0.8411 -0.0673  0.2477
 3541TIP3   OH232113   1.504   3.476  12.155 -0.1930  0.3190  0.2218
 3541TIP3    H132114   1.527   3.550  12.100  0.2085 -0.1237 -0.2080
 3541TIP3    H232115   1.456   3.417  12.097  1.9488 -1.0754 -0.2124
 3542TIP3   OH232116   5.292   4.037   5.011  0.2557 -0.1607 -0.3993
 3542TIP3    H132117   5.374   3.994   5.034  0.1112 -0.8004 -1.0527
 3542TIP3    H232118   5.244   4.042   5.094  1.0826  0.5353  0.0622
 3543TIP3   OH232119   5.753   0.356   3.577 -0.4609 -0.2345  0.1921
 3543TIP3    H132120   5.712   0.294   3.638  0.0786  0.2522  1.0776
 3543TIP3    H232121   5.798   0.419   3.634  0.6991 -0.1950 -0.7331
 3544TIP3   OH232122   5.230   3.868   3.881 -0.4922 -0.3078  0.2535
 3544TIP3    H132123   5.260   3.841   3.968 -2.8288  1.1530  1.6140
 3544TIP3    H232124   5.282   3.945   3.861 -0.1140 -0.5039  0.4666
 3545TIP3   OH232125   6.486   5.175  14.317  0.1707 -0.7028 -0.3970
 3545TIP3    H132126   6.418   5.238  14.339  1.2482  0.7192 -0.9278
 3545TIP3    H232127   6.536   5.164  14.398  0.4022 -0.3210 -0.4867
 3546TIP3   OH232128   2.458   5.742   2.048  0.4283  0.1517 -0.3095
 3546TIP3    H132129   2.392   5.739   2.117 -0.6479 -1.2561 -1.3512
 3546TIP3    H232130   2.473   5.836   2.034 -0.4559  0.4781  0.7597
 3547TIP3   OH232131   2.233   6.469   4.637 -0.0545  0.4280  0.5345
 3547TIP3    H132132   2.246   6.563   4.629  3.9567  0.0159 -0.2385
 3547TIP3    H232133   2.293   6.443   4.707 -0.5648 -1.6181  0.2669
 3548TIP3   OH232134   5.794   5.213  15.831 -0.0778  0.8762  1.0891
 3548TIP3    H132135   5.779   5.212  15.737 -1.0958 -0.7586  1.2277
 3548TIP3    H232136   5.723   5.161  15.868 -0.2420  2.2633  2.8723
 3549TIP3   OH232137   2.105   2.169   2.955  0.3677  0.0407  0.2799
 3549TIP3    H132138   2.152   2.204   3.031  0.8049  1.0068 -0.4243
 3549TIP3    H232139   2.173   2.135   2.898  0.1801  1.0077 -0.5285
 3550TIP3   OH232140   2.958   5.201   0.666  0.0675 -0.0852  0.5270
 3550TIP3    H132141   2.935   5.158   0.583  0.5242 -1.1238  0.9184
 3550TIP3    H232142   2.995   5.285   0.639 -1.0263  0.1802 -0.2525
 3551TIP3   OH232143   2.586   4.596  16.727 -0.2968 -0.4788 -0.1108
 3551TIP3    H132144   2.592   4.519  16.783 -0.7338 -0.2791  0.2222
 3551TIP3    H232145   2.516   4.649  16.767 -0.2204 -0.0645 -0.5170
 3552TIP3   OH232146   6.680   0.656  14.811  0.0850  0.2112  0.6181
 3552TIP3    H132147   6.624   0.580  14.825  0.5024 -0.3370 -0.5750
 3552TIP3    H232148   6.618   0.730  14.807 -0.4906 -0.2963 -0.0045
 3553TIP3   OH232149   3.950   5.587   1.829  0.3783  0.1179 -0.1793
 3553TIP3    H132150   3.874   5.646   1.830  1.6346  1.8609  1.7359
 3553TIP3    H232151   4.018   5.636   1.783  1.0324 -0.4377  0.1862
 3554TIP3   OH232152   6.475   3.058  15.047  0.4393  0.2130  0.0360
 3554TIP3    H132153   6.396   3.109  15.068  0.7733  0.7382  0.0538
 3554TIP3    H232154   6.541   3.125  15.026 -0.0091 -0.2054 -3.3613
 3555TIP3   OH232155   4.552   4.321   2.161  0.1285  0.0192 -0.3626
 3555TIP3    H132156   4.517   4.391   2.106 -1.3716  0.3569  0.9401
 3555TIP3    H232157   4.519   4.342   2.249  3.4299  0.2377  0.9840
 3556TIP3   OH232158   0.267   3.109   2.218 -1.0031 -0.0746  0.0901
 3556TIP3    H132159   0.291   3.016   2.221 -0.8451 -0.0124  0.8808
 3556TIP3    H232160   0.333   3.148   2.161 -0.1135 -0.1804  1.0151
 3557TIP3   OH232161   2.102   2.170  16.066 -0.0864  0.0011  0.5749
 3557TIP3    H132162   2.098   2.199  16.157  1.7768 -0.9996  1.0280
 3557TIP3    H232163   2.129   2.247  16.017  0.5605  0.1241  1.1194
 3558TIP3   OH232164   2.183   6.665  17.096  0.5239 -0.8631 -0.2920
 3558TIP3    H132165   2.235   6.725  17.043 -0.0796 -0.1186 -0.0604
 3558TIP3    H232166   2.157   6.595  17.036  0.5292 -0.4531 -0.7701
 3559TIP3   OH232167   3.295   1.921  11.510  0.0049 -0.3812 -0.2758
 3559TIP3    H132168   3.251   1.840  11.486 -1.3774  0.6607 -1.4476
 3559TIP3    H232169   3.353   1.940  11.436 -0.9896  0.5853 -0.8218
 3560TIP3   OH232170   6.802   2.262  12.432  0.6115 -0.1648 -0.0333
 3560TIP3    H132171   6.710   2.238  12.442  0.0470  1.5461 -0.8276
 3560TIP3    H232172   6.815   2.269  12.337  1.4693 -0.0252  0.0854
 3561TIP3   OH232173   4.114   5.104   4.742  0.3409  0.9996 -0.0657
 3561TIP3    H132174   4.132   5.053   4.822  0.0205  1.7481  0.4925
 3561TIP3    H232175   4.024   5.135   4.753  0.2391  0.9801 -0.7954
 3562TIP3   OH232176   2.801   4.439   5.411  0.1456 -0.0454  0.2393
 3562TIP3    H132177   2.770   4.355   5.444 -0.2887  0.2149  0.5211
 3562TIP3    H232178   2.721   4.485   5.384  0.2879  0.5896  0.8503
 3563TIP3   OH232179   6.766   1.794  13.339  0.2574  0.0295 -0.0809
 3563TIP3    H132180   6.766   1.742  13.420  3.3552 -0.7965 -0.4987
 3563TIP3    H232181   6.764   1.729  13.269  1.1914  0.5874 -0.6349
 3564TIP3   OH232182   0.669   3.656   4.692 -0.0106 -0.3679  0.0393
 3564TIP3    H132183   0.579   3.637   4.717 -0.2761  2.2615  1.3566
 3564TIP3    H232184   0.662   3.724   4.625  0.9897  0.1262  0.4139
 3565TIP3   OH232185   3.964   1.664  14.203  0.1216  0.0628 -0.1912
 3565TIP3    H132186   3.905   1.722  14.252 -2.4116 -1.7075 -0.9510
 3565TIP3    H232187   3.939   1.677  14.111  0.5714 -1.0687 -0.4874
 3566TIP3   OH232188   4.582   4.391   2.910  0.2709 -0.3044  0.2074
 3566TIP3    H132189   4.521   4.386   2.837  1.4126 -2.3678 -0.7130
 3566TIP3    H232190   4.597   4.299   2.933  1.7301  0.2316  1.5056
 3567TIP3   OH232191   1.226   2.530  15.821  0.7125  0.0332  0.0536
 3567TIP3    H132192   1.187   2.573  15.897  0.0694 -1.1750  0.4358
 3567TIP3    H232193   1.252   2.443  15.853 -0.3430 -0.8121 -1.2837
 3568TIP3   OH232194   1.301   4.978  16.375  0.5956  0.5361  0.2546
 3568TIP3    H132195   1.353   4.940  16.446 -1.0331 -0.7891  0.8076
 3568TIP3    H232196   1.289   4.906  16.313  0.9004  1.3222 -0.7432
 3569TIP3   OH232197   0.932   2.098  16.691 -0.1769 -0.0815 -0.2068
 3569TIP3    H132198   0.926   2.084  16.786 -1.3022 -1.2267 -0.4226
 3569TIP3    H232199   0.842   2.113  16.663  0.0274 -0.6932 -1.2287
 3570TIP3   OH232200   5.422   5.027   6.786  0.1683 -0.0326 -0.6981
 3570TIP3    H132201   5.464   4.942   6.771  0.3865  0.4562 -3.2969
 3570TIP3    H232202   5.483   5.091   6.748 -0.5511  1.1851  0.1210
 3571TIP3   OH232203   5.365   1.814  11.339 -0.4185 -0.5057 -0.3802
 3571TIP3    H132204   5.453   1.848  11.322  0.1578 -1.9141 -0.4121
 3571TIP3    H232205   5.322   1.881  11.391  1.1148 -0.3299  0.7220
 3572TIP3   OH232206   2.400   3.488  14.671  0.7323  0.3308 -0.1611
 3572TIP3    H132207   2.322   3.483  14.727  1.0767  1.1977  0.4108
 3572TIP3    H232208   2.424   3.396  14.655 -1.1194 -0.0163 -1.3776
 3573TIP3   OH232209   1.559   5.051  13.535 -0.0405  0.3770 -0.5877
 3573TIP3    H132210   1.622   5.109  13.577 -0.3666  1.5032 -1.5837
 3573TIP3    H232211   1.567   5.071  13.441 -0.1741 -1.1848 -0.9607
 3574TIP3   OH232212   0.472   6.639  14.118  0.3514 -0.1028 -0.4804
 3574TIP3    H132213   0.482   6.700  14.045 -1.3844 -2.1231 -2.5725
 3574TIP3    H232214   0.523   6.677  14.189 -0.0537  3.3413 -1.8708
 3575TIP3   OH232215   3.350   5.675  11.110 -0.5045 -0.7053  0.0714
 3575TIP3    H132216   3.331   5.610  11.042  0.0469 -0.5046 -0.2840
 3575TIP3    H232217   3.445   5.683  11.109 -0.5470 -0.1402  0.3519
 3576TIP3   OH232218   6.515   4.236   4.134  0.4447  0.3231  0.2884
 3576TIP3    H132219   6.472   4.314   4.099  0.2282  0.4905  0.9210
 3576TIP3    H232220   6.463   4.213   4.211  0.9158 -0.0425  0.4976
 3577TIP3   OH232221   3.372   5.944   4.463 -0.0571 -0.1575 -0.1327
 3577TIP3    H132222   3.300   5.883   4.477 -0.7155  1.0689  2.4275
 3577TIP3    H232223   3.398   5.972   4.551  1.5439  1.7400 -1.1087
 3578TIP3   OH232224   2.785   1.122  11.876  0.0788  0.2144 -0.4062
 3578TIP3    H132225   2.700   1.164  11.864 -0.5000 -0.5742  0.7653
 3578TIP3    H232226   2.796   1.116  11.971  1.2985  0.0070 -0.5385
 3579TIP3   OH232227   4.836   2.063  14.042 -0.2558 -0.4075  0.3679
 3579TIP3    H132228   4.864   2.049  14.132 -0.0027 -0.2019  0.3187
 3579TIP3    H232229   4.868   1.986  13.995  0.2924 -0.1378  0.2965
 3580TIP3   OH232230   4.593   2.085  12.143  0.3104  0.9627 -0.1719
 3580TIP3    H132231   4.632   2.166  12.175  3.8846  0.7049 -3.0864
 3580TIP3    H232232   4.520   2.113  12.088 -0.5569  1.9024  1.4040
 3581TIP3   OH232233   0.789   5.660  13.033 -0.2013  0.0002 -0.1373
 3581TIP3    H132234   0.835   5.577  13.030  0.2095  0.1259  1.5233
 3581TIP3    H232235   0.772   5.675  13.126 -2.7965  0.4164 -0.5915
 3582TIP3   OH232236   4.903   4.811   6.157 -0.2788 -0.1663  0.1161
 3582TIP3    H132237   4.877   4.758   6.233  0.2125 -0.7047 -0.0797
 3582TIP3    H232238   4.830   4.871   6.143  0.0178  0.6151  1.6135
 3583TIP3   OH232239   1.451   4.222   4.093  0.0141 -0.2537  0.0286
 3583TIP3    H132240   1.411   4.302   4.126 -1.1696 -0.4690 -0.8386
 3583TIP3    H232241   1.501   4.188   4.168  1.4087  1.7905  0.1325
 3584TIP3   OH232242   1.721   5.191   2.787  0.7353 -0.5309  0.0532
 3584TIP3    H132243   1.660   5.260   2.815  1.0407  0.6980 -2.0377
 3584TIP3    H232244   1.763   5.161   2.867 -0.5293  0.6508  1.2034
 3585TIP3   OH232245   5.862   0.077  15.225 -0.0886  0.1672  0.8447
 3585TIP3    H132246   5.906   0.159  15.248  3.0241 -1.2720  0.6279
 3585TIP3    H232247   5.854   0.080  15.130 -1.0568  0.6926  0.9386
 3586TIP3   OH232248   1.453   0.313  14.928 -0.1246  0.0996  0.3140
 3586TIP3    H132249   1.463   0.249  14.998  0.0435 -2.0660 -1.5937
 3586TIP3    H232250   1.381   0.281  14.874  0.6394  0.9197 -1.2978
 3587TIP3   OH232251   0.140   1.998   0.728  0.2582 -0.2533 -0.1500
 3587TIP3    H132252   0.195   2.005   0.806 -0.2957 -2.4134  0.5008
 3587TIP3    H232253   0.147   1.906   0.701  0.0809  0.3364 -2.4127
 3588TIP3   OH232254   3.591   2.406  15.509 -0.1929  0.0689 -0.0956
 3588TIP3    H132255   3.585   2.495  15.544 -0.7688  0.7573 -1.8451
 3588TIP3    H232256   3.500   2.379  15.497 -0.0161 -0.4807 -0.2531
 3589TIP3   OH232257   0.557   3.857   3.170  0.0001  0.6615  0.1992
 3589TIP3    H132258   0.617   3.827   3.239 -1.1868 -0.3752  0.8143
 3589TIP3    H232259   0.531   3.778   3.123 -1.0066  1.0543  0.0571
 3590TIP3   OH232260   4.925   0.314   5.979  0.3814  0.2902  0.2655
 3590TIP3    H132261   4.982   0.369   6.033 -2.4653  1.0014  2.8213
 3590TIP3    H232262   4.934   0.226   6.016 -1.2303  0.6968  1.7886
 3591TIP3   OH232263   3.180   5.465  12.328  0.1962  0.0047  0.7977
 3591TIP3    H132264   3.275   5.452  12.330  0.1362 -0.4715  0.6661
 3591TIP3    H232265   3.145   5.382  12.295 -0.2699  0.1538  0.9086
 3592TIP3   OH232266   6.049   5.927  10.716  0.2696 -0.1168  0.0118
 3592TIP3    H132267   6.070   6.011  10.674 -0.7862  0.3270  0.3255
 3592TIP3    H232268   6.006   5.952  10.798  1.9859 -0.9746  1.2184
 3593TIP3   OH232269   1.118   4.585   0.646 -0.1489 -0.6770  0.2359
 3593TIP3    H132270   1.076   4.536   0.717  1.4509 -1.8742  0.4405
 3593TIP3    H232271   1.156   4.517   0.590 -1.0622  0.2531 -1.6036
 3594TIP3   OH232272   6.318   4.388  16.264  0.6004  0.2090  0.3094
 3594TIP3    H132273   6.264   4.321  16.222  2.3617 -0.6006 -0.8156
 3594TIP3    H232274   6.379   4.338  16.319  1.5047  0.9039 -0.0350
 3595TIP3   OH232275   6.300   2.781  11.245 -0.3300 -0.0688  0.1259
 3595TIP3    H132276   6.288   2.687  11.262  0.8320 -0.6162 -1.8320
 3595TIP3    H232277   6.230   2.804  11.184 -1.5468  0.7558  1.7435
 3596TIP3   OH232278   6.735   0.139   3.013 -0.0875  0.4507 -0.0581
 3596TIP3    H132279   6.718   0.116   3.104  2.8506  0.1420  0.4866
 3596TIP3    H232280   6.741   0.054   2.968 -1.2441  0.5954 -0.5156
 3597TIP3   OH232281   3.746   5.503   0.967  0.3003 -0.3534  0.0654
 3597TIP3    H132282   3.701   5.587   0.973 -2.4415 -1.6451 -0.8735
 3597TIP3    H232283   3.826   5.522   0.917 -0.2627  1.6587 -0.1450
 3598TIP3   OH232284   3.357   1.129   5.788 -0.5274  0.5607 -0.1412
 3598TIP3    H132285   3.420   1.168   5.727 -0.7793 -1.0718 -1.5276
 3598TIP3    H232286   3.273   1.137   5.743 -0.9939  0.8180  0.7587
 3599TIP3   OH232287   1.879   3.848   5.417 -0.1766  0.5606  0.2880
 3599TIP3    H132288   1.891   3.754   5.431  0.5178  0.6927  0.6004
 3599TIP3    H232289   1.944   3.889   5.473 -0.0002  1.2119 -0.3849
 3600TIP3   OH232290   5.817   5.795   0.884 -0.1820 -0.1561 -0.0193
 3600TIP3    H132291   5.872   5.801   0.806 -1.5263  2.0325 -0.9085
 3600TIP3    H232292   5.799   5.886   0.907 -2.7126 -0.7637  0.7101
 3601TIP3   OH232293   0.187   2.445   0.114  0.1285  0.2640 -0.8201
 3601TIP3    H132294   0.137   2.401   0.046 -0.9654  0.1238  0.0328
 3601TIP3    H232295   0.122   2.500   0.159  0.7926  0.2868  0.1528
 3602TIP3   OH232296   1.372   2.233  15.281 -0.1328 -0.2278 -0.3112
 3602TIP3    H132297   1.401   2.286  15.356 -0.6346  1.7605 -1.4496
 3602TIP3    H232298   1.452   2.207  15.237  0.1123 -0.3228  0.1834
 3603TIP3   OH232299   1.953   1.920   2.903  0.2187 -0.2538 -0.0354
 3603TIP3    H132300   2.014   1.991   2.881  1.1005 -1.3140 -1.1712
 3603TIP3    H232301   2.009   1.843   2.911 -0.9155 -1.1461 -0.5154
 3604TIP3   OH232302   2.494   3.142   1.868 -0.9467  0.2605 -0.2430
 3604TIP3    H132303   2.511   3.096   1.786  0.1161  0.5768 -0.2096
 3604TIP3    H232304   2.518   3.233   1.850  3.1143 -0.2493  1.4561
 3605TIP3   OH232305   0.254   2.318   5.508  0.0911  0.2903  0.5010
 3605TIP3    H132306   0.339   2.276   5.511 -1.0568 -2.1301  1.7546
 3605TIP3    H232307   0.251   2.360   5.422  1.0300 -2.9791 -1.2725
 3606TIP3   OH232308   0.172   2.202  16.887 -0.5324  0.1081  0.5848
 3606TIP3    H132309   0.260   2.177  16.914 -1.1387 -2.4886  0.4681
 3606TIP3    H232310   0.172   2.193  16.792 -1.0040 -0.3303  0.6157
 3607TIP3   OH232311   5.769   2.101  13.377 -0.0534 -0.0091 -0.7281
 3607TIP3    H132312   5.802   2.169  13.318 -0.1265  0.1050 -0.6375
 3607TIP3    H232313   5.793   2.132  13.464  0.2523 -0.2846 -0.7104
 3608TIP3   OH232314   5.089   3.642  13.359  0.6364 -0.2460 -0.0884
 3608TIP3    H132315   5.127   3.723  13.326  0.1667 -0.4267 -1.1175
 3608TIP3    H232316   5.059   3.596  13.281  1.9588 -1.9784  0.3620
 3609TIP3   OH232317   0.101   5.533  13.937  0.3488 -0.3814  0.1231
 3609TIP3    H132318   0.011   5.502  13.925  0.6319 -1.8337  1.3907
 3609TIP3    H232319   0.155   5.470  13.890  0.9198 -1.8184  2.5174
 3610TIP3   OH232320   3.336   1.236  11.451 -0.0508  0.0209  0.1724
 3610TIP3    H132321   3.297   1.323  11.465 -0.9587 -0.5765  1.5431
 3610TIP3    H232322   3.376   1.214  11.535  1.1081 -0.4474 -0.4885
 3611TIP3   OH232323   0.473   5.512  15.529  1.0506 -0.9053  0.1827
 3611TIP3    H132324   0.501   5.421  15.533 -0.5533 -1.3902  1.9302
 3611TIP3    H232325   0.495   5.548  15.615 -1.8410 -0.8342  0.9987
 3612TIP3   OH232326   5.941   0.440  13.352  0.0247  0.0017  0.4724
 3612TIP3    H132327   5.925   0.391  13.433  2.9469  0.0196  1.1581
 3612TIP3    H232328   5.990   0.380  13.296  1.3681  1.2214  0.2784
 3613TIP3   OH232329   0.628   5.199  15.255 -0.4152  0.8198 -0.2156
 3613TIP3    H132330   0.692   5.128  15.264 -2.1353 -0.8458 -0.4982
 3613TIP3    H232331   0.675   5.268  15.209  2.6636  1.7207  3.7113
 3614TIP3   OH232332   4.810   2.323  14.347  0.3603  0.3749 -0.2959
 3614TIP3    H132333   4.747   2.349  14.415 -0.0222 -0.1782 -0.4285
 3614TIP3    H232334   4.801   2.390  14.279  2.6279  2.4462  1.3019
 3615TIP3   OH232335   4.702   6.305   1.919 -0.6864 -0.4565 -0.0026
 3615TIP3    H132336   4.608   6.301   1.906 -0.4669 -1.2963 -1.5822
 3615TIP3    H232337   4.737   6.337   1.836  0.2688  2.8289  1.4936
 3616TIP3   OH232338   5.530   2.974  14.433  0.4548 -0.0998 -0.7691
 3616TIP3    H132339   5.564   3.063  14.420  0.7058 -0.3581 -1.9892
 3616TIP3    H232340   5.598   2.917  14.397  1.8438 -1.0269  2.8513
 3617TIP3   OH232341   6.525   5.652   0.013 -0.3792  0.1582  0.1839
 3617TIP3    H132342   6.588   5.695   0.070 -0.5582 -1.7286  1.9067
 3617TIP3    H232343   6.444   5.649   0.064 -0.9230 -0.4375 -0.6772
 3618TIP3   OH232344   4.420   0.978  15.838 -0.7242  0.0365  0.1858
 3618TIP3    H132345   4.458   0.962  15.752  1.2422 -1.5223  1.2549
 3618TIP3    H232346   4.325   0.975  15.823 -0.5044 -3.2849 -1.5166
 3619TIP3   OH232347   2.101   2.547   1.856  0.1736  0.0450 -1.0554
 3619TIP3    H132348   2.065   2.525   1.942 -1.2795 -0.8724 -1.8420
 3619TIP3    H232349   2.194   2.527   1.862 -0.4229 -3.0866 -0.5997
 3620TIP3   OH232350   6.817   5.450   0.103 -0.5490 -0.2207  0.2240
 3620TIP3    H132351   6.762   5.402   0.165 -2.0763  1.4409  0.2530
 3620TIP3    H232352   6.807   5.542   0.129  0.1043  0.3597 -1.4415
 3621TIP3   OH232353   0.788   6.357   3.800  0.4501 -0.0550  0.4243
 3621TIP3    H132354   0.733   6.421   3.756 -0.4357  1.0304  2.9737
 3621TIP3    H232355   0.860   6.408   3.837  1.4177 -1.0014 -0.0925
 3622TIP3   OH232356   3.211   5.613   1.570  0.5639  0.3114 -0.4098
 3622TIP3    H132357   3.292   5.566   1.549 -0.3431 -2.0579  0.8895
 3622TIP3    H232358   3.228   5.650   1.657 -0.0065 -1.0630  0.3303
 3623TIP3   OH232359   5.360   2.322   0.439  0.5312  0.0850 -0.0827
 3623TIP3    H132360   5.425   2.315   0.369 -0.6809 -0.4106 -1.2113
 3623TIP3    H232361   5.312   2.403   0.418  2.2458  1.8020  2.0923
 3624TIP3   OH232362   2.748   1.070   3.983 -0.3776 -0.5285 -0.6753
 3624TIP3    H132363   2.763   0.977   4.000  0.3900 -0.1469  0.9441
 3624TIP3    H232364   2.709   1.103   4.064  0.9798  0.8974 -0.5674
 3625TIP3   OH232365   3.673   4.853   5.349 -0.1689 -0.0910 -0.1694
 3625TIP3    H132366   3.672   4.818   5.438  1.9472  3.8671  1.6527
 3625TIP3    H232367   3.606   4.802   5.303 -1.6162 -2.1345  3.6887
 3626TIP3   OH232368   4.646   3.665   4.597  0.5822  0.5637 -0.1799
 3626TIP3    H132369   4.667   3.589   4.543 -0.5606 -1.9229  2.5666
 3626TIP3    H232370   4.553   3.681   4.582  0.6118  0.8408 -0.0786
 3627TIP3   OH232371   0.627   6.325   4.171  0.0375 -0.5304 -0.2926
 3627TIP3    H132372   0.656   6.399   4.119  1.6762 -1.0932 -0.2229
 3627TIP3    H232373   0.540   6.350   4.202  0.1250  0.9012 -1.1307
 3628TIP3   OH232374   2.455   1.386   2.837 -0.4115 -0.3144 -0.4594
 3628TIP3    H132375   2.427   1.436   2.761  0.8121 -1.0024 -1.4024
 3628TIP3    H232376   2.488   1.451   2.899 -0.2798  0.1615 -1.0308
 3629TIP3   OH232377   6.202   1.315   3.965  0.1384 -0.5167  0.2721
 3629TIP3    H132378   6.254   1.295   4.043 -0.3749 -1.6520  0.3470
 3629TIP3    H232379   6.237   1.256   3.898 -1.6123 -1.9382  0.5606
 3630TIP3   OH232380   2.482   3.487   3.378 -0.5409  0.3142  0.1157
 3630TIP3    H132381   2.456   3.522   3.293 -1.8032  0.2382  0.4516
 3630TIP3    H232382   2.525   3.561   3.422  0.9521  0.1053 -0.8928
 3631TIP3   OH232383   6.407   2.534  13.191  0.1099  0.2007  0.3562
 3631TIP3    H132384   6.463   2.530  13.114 -1.1524  0.8449 -0.6248
 3631TIP3    H232385   6.319   2.550  13.157 -1.2336 -3.4093  1.5899
 3632TIP3   OH232386   3.200   3.891  15.296 -0.0232 -0.8524  0.0995
 3632TIP3    H132387   3.207   3.798  15.317 -1.4926 -0.9927  0.0993
 3632TIP3    H232388   3.117   3.898  15.248 -0.1977  0.5234  0.5541
 3633TIP3   OH232389   0.155   1.417   5.250 -0.0791 -0.1521  0.3671
 3633TIP3    H132390   0.165   1.460   5.165 -0.3930 -0.1653  0.3202
 3633TIP3    H232391   0.170   1.324   5.233 -1.1741 -0.2963  0.1192
 3634TIP3   OH232392   6.650   3.168  14.433 -0.4873  0.0534 -0.0550
 3634TIP3    H132393   6.628   3.141  14.522 -0.4178 -2.0624 -0.6229
 3634TIP3    H232394   6.687   3.256  14.443 -1.2439  0.2088  1.8842
 3635TIP3   OH232395   1.099   1.074  12.667  0.4487  0.1563  0.4962
 3635TIP3    H132396   1.170   1.095  12.606  0.6620  0.6391  0.9061
 3635TIP3    H232397   1.141   1.020  12.734  0.0952 -0.8563 -0.0664
 3636TIP3   OH232398   3.446   6.031  15.729  0.4395  0.1227 -0.0058
 3636TIP3    H132399   3.486   6.011  15.644  0.9772 -1.0919  0.5115
 3636TIP3    H232400   3.375   5.968  15.738 -0.6824  1.3061 -0.2497
 3637TIP3   OH232401   0.236   1.284   0.839 -0.3293  0.2989  0.0738
 3637TIP3    H132402   0.251   1.271   0.745  1.7073  0.3428  0.3630
 3637TIP3    H232403   0.228   1.196   0.875 -0.3502  0.2606 -0.0246
 3638TIP3   OH232404   0.660   6.271   4.451  0.0665  0.4332  0.4208
 3638TIP3    H132405   0.640   6.292   4.360  0.8224 -2.2190 -0.4510
 3638TIP3    H232406   0.667   6.175   4.453  0.2239  0.4160  3.2453
 3639TIP3   OH232407   4.496   6.236  16.414 -0.3107 -0.5656  0.3279
 3639TIP3    H132408   4.423   6.188  16.375 -0.4323  1.0441 -1.5330
 3639TIP3    H232409   4.499   6.205  16.505 -1.5243 -2.6905 -0.2952
 3640TIP3   OH232410   3.528   3.635   6.162  0.2644 -0.2676 -0.3072
 3640TIP3    H132411   3.583   3.706   6.196  1.7870 -1.3339 -0.4522
 3640TIP3    H232412   3.532   3.567   6.228  0.0617 -0.8204 -0.8511
 3641TIP3   OH232413   0.310   2.852  16.678  0.0412 -0.2531 -0.3194
 3641TIP3    H132414   0.336   2.798  16.603 -0.0024  0.9150 -1.1924
 3641TIP3    H232415   0.318   2.942  16.648  2.7566  0.4157  1.9486
 3642TIP3   OH232416   2.917   6.149   3.289  0.1501 -0.5278 -0.3800
 3642TIP3    H132417   3.004   6.171   3.256 -0.5368  0.0299 -1.8901
 3642TIP3    H232418   2.903   6.209   3.362  1.0813 -0.7203 -0.0280
 3643TIP3   OH232419   4.452   6.474  15.829  0.0735 -0.0385 -0.6919
 3643TIP3    H132420   4.402   6.527  15.767  0.1062  0.5613 -0.2129
 3643TIP3    H232421   4.389   6.410  15.862 -1.0507  2.0779  1.5663
 3644TIP3   OH232422   6.509   0.377  13.581  0.2323  0.3847 -0.4565
 3644TIP3    H132423   6.558   0.309  13.627  2.0962  0.2568 -2.4733
 3644TIP3    H232424   6.426   0.336  13.558 -0.1988  0.0425  1.5562
 3645TIP3   OH232425   4.232   1.955   5.273 -0.1226 -0.1646 -0.4858
 3645TIP3    H132426   4.205   2.042   5.244  0.6666 -0.2546 -1.5336
 3645TIP3    H232427   4.324   1.948   5.245  0.3454 -0.6871  1.0704
 3646TIP3   OH232428   0.303   2.892   6.392  0.6154  0.2837  0.2134
 3646TIP3    H132429   0.236   2.949   6.431  1.5329  0.1048  2.1793
 3646TIP3    H232430   0.329   2.937   6.311  0.3975  2.0017  1.0488
 3647TIP3   OH232431   5.776   4.529   3.993  0.0058 -0.8468 -0.4318
 3647TIP3    H132432   5.803   4.437   4.003 -0.1610 -1.0367 -1.5666
 3647TIP3    H232433   5.711   4.542   4.061  0.9262 -1.1949  0.5523
 3648TIP3   OH232434   6.194   2.868  15.570  0.2690 -0.3151 -0.2199
 3648TIP3    H132435   6.227   2.907  15.489  0.1898 -0.1664 -0.1806
 3648TIP3    H232436   6.255   2.797  15.590 -0.6380 -1.4756 -1.3481
 3649TIP3   OH232437   2.229   2.552  16.084  0.4094  0.7440  0.0038
 3649TIP3    H132438   2.190   2.503  16.012  0.6739  1.4432 -0.6247
 3649TIP3    H232439   2.177   2.528  16.161 -0.1069  0.2793 -0.4864
 3650TIP3   OH232440   0.099   0.769  10.866 -0.0451 -0.0503 -0.6236
 3650TIP3    H132441   0.129   0.848  10.820 -1.2154  0.9688  0.2895
 3650TIP3    H232442   0.006   0.763  10.845  0.3097 -2.0827 -1.8861
 3651TIP3   OH232443   3.744   2.540   3.530  0.0944 -0.5095  0.4331
 3651TIP3    H132444   3.670   2.481   3.549 -0.9667  0.3950 -0.6902
 3651TIP3    H232445   3.706   2.628   3.534  1.6709  0.1419  2.1515
 3652TIP3   OH232446   6.494   3.887   1.659  0.3079 -0.2693  0.4537
 3652TIP3    H132447   6.547   3.808   1.653 -0.4627 -0.7352 -0.3154
 3652TIP3    H232448   6.536   3.949   1.600 -0.4345 -0.8990 -0.7638
 3653TIP3   OH232449   5.395   5.027  13.907 -0.2527  0.2049 -0.0154
 3653TIP3    H132450   5.418   5.118  13.924  1.4252 -0.1242 -0.2999
 3653TIP3    H232451   5.475   4.978  13.929 -0.8701 -1.1072 -0.6019
 3654TIP3   OH232452   6.281   1.660   4.625  0.2301 -0.5568  0.5021
 3654TIP3    H132453   6.316   1.704   4.703  0.7177  0.6614 -0.3584
 3654TIP3    H232454   6.358   1.623   4.582 -0.0271 -1.1539  0.5521
 3655TIP3   OH232455   2.987   3.895  15.151 -0.4261  0.4779 -0.0063
 3655TIP3    H132456   3.005   3.825  15.089 -0.0074 -0.4602  1.1237
 3655TIP3    H232457   2.894   3.915  15.140 -1.1762 -1.9052  1.2206
 3656TIP3   OH232458   1.195   6.539  14.447  0.0711  0.1578  0.2999
 3656TIP3    H132459   1.268   6.523  14.507  0.3403  1.7843  0.4435
 3656TIP3    H232460   1.123   6.565  14.503 -0.2894 -0.3178  0.0632
 3657TIP3   OH232461   0.285   6.307  13.871 -0.3115 -0.0533 -0.0457
 3657TIP3    H132462   0.248   6.228  13.831 -3.1582  1.2533 -0.2821
 3657TIP3    H232463   0.280   6.290  13.966 -0.0727 -0.5001 -0.1123
 3658TIP3   OH232464   2.406   2.083  15.611  0.0117  0.0676 -0.0740
 3658TIP3    H132465   2.335   2.021  15.600  1.5047 -1.7632  0.0165
 3658TIP3    H232466   2.430   2.076  15.703 -0.2236  1.3122  0.1008
 3659TIP3   OH232467   0.877   5.851  11.457 -0.1905  0.1625 -0.4831
 3659TIP3    H132468   0.878   5.940  11.493  1.0824 -0.0107 -0.0153
 3659TIP3    H232469   0.825   5.857  11.377  0.1550  1.4057 -0.6331
 3660TIP3   OH232470   5.140   2.293  12.990 -0.2372  0.3080  0.3643
 3660TIP3    H132471   5.108   2.284  12.901 -1.2056 -0.8448  0.8090
 3660TIP3    H232472   5.196   2.217  13.004 -0.8621 -0.0369  1.0456
 3661TIP3   OH232473   5.159   4.583   5.910 -0.1973 -0.1368  0.3080
 3661TIP3    H132474   5.123   4.538   5.985 -0.7884 -1.6224 -0.8264
 3661TIP3    H232475   5.168   4.516   5.843  0.8439  1.0230 -0.7815
 3662TIP3   OH232476   2.297   3.520   0.432 -0.3698 -0.3914 -0.5099
 3662TIP3    H132477   2.278   3.538   0.524 -0.0811  0.1142 -0.5457
 3662TIP3    H232478   2.364   3.584   0.408  0.1951 -1.0893 -0.8377
 3663TIP3   OH232479   0.991   4.732   0.874 -0.0786 -0.1242  0.0543
 3663TIP3    H132480   0.951   4.739   0.961 -1.0707 -0.1205 -0.3952
 3663TIP3    H232481   0.923   4.761   0.814  0.9885  0.9758 -0.6543
 3664TIP3   OH232482   0.084   5.509  12.269  0.6617 -0.2471  0.2479
 3664TIP3    H132483   0.128   5.424  12.266  1.5658  0.1672  1.0436
 3664TIP3    H232484   0.052   5.517  12.359 -1.5421 -0.7497 -0.4391
 3665TIP3   OH232485   0.278   2.449   5.257 -0.1322 -0.0093  0.0901
 3665TIP3    H132486   0.368   2.441   5.287  0.5201  0.8752 -1.5121
 3665TIP3    H232487   0.276   2.531   5.207 -2.1600  0.6969  1.1986
 3666TIP3   OH232488   1.117   6.349  16.112  0.7847  0.1456 -0.3549
 3666TIP3    H132489   1.077   6.420  16.063  0.2911  0.3041  0.2721
 3666TIP3    H232490   1.206   6.378  16.129  0.3155  1.0313  0.6979
 3667TIP3   OH232491   5.580   4.597  14.611  0.0952  0.1833  0.0523
 3667TIP3    H132492   5.568   4.620  14.703 -2.1000  1.4982 -0.4886
 3667TIP3    H232493   5.662   4.639  14.587 -0.0650  1.1364  1.0461
 3668TIP3   OH232494   0.886   0.549  11.076  0.8768  0.4269 -0.0623
 3668TIP3    H132495   0.813   0.514  11.025  0.9813 -0.6218  0.4820
 3668TIP3    H232496   0.885   0.643  11.058 -1.0651  0.5601  0.4789
 3669TIP3   OH232497   4.434   1.778  14.996  0.3255  0.3048 -0.8419
 3669TIP3    H132498   4.504   1.751  14.936  1.1155 -0.5280  0.4178
 3669TIP3    H232499   4.363   1.806  14.938  1.4662  0.5954 -2.1610
 3670TIP3   OH232500   5.850   4.701  14.045 -0.9392 -0.2484  1.2980
 3670TIP3    H132501   5.908   4.677  14.118  0.3384 -0.2514  0.3098
 3670TIP3    H232502   5.851   4.624  13.988  0.2916  0.7590 -0.0919
 3671TIP3   OH232503   6.088   6.599  10.915  0.2684  0.6303 -0.0605
 3671TIP3    H132504   6.056   6.519  10.957 -0.3786  1.5397  1.2523
 3671TIP3    H232505   6.170   6.573  10.872  0.0219 -0.7453  0.2686
 3672TIP3   OH232506   2.485   5.591   5.690  0.3789 -0.2470 -0.3941
 3672TIP3    H132507   2.549   5.620   5.755  2.2922 -0.4317 -2.1138
 3672TIP3    H232508   2.406   5.642   5.711  1.3702  0.7379  1.1683
 3673TIP3   OH232509   2.492   3.109   2.526  0.4306 -0.4345  0.4870
 3673TIP3    H132510   2.445   3.170   2.470  1.0681 -0.7799 -0.4412
 3673TIP3    H232511   2.424   3.072   2.583 -0.6534 -1.6892 -1.4994
 3674TIP3   OH232512   6.332   6.088  13.303  0.1793 -0.2196  0.4200
 3674TIP3    H132513   6.322   6.140  13.223  0.9772  1.5289  1.4052
 3674TIP3    H232514   6.396   6.021  13.279 -0.3554 -0.3727 -0.6828
 3675TIP3   OH232515   6.104   3.406  12.499 -1.1766 -0.0588 -0.2190
 3675TIP3    H132516   6.184   3.370  12.537 -1.0153 -1.4068 -1.7103
 3675TIP3    H232517   6.130   3.440  12.414 -2.0268  0.3161 -0.3452
 3676TIP3   OH232518   1.387   2.013  14.854 -0.3126  0.5654 -0.3418
 3676TIP3    H132519   1.381   1.991  14.761 -0.6462  0.3270 -0.2647
 3676TIP3    H232520   1.297   2.037  14.879 -0.0926  1.3536 -0.2573
 3677TIP3   OH232521   4.590   1.873   0.246 -0.8360  0.3631 -0.5271
 3677TIP3    H132522   4.559   1.913   0.165 -0.7316  0.4394 -0.5295
 3677TIP3    H232523   4.608   1.782   0.223 -0.7001  0.4131 -0.6154
 3678TIP3   OH232524   0.902   4.882   2.332  0.7522  0.1810  0.0780
 3678TIP3    H132525   0.817   4.923   2.314  0.9485 -0.0668 -1.5546
 3678TIP3    H232526   0.902   4.802   2.279  2.9780  1.4295 -1.9712
 3679TIP3   OH232527   6.107   3.605   2.139 -0.0779 -0.0945  0.0853
 3679TIP3    H132528   6.163   3.682   2.137  1.0188 -0.8688 -1.3494
 3679TIP3    H232529   6.086   3.588   2.047  0.6444 -2.1224  0.2356
 3680TIP3   OH232530   6.372   2.676   2.493  0.0265 -0.5793  0.2069
 3680TIP3    H132531   6.311   2.748   2.475 -0.7419 -1.5258 -1.1515
 3680TIP3    H232532   6.454   2.719   2.515 -0.9441  0.7242  1.4972
 3681TIP3   OH232533   2.662   3.547  16.650  0.7518  0.5863  0.3364
 3681TIP3    H132534   2.624   3.520  16.566  1.7953 -0.0169  0.0410
 3681TIP3    H232535   2.740   3.596  16.626  2.9983 -2.4248  0.8996
 3682TIP3   OH232536   4.312   0.500   2.983  0.6711  0.1154  0.5574
 3682TIP3    H132537   4.318   0.423   2.927  0.1266 -0.8030  1.7417
 3682TIP3    H232538   4.402   0.531   2.991  1.1347 -1.3484  1.3577
 3683TIP3   OH232539   4.333   6.216  11.762  0.8197 -0.2568  0.3675
 3683TIP3    H132540   4.338   6.121  11.777 -0.5578 -0.5302 -0.7305
 3683TIP3    H232541   4.304   6.251  11.847 -0.6598 -1.0647  0.2292
 3684TIP3   OH232542   5.255   6.437   2.737 -0.6876 -0.3990 -0.2588
 3684TIP3    H132543   5.332   6.424   2.682 -1.1623  0.8699 -1.2734
 3684TIP3    H232544   5.271   6.384   2.814  0.3668 -1.6057 -1.2724
 3685TIP3   OH232545   5.296   3.737   0.723 -0.2066  0.0009  0.2474
 3685TIP3    H132546   5.349   3.762   0.799 -0.9519  0.4346  0.6372
 3685TIP3    H232547   5.266   3.820   0.686 -0.1991 -0.2224 -0.2689
 3686TIP3   OH232548   3.130   0.547  17.047  0.2389  0.6331 -0.1091
 3686TIP3    H132549   3.212   0.498  17.061 -0.6944 -0.4795  1.9143
 3686TIP3    H232550   3.067   0.481  17.019 -0.0540  1.4500 -1.4701
 3687TIP3   OH232551   1.938   5.901   0.567  0.1930  0.1160  0.2685
 3687TIP3    H132552   1.953   5.875   0.475 -2.8178  0.7373 -0.5094
 3687TIP3    H232553   1.886   5.981   0.561  1.6354  1.3295  2.5999
 3688TIP3   OH232554   3.129   2.294  16.107  0.3951  0.4841  0.2117
 3688TIP3    H132555   3.067   2.312  16.177  0.1929  0.6186 -0.0009
 3688TIP3    H232556   3.079   2.243  16.043  0.5589  0.4214  0.1307
 3689TIP3   OH232557   4.727   5.236   1.089  0.5151 -0.0838 -0.0252
 3689TIP3    H132558   4.697   5.148   1.113 -1.3836  0.2639 -0.9511
 3689TIP3    H232559   4.705   5.290   1.165 -0.1761 -0.0442 -0.2503
 3690TIP3   OH232560   1.835   3.926   0.841  0.0424  0.2412 -0.5328
 3690TIP3    H132561   1.805   3.837   0.861  0.3746  0.0422 -0.9086
 3690TIP3    H232562   1.825   3.934   0.746 -0.6484  0.8536 -0.4137
 3691TIP3   OH232563   5.568   1.892   4.140 -0.6528  0.7230 -0.6081
 3691TIP3    H132564   5.513   1.824   4.181  1.1235 -0.8050 -0.5875
 3691TIP3    H232565   5.634   1.842   4.092  1.6716  2.4168  0.6765
 3692TIP3   OH232566   3.183   4.986   6.454 -0.1324 -0.1994 -0.2690
 3692TIP3    H132567   3.230   5.070   6.455  2.2560 -1.4271 -0.3444
 3692TIP3    H232568   3.163   4.971   6.361 -2.8678  1.3738 -0.0330
 3693TIP3   OH232569   2.571   3.215  16.691  0.2867  0.1594  0.1430
 3693TIP3    H132570   2.665   3.215  16.709  0.1566  2.9463  1.2902
 3693TIP3    H232571   2.565   3.235  16.598  0.8016 -1.5670 -0.2982
 3694TIP3   OH232572   1.525   5.668  15.151  0.6218 -0.3351 -0.5301
 3694TIP3    H132573   1.575   5.748  15.169  0.9847 -0.6680 -0.0399
 3694TIP3    H232574   1.484   5.646  15.234  0.5777 -0.6993 -0.6489
 3695TIP3   OH232575   5.109   5.317   5.034  0.2551 -0.0479  0.0715
 3695TIP3    H132576   5.025   5.331   4.990  0.6653  1.1665 -0.3565
 3695TIP3    H232577   5.174   5.354   4.975  0.9556  0.3227  1.0364
 3696TIP3   OH232578   3.657   3.779  13.456 -0.2510  0.5552  0.1280
 3696TIP3    H132579   3.702   3.738  13.382  0.5135  0.0860  0.8362
 3696TIP3    H232580   3.633   3.866  13.424  0.2264  0.4280 -0.6140
 3697TIP3   OH232581   0.944   1.220  15.166 -0.2985 -0.4840 -0.1375
 3697TIP3    H132582   1.027   1.209  15.212 -1.3085  1.9756  2.6040
 3697TIP3    H232583   0.953   1.302  15.118 -2.3161  2.2315  3.6417
 3698TIP3   OH232584   1.340   2.271   1.375 -0.0421 -0.4576 -0.0298
 3698TIP3    H132585   1.349   2.193   1.320 -2.4764 -0.4701 -0.4895
 3698TIP3    H232586   1.251   2.301   1.361 -0.3344  0.3586  2.8521
 3699TIP3   OH232587   0.159   2.022  12.357  0.5561  0.7929 -0.2141
 3699TIP3    H132588   0.136   1.987  12.272 -0.2059 -1.8049  0.9718
 3699TIP3    H232589   0.078   2.064  12.388  0.1145 -0.3062  0.1639
 3700TIP3   OH232590   3.081   2.460  12.052  0.2447 -0.5253 -0.3389
 3700TIP3    H132591   3.176   2.475  12.056  0.3996 -1.6429  2.0383
 3700TIP3    H232592   3.044   2.531  12.104  0.0309 -1.4479  0.8289
 3701TIP3   OH232593   1.813   4.966  13.931 -0.0503 -0.0506  0.1781
 3701TIP3    H132594   1.743   5.023  13.965 -0.6630 -0.2928 -0.6352
 3701TIP3    H232595   1.810   4.980  13.836  1.2749  0.2240  0.1663
 3702TIP3   OH232596   4.643   4.245   3.839 -0.4241  0.5584  0.4294
 3702TIP3    H132597   4.712   4.285   3.786 -2.6042  2.3779 -1.2295
 3702TIP3    H232598   4.689   4.182   3.894  2.2914  0.1366 -2.0555
 3703TIP3   OH232599   4.767   0.793  13.064 -0.5010 -0.0302 -0.1908
 3703TIP3    H132600   4.765   0.807  13.159 -0.9151 -0.9616 -0.0462
 3703TIP3    H232601   4.721   0.868  13.028  0.1946  0.6433  0.3039
 3704TIP3   OH232602   2.951   0.005  16.094  0.6454  0.1822  0.1289
 3704TIP3    H132603   2.911   0.063  16.029  0.9682 -0.6713 -0.8454
 3704TIP3    H232604   3.033  -0.024  16.054  0.7717 -0.4819  0.8445
 3705TIP3   OH232605   4.332   0.715  16.900  0.0707 -0.1140 -0.1323
 3705TIP3    H132606   4.378   0.773  16.840 -1.4037  1.8016  0.4627
 3705TIP3    H232607   4.400   0.682  16.959  1.1457 -0.0236 -1.2996
 3706TIP3   OH232608   3.894   2.533  16.242 -0.2299 -0.2397 -0.3269
 3706TIP3    H132609   3.941   2.615  16.253  0.8168 -0.8632  0.0408
 3706TIP3    H232610   3.855   2.539  16.155 -1.1439  1.1145  0.1526
 3707TIP3   OH232611   0.277   1.402   5.980  0.0457 -0.3413  0.0921
 3707TIP3    H132612   0.202   1.454   5.953  0.7153  0.1868 -0.7887
 3707TIP3    H232613   0.250   1.363   6.064 -1.0714  0.1022 -0.0432
 3708TIP3   OH232614   1.134   4.212  12.244  0.1006  0.2338 -0.8898
 3708TIP3    H132615   1.192   4.185  12.173  0.7070 -0.2417 -0.2231
 3708TIP3    H232616   1.156   4.304  12.259  1.5573 -0.2421  0.1478
 3709TIP3   OH232617   0.777   6.141  11.506  0.1964  0.0360 -0.5663
 3709TIP3    H132618   0.866   6.155  11.539 -0.5918  1.0445  1.2717
 3709TIP3    H232619   0.771   6.196  11.428  0.8535  0.7820 -0.1002
 3710TIP3   OH232620   4.828   3.638   2.970 -0.1709 -0.6736  0.6979
 3710TIP3    H132621   4.851   3.696   3.043  0.0051  0.1518 -0.0035
 3710TIP3    H232622   4.912   3.616   2.929 -0.2823 -1.0127  0.6471
 3711TIP3   OH232623   3.440   3.707  11.515  0.6866 -0.0147 -0.1712
 3711TIP3    H132624   3.398   3.788  11.486 -0.9403 -0.3630  1.0642
 3711TIP3    H232625   3.476   3.668  11.436 -0.8622  0.5840 -1.2047
 3712TIP3   OH232626   3.784   3.899  14.162 -0.0631 -0.2025 -0.0292
 3712TIP3    H132627   3.852   3.893  14.095 -0.0912 -0.0433 -0.0704
 3712TIP3    H232628   3.713   3.845  14.128  0.9461 -2.3941  1.0992
 3713TIP3   OH232629   3.116   0.844  13.954  0.4064 -0.3397  0.5252
 3713TIP3    H132630   3.061   0.826  14.030  1.6909 -0.5619  1.4267
 3713TIP3    H232631   3.068   0.805  13.880 -1.7206  1.3740  0.8874
 3714TIP3   OH232632   1.657   2.221   2.089 -0.1895 -0.5444  0.0918
 3714TIP3    H132633   1.635   2.204   2.180 -2.9804 -0.9265 -0.5627
 3714TIP3    H232634   1.670   2.135   2.050 -0.2932 -0.4634 -0.1310
 3715TIP3   OH232635   1.070   2.583  12.558  0.1418  0.2796  0.2045
 3715TIP3    H132636   1.086   2.551  12.647  2.1098  0.2398 -0.1353
 3715TIP3    H232637   1.081   2.507  12.502  1.3970  0.8106 -0.2917
 3716TIP3   OH232638   3.712   4.957   3.776  0.2326 -0.0422  0.3968
 3716TIP3    H132639   3.631   4.961   3.826 -0.4259 -2.3580 -0.3732
 3716TIP3    H232640   3.689   4.993   3.690 -1.0980 -3.7688 -1.0179
 3717TIP3   OH232641   5.689   2.119  13.876  0.2426  0.3027 -0.0710
 3717TIP3    H132642   5.670   2.204  13.917 -0.2386 -0.4192  1.2693
 3717TIP3    H232643   5.752   2.139  13.807  2.8466  1.3574  2.4351
 3718TIP3   OH232644   2.623   0.030   5.638 -0.0707 -0.1490  0.3894
 3718TIP3    H132645   2.604   0.003   5.548  1.0687 -1.9161  0.6371
 3718TIP3    H232646   2.715   0.055   5.636 -0.0659 -0.1156  1.0522
 3719TIP3   OH232647   0.878   0.402  13.435 -0.4371  0.6476 -0.3478
 3719TIP3    H132648   0.785   0.424  13.432 -0.9238 -0.2038  3.7155
 3719TIP3    H232649   0.881   0.307  13.427  0.4392  0.8017 -3.0286
 3720TIP3   OH232650   4.872   6.489   1.189 -0.1650 -0.1657 -0.5412
 3720TIP3    H132651   4.947   6.506   1.247 -0.2071 -1.9719  0.0887
 3720TIP3    H232652   4.867   6.567   1.134  1.2200  0.6670  0.4405
 3721TIP3   OH232653   2.793   0.660   3.874 -0.1266 -0.1084  0.1745
 3721TIP3    H132654   2.804   0.698   3.961  0.2529  0.3242 -0.0607
 3721TIP3    H232655   2.731   0.588   3.887 -0.6308  0.4140  0.6700
 3722TIP3   OH232656   6.755   3.874   1.363 -0.1091 -0.5205 -0.2581
 3722TIP3    H132657   6.730   3.799   1.309  1.9551 -0.3011 -1.6475
 3722TIP3    H232658   6.693   3.943   1.339 -1.1830 -1.3616  0.0347
 3723TIP3   OH232659   4.040   6.330  13.350 -0.4012 -0.2639  0.1600
 3723TIP3    H132660   4.104   6.260  13.365 -2.0210 -2.0358 -0.8022
 3723TIP3    H232661   4.022   6.326  13.256 -2.0181  0.0989  0.4291
 3724TIP3   OH232662   6.334   4.575  15.345  0.6830  0.3746  0.2191
 3724TIP3    H132663   6.319   4.669  15.360 -2.7754 -0.1097  0.3963
 3724TIP3    H232664   6.317   4.563  15.252 -1.0355 -0.3907  0.6114
 3725TIP3   OH232665   1.627   4.036   5.818  0.0600 -0.1340  0.3151
 3725TIP3    H132666   1.687   4.091   5.868  1.0695 -1.1836  0.3011
 3725TIP3    H232667   1.564   4.004   5.882  0.2434  0.0125  0.5693
 3726TIP3   OH232668   1.943   5.312  14.044  0.0875 -0.4622 -0.4890
 3726TIP3    H132669   1.978   5.339  13.959  1.1832  0.4442  0.2166
 3726TIP3    H232670   1.992   5.234  14.067 -1.1390 -1.5019 -1.2619
 3727TIP3   OH232671   6.326   6.362  16.509 -0.1705  0.3142 -0.1738
 3727TIP3    H132672   6.258   6.395  16.567 -0.0114  0.7327 -0.2201
 3727TIP3    H232673   6.338   6.432  16.444 -0.1640 -0.0354 -0.5552
 3728TIP3   OH232674   2.721   5.409   5.580  0.0077  0.1628 -0.7112
 3728TIP3    H132675   2.731   5.341   5.647 -0.0113 -0.6848 -1.5606
 3728TIP3    H232676   2.653   5.466   5.615 -1.4515 -1.3961 -0.8947
 3729TIP3   OH232677   1.134   5.387   4.503 -0.1142 -0.3012  0.3891
 3729TIP3    H132678   1.193   5.444   4.552 -1.0031  1.4229 -0.4740
 3729TIP3    H232679   1.189   5.313   4.477  0.9158 -0.1630  2.0393
 3730TIP3   OH232680   4.868   3.034  16.821 -0.3612 -0.0390 -0.2390
 3730TIP3    H132681   4.832   3.041  16.733 -2.7734 -1.0216  0.5837
 3730TIP3    H232682   4.793   3.046  16.879  1.1158  0.3741  1.6934
 3731TIP3   OH232683   2.747   2.146   0.395 -0.2583 -0.0725 -0.7330
 3731TIP3    H132684   2.834   2.185   0.402 -0.5496  0.3239  1.6444
 3731TIP3    H232685   2.746   2.077   0.461 -1.5217 -0.5434 -1.2073
 3732TIP3   OH232686   6.627   5.553   4.536 -0.4148 -0.3721 -0.7047
 3732TIP3    H132687   6.651   5.644   4.520 -0.7614 -0.3644 -1.2127
 3732TIP3    H232688   6.671   5.504   4.466  0.2869 -0.6717 -0.0577
 3733TIP3   OH232689   0.887   3.340   0.032  0.2176  0.3577 -0.6532
 3733TIP3    H132690   0.828   3.276  -0.007 -0.8886 -0.2162  1.7348
 3733TIP3    H232691   0.969   3.293   0.047 -0.3047 -0.2714  0.2979
 3734TIP3   OH232692   0.215   0.779   1.621  0.6219 -0.6549 -0.5331
 3734TIP3    H132693   0.236   0.861   1.664  1.1343 -2.2942  2.6294
 3734TIP3    H232694   0.130   0.754   1.656 -0.6926 -0.4217 -3.2826
 3735TIP3   OH232695   1.015   2.015  12.272 -0.2580 -0.0103  0.8607
 3735TIP3    H132696   0.998   1.943  12.332  0.2151  0.4422  1.5610
 3735TIP3    H232697   1.017   1.975  12.186 -0.8311 -0.6946  1.1571
 3736TIP3   OH232698   6.802   5.071   3.719 -0.1770 -0.4096 -0.2051
 3736TIP3    H132699   6.875   5.092   3.661  0.3771  1.6220  1.1321
 3736TIP3    H232700   6.839   5.016   3.787  0.4342  1.4592  1.0501
 3737TIP3   OH232701   3.020   5.208   0.021  0.5114  0.3815 -0.5574
 3737TIP3    H132702   3.086   5.149  -0.016 -0.6706 -1.8179  0.6521
 3737TIP3    H232703   2.947   5.206  -0.041 -0.1409 -0.6953  0.2095
 3738TIP3   OH232704   5.029   4.236  11.522 -0.0682 -0.4124 -0.6874
 3738TIP3    H132705   5.017   4.317  11.471  0.6195 -0.6062 -1.1747
 3738TIP3    H232706   4.960   4.178  11.490 -0.9549  0.1816  0.1015
 3739TIP3   OH232707   0.360   4.152   5.148  0.8884  0.3175 -0.1954
 3739TIP3    H132708   0.419   4.217   5.109  1.7836  0.4452  1.3184
 3739TIP3    H232709   0.384   4.069   5.105  0.7121  0.7234 -1.1005
 3740TIP3   OH232710   2.047   0.681  15.044 -0.1589  0.1689 -0.2942
 3740TIP3    H132711   2.113   0.620  15.013  0.3371  0.7817 -0.4836
 3740TIP3    H232712   1.964   0.635  15.034 -0.0097  0.2219 -2.3137
 3741TIP3   OH232713   1.007   0.002  12.310 -0.9522 -0.0161  0.1903
 3741TIP3    H132714   1.050   0.087  12.307  2.2257 -1.4659  0.8730
 3741TIP3    H232715   0.949   0.007  12.386  1.0221  0.7986  1.7080
 3742TIP3   OH232716   0.764   2.220   4.683  0.2802  0.6648  0.4441
 3742TIP3    H132717   0.838   2.165   4.660  0.6855  0.9117  1.1223
 3742TIP3    H232718   0.788   2.307   4.653  0.5008  0.8467  1.1177
 3743TIP3   OH232719   1.807   4.102   0.246 -0.2330  0.4111  0.9704
 3743TIP3    H132720   1.849   4.115   0.331 -1.6589 -0.6990  1.8884
 3743TIP3    H232721   1.819   4.186   0.200  2.5285  0.2978  1.3219
 3744TIP3   OH232722   5.192   4.532   1.519  0.3119 -0.3073 -0.1818
 3744TIP3    H132723   5.268   4.543   1.462 -0.4020  0.9649 -0.9359
 3744TIP3    H232724   5.199   4.443   1.552  2.0923 -0.2344 -0.2748
 3745TIP3   OH232725   6.295   0.105   6.147 -0.1345  0.0166 -0.3127
 3745TIP3    H132726   6.244   0.125   6.225  0.5840  0.8442 -0.0364
 3745TIP3    H232727   6.386   0.102   6.178  0.0850 -0.4725 -0.9677
 3746TIP3   OH232728   2.195   2.189   6.027  0.1218  0.5735  0.2990
 3746TIP3    H132729   2.120   2.246   6.044  0.6673  1.5533 -0.5066
 3746TIP3    H232730   2.166   2.102   6.056 -1.1846  1.0074  0.3381
 3747TIP3   OH232731   1.906   3.467  15.692 -0.1020 -0.1271 -0.4204
 3747TIP3    H132732   1.988   3.508  15.721 -1.8666  2.2843  1.7042
 3747TIP3    H232733   1.924   3.435  15.604  2.9076  0.9454 -0.2920
 3748TIP3   OH232734   5.792   5.018  10.618  0.1200 -0.6701 -0.4488
 3748TIP3    H132735   5.798   4.923  10.630  0.6421 -0.5412  0.4331
 3748TIP3    H232736   5.842   5.054  10.692 -0.2189  0.2917 -0.6807
 3749TIP3   OH232737   3.124   3.543  16.812  0.4502  0.1550  0.0035
 3749TIP3    H132738   3.041   3.495  16.808  1.1168 -0.9271 -2.7020
 3749TIP3    H232739   3.185   3.481  16.852  0.3013  0.4391  0.6878
 3750TIP3   OH232740   1.404   4.096  13.637  0.2902  0.4080 -0.0700
 3750TIP3    H132741   1.347   4.167  13.607  0.0949  0.1765 -0.2556
 3750TIP3    H232742   1.350   4.046  13.699  0.1816  0.0062 -0.4831
 3751TIP3   OH232743   0.493   0.966   3.363  0.3413 -0.0734 -0.7120
 3751TIP3    H132744   0.549   1.043   3.356  0.8142 -0.2601  0.6713
 3751TIP3    H232745   0.518   0.910   3.289  1.4532  0.1870 -0.5434
 3752TIP3   OH232746   6.399   0.576  14.742 -0.3131  0.3549 -0.1316
 3752TIP3    H132747   6.398   0.647  14.679  0.7338 -0.2315 -0.8297
 3752TIP3    H232748   6.325   0.521  14.717 -0.5685  0.7012 -0.1490
 3753TIP3   OH232749   4.817   4.345   3.660  0.8896 -0.2004  0.3858
 3753TIP3    H132750   4.894   4.346   3.603 -0.3544 -0.5660 -1.4111
 3753TIP3    H232751   4.754   4.403   3.617  0.1611  0.1253  1.8245
 3754TIP3   OH232752   0.777   0.685  16.598 -0.0174 -0.3050  0.6223
 3754TIP3    H132753   0.747   0.706  16.510  1.5657 -0.2172  0.0748
 3754TIP3    H232754   0.697   0.681  16.651 -0.9668 -0.1950 -0.7751
 3755TIP3   OH232755   6.266   3.486  12.814  0.1105  0.0113 -0.5028
 3755TIP3    H132756   6.297   3.427  12.745 -2.1835 -1.4407 -0.3981
 3755TIP3    H232757   6.171   3.488  12.803 -0.1133  1.4926  1.2761
 3756TIP3   OH232758   4.990   5.800   0.822  0.3596 -0.0954 -0.1514
 3756TIP3    H132759   5.054   5.856   0.778  0.0737 -0.1867 -0.7021
 3756TIP3    H232760   5.020   5.795   0.912  0.9477  0.1242 -0.3300
 3757TIP3   OH232761   4.801   5.272  13.572 -0.3381 -0.7511 -0.0438
 3757TIP3    H132762   4.833   5.185  13.596  0.1218 -0.5943 -0.0804
 3757TIP3    H232763   4.762   5.305  13.653  0.9125 -0.3620  0.4356
 3758TIP3   OH232764   4.228   1.008   1.503  0.3471  0.0588  0.1259
 3758TIP3    H132765   4.195   1.087   1.460 -0.7267 -1.3409 -1.7709
 3758TIP3    H232766   4.165   0.940   1.480  1.1657 -1.3569  1.8156
 3759TIP3   OH232767   2.231   0.352  13.125 -0.4456 -0.0261  0.7622
 3759TIP3    H132768   2.215   0.262  13.094 -1.9582  0.6831 -0.6390
 3759TIP3    H232769   2.300   0.342  13.190  1.0225 -1.9507 -0.9345
 3760TIP3   OH232770   3.152   5.647   6.189  0.7903 -0.0029  0.3065
 3760TIP3    H132771   3.089   5.577   6.208  1.0989  0.3687  3.1265
 3760TIP3    H232772   3.233   5.602   6.167 -0.1150 -0.4808 -2.4084
 3761TIP3   OH232773   3.854   4.506   2.042 -0.0349 -0.3637  0.0299
 3761TIP3    H132774   3.884   4.581   2.093 -0.6884 -0.3645  0.4293
 3761TIP3    H232775   3.895   4.517   1.956 -1.0736  1.1187 -0.3105
 3762TIP3   OH232776   1.250   3.316  12.343  0.5536  0.2363 -0.0694
 3762TIP3    H132777   1.239   3.230  12.302 -1.6490  0.9302 -1.0553
 3762TIP3    H232778   1.246   3.299  12.437  2.8572 -1.0210 -0.1115
 3763TIP3   OH232779   4.546   5.814   0.263  0.7330  0.4837  0.3762
 3763TIP3    H132780   4.481   5.829   0.195  1.0251 -2.3322 -0.6730
 3763TIP3    H232781   4.516   5.735   0.308  2.6928 -0.1038  0.7574
 3764TIP3   OH232782   6.465   0.010   1.371 -0.0615 -0.5194 -0.0906
 3764TIP3    H132783   6.454  -0.037   1.454 -0.0390  0.3958  0.4429
 3764TIP3    H232784   6.505  -0.054   1.312  1.6450 -0.6514  1.1559
 3765TIP3   OH232785   6.319   4.357  15.689 -0.1510 -0.2809 -0.1735
 3765TIP3    H132786   6.305   4.329  15.598  0.8219  1.4806 -0.9153
 3765TIP3    H232787   6.246   4.417  15.708  0.6104  0.7593 -0.4448
 3766TIP3   OH232788   6.490   3.010   2.509 -0.2162  0.4343 -0.0850
 3766TIP3    H132789   6.546   2.937   2.535 -0.1539 -0.2752 -2.0605
 3766TIP3    H232790   6.402   2.973   2.509 -0.2372  0.4728 -0.6259
 3767TIP3   OH232791   6.080   3.528  15.853 -1.1093  0.2061  0.1422
 3767TIP3    H132792   6.120   3.552  15.936  1.8159 -0.8201 -0.8352
 3767TIP3    H232793   6.016   3.461  15.875  1.8241 -2.4180  1.4219
 3768TIP3   OH232794   5.285   3.577  17.042 -0.6124  0.0259  0.1399
 3768TIP3    H132795   5.348   3.557  16.973  0.0442  1.4650  0.2860
 3768TIP3    H232796   5.206   3.529  17.017 -0.5698  0.9195 -1.9068
 3769TIP3   OH232797   4.031   2.231   2.275  0.1301  1.1294  0.4815
 3769TIP3    H132798   4.036   2.324   2.257 -0.6972  1.1075  0.0838
 3769TIP3    H232799   3.955   2.221   2.332 -1.3279  0.4538 -1.4508
 3770TIP3   OH232800   4.095   2.804  11.948 -0.1738  0.2082 -0.0748
 3770TIP3    H132801   4.074   2.897  11.939 -2.8023 -0.2041  0.8374
 3770TIP3    H232802   4.014   2.764  11.978  0.7099 -2.5105 -1.0038
 3771TIP3   OH232803   2.361   2.462   1.852  0.2631 -0.2150 -0.3545
 3771TIP3    H132804   2.438   2.428   1.806 -0.6930 -0.2289 -1.9935
 3771TIP3    H232805   2.315   2.383   1.882  0.0110 -0.2632 -0.8592
 3772TIP3   OH232806   5.870   2.658  17.098 -0.0397  0.6286  0.3281
 3772TIP3    H132807   5.921   2.579  17.081  0.3466  0.7121  1.0731
 3772TIP3    H232808   5.792   2.649  17.043 -0.0201 -0.2933  0.4453
 3773TIP3   OH232809   1.462   3.887  16.141  0.4486 -0.9284 -0.2889
 3773TIP3    H132810   1.450   3.839  16.223 -0.8806 -2.7618 -1.4793
 3773TIP3    H232811   1.409   3.966  16.151  2.7532  0.5338  1.7411
 3774TIP3   OH232812   0.080   3.857   1.062  0.1603 -0.4015  0.1092
 3774TIP3    H132813   0.132   3.935   1.083  0.1168 -0.7888  1.7606
 3774TIP3    H232814  -0.011   3.887   1.068  0.1180 -0.7594  1.6564
 3775TIP3   OH232815   1.460   2.038   5.307  0.1585 -0.1419 -0.0135
 3775TIP3    H132816   1.418   1.961   5.344 -2.3997  0.8880 -0.5786
 3775TIP3    H232817   1.540   2.050   5.358  0.2866 -2.7586  0.4885
 3776TIP3   OH232818   2.704   4.632   5.635 -0.1237 -0.1588 -0.0756
 3776TIP3    H132819   2.705   4.548   5.588 -3.0647  0.4384 -1.4466
 3776TIP3    H232820   2.704   4.697   5.565 -1.9489  0.8388  0.7954
 3777TIP3   OH232821   6.579   1.443  15.984  0.5415  1.0284  0.1671
 3777TIP3    H132822   6.645   1.441  15.915 -1.3221  0.8592 -1.6863
 3777TIP3    H232823   6.576   1.353  16.016  1.6140  1.1682  0.7487
 3778TIP3   OH232824   5.809   1.858   6.313  0.0744  0.3368 -0.1848
 3778TIP3    H132825   5.895   1.826   6.287 -0.5358 -0.5925 -1.1698
 3778TIP3    H232826   5.813   1.953   6.302  0.5493  0.1795 -1.5866
 3779TIP3   OH232827   2.332   6.230  13.034 -0.0355  0.0354  0.1967
 3779TIP3    H132828   2.298   6.185  12.957  1.2683  1.5822 -1.3691
 3779TIP3    H232829   2.426   6.212  13.032  0.1387  0.8120  0.9410
 3780TIP3   OH232830   5.345   5.641   2.997  0.4433  0.2099 -0.2532
 3780TIP3    H132831   5.367   5.563   3.048 -0.4383 -0.2689 -0.5953
 3780TIP3    H232832   5.399   5.710   3.037 -0.6179 -0.0201  1.7179
 3781TIP3   OH232833   3.338   0.875  14.698 -0.1174  0.0456 -0.1602
 3781TIP3    H132834   3.364   0.936  14.766 -0.3250  0.1656 -0.1875
 3781TIP3    H232835   3.340   0.927  14.617 -1.7155  0.4185  0.0100
 3782TIP3   OH232836   2.242   6.304   5.298  0.1607  0.0679  0.2312
 3782TIP3    H132837   2.226   6.236   5.363  1.4172 -0.0876  0.4010
 3782TIP3    H232838   2.177   6.372   5.318 -3.2187 -2.2775 -1.8214
 3783TIP3   OH232839   5.570   2.686   2.484 -0.3731 -0.4113 -0.1399
 3783TIP3    H132840   5.613   2.640   2.412 -0.7081 -1.1000  0.0996
 3783TIP3    H232841   5.641   2.732   2.529  0.0269 -1.0530 -0.1071
 3784TIP3   OH232842   0.722   4.841   1.985  0.3768  0.6664  0.0860
 3784TIP3    H132843   0.631   4.869   1.982  0.5200  1.1035 -0.2574
 3784TIP3    H232844   0.753   4.850   1.894  0.4807 -0.4228 -0.0003
 3785TIP3   OH232845   6.044   3.556   5.518  0.2151 -0.0724  0.5239
 3785TIP3    H132846   6.077   3.468   5.500  0.8881  0.0386  1.1635
 3785TIP3    H232847   6.100   3.614   5.467 -0.2508 -0.0141  0.0754
 3786TIP3   OH232848   2.856   4.455   4.693  0.3539  0.2306  0.5728
 3786TIP3    H132849   2.789   4.448   4.625 -1.1015 -0.8642  2.0168
 3786TIP3    H232850   2.839   4.380   4.750  1.8208  0.8406  1.8738
 3787TIP3   OH232851   5.053   0.517   1.792  0.2287 -0.2452  0.0318
 3787TIP3    H132852   5.081   0.495   1.703  1.1986 -0.5090  0.3920
 3787TIP3    H232853   5.135   0.527   1.841 -0.2984 -0.4186  0.9697
 3788TIP3   OH232854   0.702   2.930   2.420 -0.9981  0.0469  0.2243
 3788TIP3    H132855   0.687   2.892   2.506 -1.2323 -0.6449 -0.1173
 3788TIP3    H232856   0.739   2.859   2.368 -2.3811 -0.0246 -0.7144
 3789TIP3   OH232857   1.728   1.089  14.957 -0.8929 -0.4246  0.1081
 3789TIP3    H132858   1.732   1.151  14.884  0.5463 -0.6566 -0.0267
 3789TIP3    H232859   1.763   1.137  15.032 -3.4195  0.2015  0.9838
 3790TIP3   OH232860   3.397   3.670  15.628 -0.0263 -0.0268  0.0941
 3790TIP3    H132861   3.314   3.693  15.585 -0.3353  0.9424  1.1570
 3790TIP3    H232862   3.461   3.667  15.556 -0.9733 -0.8448 -0.7473
 3791TIP3   OH232863   2.629   2.060  14.011 -0.3749  0.0309  0.6497
 3791TIP3    H132864   2.669   1.974  14.024 -1.3451 -0.4261  0.6529
 3791TIP3    H232865   2.542   2.042  13.976  0.0612  1.0762 -1.0790
 3792TIP3   OH232866   4.899   4.151  15.765  0.3320  0.0255  0.0286
 3792TIP3    H132867   4.911   4.101  15.845 -0.6496 -0.5488 -0.1633
 3792TIP3    H232868   4.804   4.157  15.754  0.4379 -0.4413 -1.4054
 3793TIP3   OH232869   2.723   5.347   4.195 -0.4680 -0.4432  0.3167
 3793TIP3    H132870   2.689   5.430   4.228  0.3119  0.0354 -0.0767
 3793TIP3    H232871   2.701   5.347   4.102 -0.2942 -0.5942  0.2750
 3794TIP3   OH232872   5.227   5.835   0.011  0.6101  0.7261 -0.5574
 3794TIP3    H132873   5.138   5.823  -0.021  0.9446 -0.0416 -1.2294
 3794TIP3    H232874   5.283   5.809  -0.063  1.3916 -0.2026  0.3321
 3795TIP3   OH232875   0.875   0.237   5.068  0.1351  0.0915 -0.0252
 3795TIP3    H132876   0.834   0.220   5.153 -0.7348 -0.6352 -0.5770
 3795TIP3    H232877   0.923   0.157   5.048 -1.4658 -0.6062 -1.2241
 3796TIP3   OH232878   4.229   1.419  12.085 -0.3527 -0.1749  0.1383
 3796TIP3    H132879   4.285   1.365  12.029 -0.5886 -0.8760  0.5655
 3796TIP3    H232880   4.236   1.507  12.048 -0.6985 -0.6642 -1.1545
 3797TIP3   OH232881   4.611   2.591   4.750 -0.2542 -0.3102 -0.0607
 3797TIP3    H132882   4.559   2.588   4.669 -1.0425 -1.1567  0.4477
 3797TIP3    H232883   4.682   2.528   4.735  0.2376  0.3361 -0.4939
 3798TIP3   OH232884   3.299   5.994  11.048 -0.3465 -0.0198 -0.4403
 3798TIP3    H132885   3.368   5.928  11.056  1.6243  1.9050 -0.4347
 3798TIP3    H232886   3.301   6.019  10.955  1.5483  2.4994  0.1484
 3799TIP3   OH232887   1.958   5.128   0.353 -0.7650  0.0166  0.5843
 3799TIP3    H132888   1.937   5.200   0.294 -1.5887  0.5670  1.5041
 3799TIP3    H232889   1.898   5.058   0.329  0.7239 -0.7850 -0.9925
 3800TIP3   OH232890   1.206   4.899   4.340 -0.4486 -0.0886  0.6967
 3800TIP3    H132891   1.132   4.883   4.281  0.2141 -2.6149  0.4771
 3800TIP3    H232892   1.173   4.875   4.426 -0.4043  0.5141  0.8890
 3801TIP3   OH232893   3.071   0.779  15.491 -0.3227  0.4468 -0.5288
 3801TIP3    H132894   3.109   0.696  15.519  0.5098  0.8358 -0.4830
 3801TIP3    H232895   3.041   0.821  15.572 -0.0394  0.5345 -0.4690
 3802TIP3   OH232896   4.544   3.255   2.187  0.1976  0.0302 -0.3191
 3802TIP3    H132897   4.528   3.305   2.267 -0.3021 -0.5430 -0.0585
 3802TIP3    H232898   4.637   3.230   2.192  0.2918  0.4004 -0.1585
 3803TIP3   OH232899   6.746   6.767  15.666 -0.2417 -0.1352 -0.2870
 3803TIP3    H132900   6.668   6.812  15.633 -0.1266 -0.1528 -0.5838
 3803TIP3    H232901   6.770   6.706  15.596  0.4286  0.3398 -0.4826
 3804TIP3   OH232902   1.936   4.168   2.070  0.4134 -0.2885 -0.1787
 3804TIP3    H132903   1.989   4.234   2.114 -0.9592  1.2759 -0.7497
 3804TIP3    H232904   1.849   4.178   2.108 -0.3563 -0.2094 -1.8561
 3805TIP3   OH232905   2.431   1.740   4.890 -0.0103  0.2601  0.4170
 3805TIP3    H132906   2.480   1.816   4.920 -2.5797  1.7605  1.0514
 3805TIP3    H232907   2.421   1.754   4.795  1.2548 -0.4127  0.1481
 3806TIP3   OH232908   0.901   3.155   5.343  0.4005  0.4956 -0.3658
 3806TIP3    H132909   0.886   3.128   5.433 -1.5232  0.6796 -0.5789
 3806TIP3    H232910   0.970   3.221   5.349  0.6400  0.1623  0.8999
 3807TIP3   OH232911   1.496   5.571   1.158 -0.0525 -0.2624  0.6529
 3807TIP3    H132912   1.576   5.548   1.110 -0.0410  0.9115  0.0805
 3807TIP3    H232913   1.521   5.642   1.216 -0.7743  0.4424  0.1253
 3808TIP3   OH232914   6.460   3.943  11.370  0.1151  0.8228  0.4556
 3808TIP3    H132915   6.458   3.949  11.274  0.0345  0.6743  0.4465
 3808TIP3    H232916   6.369   3.926  11.394  0.4854 -1.5312  0.3843
 3809TIP3   OH232917   4.176   6.415   5.422 -0.3663 -0.0486 -0.1264
 3809TIP3    H132918   4.133   6.497   5.396  1.3155  0.8376 -0.2703
 3809TIP3    H232919   4.144   6.398   5.510 -1.0042  0.5659 -0.2273
 3810TIP3   OH232920   5.023   6.776  14.528  0.4764  0.4784 -0.3486
 3810TIP3    H132921   4.992   6.807  14.613 -2.2007 -0.1367 -1.0103
 3810TIP3    H232922   5.106   6.732  14.548 -0.3803 -0.2445  2.0822
 3811TIP3   OH232923   6.130   6.118   0.737  0.1678 -0.3787 -0.2653
 3811TIP3    H132924   6.197   6.052   0.720  0.6771  0.3294 -1.1237
 3811TIP3    H232925   6.053   6.088   0.690 -0.0815 -1.1150  0.5913
 3812TIP3   OH232926   2.899   3.089   5.432  0.0999 -0.4159 -0.0076
 3812TIP3    H132927   2.988   3.109   5.403 -0.0800  1.3509  0.5514
 3812TIP3    H232928   2.842   3.144   5.377 -0.5125 -0.1895  0.8311
 3813TIP3   OH232929   1.425   5.798  16.648 -0.1966 -0.8177  0.7567
 3813TIP3    H132930   1.385   5.773  16.564  0.5974  0.8491 -0.1698
 3813TIP3    H232931   1.516   5.818  16.626  0.0072 -0.2971  2.0116
 3814TIP3   OH232932   1.438   6.590  13.653  0.0280 -0.5070  0.2224
 3814TIP3    H132933   1.474   6.564  13.568  2.5420 -1.0600  1.3858
 3814TIP3    H232934   1.502   6.650  13.690 -0.9784 -0.3446  1.7969
 3815TIP3   OH232935   3.665   1.861   3.343  0.3879 -0.2302  0.4895
 3815TIP3    H132936   3.760   1.855   3.353  0.4688 -1.4805 -0.6841
 3815TIP3    H232937   3.632   1.777   3.375 -0.4062  0.4824  1.5905
 3816TIP3   OH232938   2.341   4.954  16.507  0.0424 -0.4425  0.0289
 3816TIP3    H132939   2.325   5.033  16.559 -2.2860  1.7624 -3.6336
 3816TIP3    H232940   2.416   4.975  16.452 -0.5048 -0.8118 -0.8855
 3817TIP3   OH232941   1.226   4.152   1.616 -0.3710  0.3923  0.0559
 3817TIP3    H132942   1.136   4.135   1.643 -0.2385  0.9046  0.8208
 3817TIP3    H232943   1.253   4.071   1.573 -0.7781 -0.2341  0.9467
 3818TIP3   OH232944   5.131   0.309  14.327  0.2135  0.1960 -0.1069
 3818TIP3    H132945   5.183   0.367  14.382  0.4343  0.0348 -0.1447
 3818TIP3    H232946   5.126   0.355  14.243  1.8852 -0.6393 -0.6907
 3819TIP3   OH232947   2.063   3.501  10.575 -0.2125 -0.2970 -0.6380
 3819TIP3    H132948   2.136   3.536  10.628  1.4044 -1.9574 -1.6285
 3819TIP3    H232949   2.017   3.578  10.543  2.3770  0.9439 -1.6520
 3820TIP3   OH232950   1.867   2.051   4.254  0.1406  0.0050 -0.0515
 3820TIP3    H132951   1.823   1.975   4.291 -0.0101 -0.1413 -0.5236
 3820TIP3    H232952   1.877   2.030   4.161 -0.0458  0.6258 -0.2162
 3821TIP3   OH232953   4.156   5.174  14.635  0.7673 -0.1089  0.1638
 3821TIP3    H132954   4.147   5.251  14.578  1.5239  0.9328  1.4071
 3821TIP3    H232955   4.236   5.191  14.685  2.3286 -2.8109 -1.1613
 3822TIP3   OH232956   3.325   3.247   0.607  0.4875 -0.1724  0.3561
 3822TIP3    H132957   3.371   3.325   0.637 -0.0090 -0.4033  1.7683
 3822TIP3    H232958   3.310   3.195   0.686 -0.7543 -0.8748 -0.3013
 3823TIP3   OH232959   4.283   0.230   2.089  0.1723  0.2773  0.3204
 3823TIP3    H132960   4.257   0.317   2.118  0.3126 -0.2363  2.1291
 3823TIP3    H232961   4.215   0.172   2.123  1.0188 -0.5106  0.7082
 3824TIP3   OH232962   5.663   5.469   5.032 -0.0526  0.0390  0.9222
 3824TIP3    H132963   5.589   5.519   5.067 -0.3515 -0.7424  1.4344
 3824TIP3    H232964   5.623   5.390   4.996  0.4131  0.1611  0.1216
 3825TIP3   OH232965   0.886   2.118  15.753 -0.0124  0.1278  0.2418
 3825TIP3    H132966   0.818   2.159  15.700 -0.9161 -1.2131  0.3226
 3825TIP3    H232967   0.961   2.110  15.694  0.1726  1.7579  0.1972
 3826TIP3   OH232968   1.635   1.367   0.309 -0.1990 -0.2837 -0.1252
 3826TIP3    H132969   1.699   1.436   0.293  0.3576 -0.4667  1.1914
 3826TIP3    H232970   1.551   1.412   0.311 -0.0309  0.0826 -1.0524
 3827TIP3   OH232971   4.109   6.350   2.672  0.3453  0.0518 -0.5300
 3827TIP3    H132972   4.066   6.365   2.588  3.8801  0.8786 -2.3836
 3827TIP3    H232973   4.154   6.266   2.662  0.9523  0.2392  0.4600
 3828TIP3   OH232974   3.505   1.085   3.866  0.6024 -0.2794  0.3456
 3828TIP3    H132975   3.457   1.008   3.897 -1.7444  0.3267 -1.4740
 3828TIP3    H232976   3.579   1.048   3.816 -0.8552 -1.4498 -1.0727
 3829TIP3   OH232977   3.323   3.238  11.748  0.0713 -0.3991  0.0224
 3829TIP3    H132978   3.389   3.306  11.756  0.5742 -0.7416 -0.9909
 3829TIP3    H232979   3.264   3.271  11.680 -0.3886 -0.4283  0.4003
 3830TIP3   OH232980   0.203   4.375  15.703 -0.5658  0.0910 -0.4214
 3830TIP3    H132981   0.279   4.433  15.707 -0.5213  0.0413 -0.5500
 3830TIP3    H232982   0.145   4.407  15.771  0.3497 -0.9780  0.9116
 3831TIP3   OH232983   3.803   3.382   4.523  0.0296 -0.0529  0.5438
 3831TIP3    H132984   3.792   3.295   4.486  0.2695  0.1504 -0.0103
 3831TIP3    H232985   3.781   3.442   4.453  1.7971  0.3399  0.2672
 3832TIP3   OH232986   0.872   1.036  16.168 -0.2772 -0.6532  0.1231
 3832TIP3    H132987   0.876   1.131  16.162  0.3224 -0.7138 -0.5146
 3832TIP3    H232988   0.829   1.019  16.252 -0.3443  0.1736  0.2627
 3833TIP3   OH232989   4.714   4.668   1.241 -0.3176  0.1966 -0.5425
 3833TIP3    H132990   4.666   4.655   1.323 -1.1998  0.3254 -1.0218
 3833TIP3    H232991   4.645   4.680   1.175  0.3020 -1.6404 -1.5997
 3834TIP3   OH232992   4.355   6.087   1.853 -0.6182 -0.1658  0.3651
 3834TIP3    H132993   4.397   6.030   1.918 -0.9296 -1.9242 -0.8990
 3834TIP3    H232994   4.370   6.176   1.885  2.8270 -0.7570  0.7347
 3835TIP3   OH232995   3.936   4.613  16.280 -0.2587  0.0118 -0.1970
 3835TIP3    H132996   3.928   4.565  16.197 -1.3815 -1.9055  0.9548
 3835TIP3    H232997   3.850   4.653  16.292 -0.2186 -0.0286  0.2309
 3836TIP3   OH232998   2.500   2.945   1.091  0.1000 -0.1008  0.0635
 3836TIP3    H132999   2.557   3.014   1.123 -1.1823  1.0122  0.0080
 3836TIP3    H233000   2.485   2.967   0.999  0.4244 -0.9736 -0.2091
 3837TIP3   OH233001   0.306   6.596  12.737 -0.7604 -0.0031 -0.0807
 3837TIP3    H133002   0.266   6.607  12.823 -1.3629 -0.3436 -0.3176
 3837TIP3    H233003   0.400   6.593  12.755 -0.9439 -2.1837  0.8210
 3838TIP3   OH233004   6.186   6.769  16.789 -0.3295 -0.2473  0.0441
 3838TIP3    H133005   6.238   6.758  16.710  0.2726  1.8387  0.0965
 3838TIP3    H233006   6.129   6.844  16.770  2.2395  2.6482  2.6858
 3839TIP3   OH233007   2.434   6.459   4.878 -0.1385  0.2782 -0.6221
 3839TIP3    H133008   2.503   6.514   4.915 -0.6091 -0.7574  2.0296
 3839TIP3    H233009   2.390   6.421   4.954 -0.7755 -2.5860 -2.2507
 3840TIP3   OH233010   4.883   6.674  15.222  0.0104 -0.5928  0.3640
 3840TIP3    H133011   4.792   6.705  15.219  0.1965 -0.0856 -1.7493
 3840TIP3    H233012   4.931   6.746  15.263 -0.4322 -0.6143  0.9419
 3841TIP3   OH233013   3.783   0.539   2.571  0.6928 -0.3711 -0.3061
 3841TIP3    H133014   3.758   0.625   2.604  1.8964  0.8241 -2.2601
 3841TIP3    H233015   3.857   0.513   2.627  0.0226 -0.3822  0.5959
 3842TIP3   OH233016   3.289   0.910   4.170  0.1557  0.0713  0.5237
 3842TIP3    H133017   3.326   0.844   4.112  0.5666  0.9939 -0.2921
 3842TIP3    H233018   3.361   0.933   4.230 -0.6098 -1.7536  2.2594
 3843TIP3   OH233019   0.662   3.334  10.778  0.1728  0.2391 -0.1256
 3843TIP3    H133020   0.655   3.335  10.873  1.0894 -0.5689 -0.0418
 3843TIP3    H233021   0.616   3.414  10.750 -0.4039  0.3008  0.9608
 3844TIP3   OH233022   1.532   6.503   4.694 -0.0996 -0.5108 -0.4822
 3844TIP3    H133023   1.556   6.595   4.704 -2.2673  0.0119  0.3577
 3844TIP3    H233024   1.544   6.465   4.780 -1.5698 -0.3818 -0.1958
 3845TIP3   OH233025   0.255   6.171   5.933 -0.3581  0.6648  0.1218
 3845TIP3    H133026   0.330   6.115   5.913 -0.6158  0.0969  0.7186
 3845TIP3    H233027   0.185   6.139   5.876 -0.6392  0.0673  0.7909
 3846TIP3   OH233028   4.964   3.976  15.012  0.2994 -0.2124 -0.2465
 3846TIP3    H133029   4.943   4.020  14.930 -0.3024 -1.4856 -0.8114
 3846TIP3    H233030   5.041   3.923  14.993  0.3304 -0.2952  0.0898
 3847TIP3   OH233031   5.150   2.073  15.832  0.2432 -0.6546 -0.4677
 3847TIP3    H133032   5.223   2.022  15.797  1.3347  1.5239 -1.5146
 3847TIP3    H233033   5.191   2.149  15.874 -1.3511 -0.3311  0.6135
 3848TIP3   OH233034   1.990   4.528  12.997  0.2297  0.4411 -0.3091
 3848TIP3    H133035   2.023   4.474  13.070  1.4103 -0.6210 -1.5513
 3848TIP3    H233036   1.911   4.483  12.968  0.4327  0.1543 -0.4345
 3849TIP3   OH233037   2.184   1.467   3.889  0.4372  0.2140 -0.1162
 3849TIP3    H133038   2.172   1.375   3.865  0.6187  0.5334 -1.4758
 3849TIP3    H233039   2.103   1.491   3.934  1.2295 -1.1974  2.2905
 3850TIP3   OH233040   1.983   3.485  14.028  0.0546  0.3313 -0.3094
 3850TIP3    H133041   2.072   3.452  14.041 -0.0892 -0.1492 -0.5321
 3850TIP3    H233042   1.984   3.572  14.067  0.7818  0.5542 -0.8086
 3851TIP3   OH233043   2.679   1.636  15.088 -0.0821 -0.0646 -0.5461
 3851TIP3    H133044   2.709   1.726  15.077  1.7885 -0.5891 -0.0777
 3851TIP3    H233045   2.665   1.604  14.998 -0.4899  0.5819 -0.7209
 3852TIP3   OH233046   5.222   1.989  11.497  0.1696  0.4567  0.1851
 3852TIP3    H133047   5.188   2.049  11.563 -2.1669 -0.5199 -0.0226
 3852TIP3    H233048   5.144   1.952  11.456  1.5011 -1.9648 -0.3695
 3853TIP3   OH233049   6.341   6.298  15.535  0.0130  0.1046  0.1061
 3853TIP3    H133050   6.430   6.275  15.509 -0.4465 -0.2958 -1.1718
 3853TIP3    H233051   6.288   6.282  15.457 -0.8521  2.5144  0.1355
 3854TIP3   OH233052   5.712   3.774  12.799  0.3346 -0.1064  0.0300
 3854TIP3    H133053   5.695   3.680  12.796 -0.8506  0.0740  0.4185
 3854TIP3    H233054   5.685   3.801  12.887 -0.9835  0.8667 -0.6228
 3855TIP3   OH233055   2.425   3.502  11.378 -0.3713  0.2921  0.4338
 3855TIP3    H133056   2.489   3.450  11.427 -0.7005  0.2439  0.8149
 3855TIP3    H233057   2.343   3.453  11.386 -0.0698 -0.6906 -1.6774
 3856TIP3   OH233058   2.775   1.882   3.711  0.1238 -0.2308 -0.6317
 3856TIP3    H133059   2.720   1.960   3.709  1.2354  0.6858  1.3049
 3856TIP3    H233060   2.714   1.809   3.712 -1.1257  0.7449  1.3678
 3857TIP3   OH233061   3.651   0.696   5.285  0.0928 -0.2294  0.5338
 3857TIP3    H133062   3.638   0.747   5.365 -0.1062 -0.0881  0.4092
 3857TIP3    H233063   3.739   0.719   5.256  0.8346 -1.5184  1.6172
 3858TIP3   OH233064   6.810   5.767   5.196  0.1608  0.2564 -0.5355
 3858TIP3    H133065   6.772   5.693   5.148  1.4854 -1.2273  0.5814
 3858TIP3    H233066   6.839   5.828   5.128 -1.0642 -0.1812 -1.4875
 3859TIP3   OH233067   0.008   2.750  16.939  0.4046 -0.0131  0.3484
 3859TIP3    H133068   0.019   2.764  16.845  0.2456  1.1025  0.4813
 3859TIP3    H233069   0.096   2.733  16.972  0.3175 -1.6641 -0.1672
 3860TIP3   OH233070   3.046   3.699  14.438 -0.3165 -0.3249  0.2625
 3860TIP3    H133071   2.997   3.742  14.508 -1.6343 -1.0371 -0.1826
 3860TIP3    H233072   3.021   3.746  14.358  0.4095 -0.1403  0.1380
 3861TIP3   OH233073   3.638   1.832   0.737 -0.2430 -0.2412 -0.3732
 3861TIP3    H133074   3.633   1.759   0.674 -0.0735 -0.6401  0.0712
 3861TIP3    H233075   3.721   1.817   0.783 -0.8861 -0.5688  0.7008
 3862TIP3   OH233076   3.645   2.410  11.492  0.0610 -0.4271 -0.0147
 3862TIP3    H133077   3.667   2.503  11.487 -1.0493 -0.1388  0.0899
 3862TIP3    H233078   3.577   2.398  11.425 -0.8488 -0.8336  0.9527
 3863TIP3   OH233079   4.492   1.518   3.289  0.0197 -0.1790  0.6116
 3863TIP3    H133080   4.509   1.461   3.364 -0.2778 -2.3096 -0.8560
 3863TIP3    H233081   4.424   1.473   3.239  0.3660  1.0518 -1.0604
 3864TIP3   OH233082   5.866   1.979   3.822 -0.2521 -0.1906  0.4657
 3864TIP3    H133083   5.847   2.021   3.738  0.6969 -0.0359  0.3195
 3864TIP3    H233084   5.943   2.025   3.856 -0.8136 -0.0327  1.5859
 3865TIP3   OH233085   2.117   3.976  12.880  0.2201 -0.1018  0.4640
 3865TIP3    H133086   2.152   4.065  12.872 -2.4098  0.9024 -0.8758
 3865TIP3    H233087   2.185   3.928  12.927  2.8827  1.9331 -1.0274
 3866TIP3   OH233088   5.701   2.641  13.948 -0.5390  0.2047 -0.4030
 3866TIP3    H133089   5.754   2.652  13.869 -0.5906  1.8026 -0.2507
 3866TIP3    H233090   5.732   2.709  14.007 -0.0604 -1.3630  1.2298
 3867TIP3   OH233091   1.150   5.413  14.500  0.1212 -0.1425 -0.3632
 3867TIP3    H133092   1.225   5.354  14.489 -0.5632 -1.2043  0.4596
 3867TIP3    H233093   1.184   5.485  14.553  0.4756 -0.8267  0.3654
 3868TIP3   OH233094   3.821   6.422  12.096  0.0804 -0.1606 -0.1832
 3868TIP3    H133095   3.760   6.348  12.105 -0.2500  0.2102  0.8438
 3868TIP3    H233096   3.864   6.408  12.012 -1.4969 -0.3822 -0.9880
 3869TIP3   OH233097   5.281   0.499  13.707 -0.0299 -0.2788  0.1738
 3869TIP3    H133098   5.281   0.522  13.614  0.9203 -0.1841  0.1913
 3869TIP3    H233099   5.213   0.555  13.745  0.2284  0.3722 -0.3021
 3870TIP3   OH233100   0.637   5.683  11.362 -0.1049 -0.0601  0.2350
 3870TIP3    H133101   0.569   5.620  11.385  0.2865 -0.1349  1.2211
 3870TIP3    H233102   0.593   5.768  11.365  0.3929  0.2232  3.6489
 3871TIP3   OH233103   2.248   5.850  11.345 -0.5347 -0.5807  0.2416
 3871TIP3    H133104   2.339   5.829  11.323 -1.3550 -3.4139 -0.8175
 3871TIP3    H233105   2.230   5.930  11.295  1.0658 -0.5625 -0.3675
 3872TIP3   OH233106   0.465   0.872   2.130 -0.4312 -0.8560 -0.0268
 3872TIP3    H133107   0.422   0.794   2.164 -2.0805  0.3664  0.8044
 3872TIP3    H233108   0.408   0.944   2.155  0.2240  0.4826 -2.1481
 3873TIP3   OH233109   1.114   1.454   3.376 -0.7452  0.5620 -0.2865
 3873TIP3    H133110   1.028   1.483   3.408 -0.6593 -0.0809  0.5324
 3873TIP3    H233111   1.157   1.416   3.452  0.6954  1.7996 -0.4184
 3874TIP3   OH233112   5.494   0.999  15.156 -0.0698  0.2773 -0.5846
 3874TIP3    H133113   5.445   0.920  15.179 -0.4417  0.0290 -2.1156
 3874TIP3    H233114   5.585   0.970  15.151 -0.2631 -0.1978 -1.6353
 3875TIP3   OH233115   5.916   5.595   4.885 -0.2304 -0.1481 -0.7926
 3875TIP3    H133116   5.970   5.643   4.947 -0.3401  1.5431 -1.9606
 3875TIP3    H233117   5.834   5.577   4.933  0.4435 -0.6708  0.1948
 3876TIP3   OH233118   4.083   6.042   4.694 -0.0348 -0.4042 -0.3633
 3876TIP3    H133119   4.074   6.087   4.778  1.4045  0.3869 -0.6026
 3876TIP3    H233120   4.174   6.058   4.668 -0.4266 -0.7004 -2.0285
 3877TIP3   OH233121   5.725   0.405  16.819 -0.4618  0.0347  0.5924
 3877TIP3    H133122   5.656   0.339  16.825  0.4179 -1.1613 -1.4261
 3877TIP3    H233123   5.788   0.380  16.887 -0.5075 -0.7257  0.3563
 3878TIP3   OH233124   2.602   2.169  13.253  0.4365 -0.4574  0.5244
 3878TIP3    H133125   2.600   2.122  13.169 -0.8998 -0.3573  0.4819
 3878TIP3    H233126   2.519   2.217  13.256  1.1289  0.7326  1.2408
 3879TIP3   OH233127   2.143   4.303  12.352 -0.5059  0.0287 -0.2879
 3879TIP3    H133128   2.214   4.366  12.342 -0.9735  0.9338  1.6143
 3879TIP3    H233129   2.162   4.258  12.435 -1.7157 -0.2831 -0.1602
 3880TIP3   OH233130   2.950   6.371  14.337  0.4091  0.6869  0.5165
 3880TIP3    H133131   2.893   6.299  14.364 -0.7893  2.3215  2.7758
 3880TIP3    H233132   2.889   6.439  14.309  1.4059  1.4152  0.0700
 3881TIP3   OH233133   5.004   0.811  14.997 -0.2738  0.5921 -0.1616
 3881TIP3    H133134   5.046   0.882  15.047  2.6466 -2.0889  1.5990
 3881TIP3    H233135   4.927   0.788  15.049  0.7960  0.1361  1.2908
 3882TIP3   OH233136   0.482   1.100  16.863  0.1571  0.4529  0.4559
 3882TIP3    H133137   0.440   1.173  16.909  0.8338  0.4853  1.0393
 3882TIP3    H233138   0.422   1.026  16.875 -1.2699  1.2183 -1.3627
 3883TIP3   OH233139   1.918   3.199  12.977 -0.3684 -0.5068  0.3844
 3883TIP3    H133140   1.988   3.249  12.934 -1.6753 -0.1347 -1.4143
 3883TIP3    H233141   1.915   3.116  12.930 -2.0101  0.0152 -0.5150
 3884TIP3   OH233142   2.973   6.772   4.923  0.0086  0.0298 -0.1301
 3884TIP3    H133143   2.920   6.728   4.989 -0.3227 -0.7731 -0.9085
 3884TIP3    H233144   3.063   6.758   4.952 -0.0774 -1.3186 -0.4204
 3885TIP3   OH233145   6.383   4.253  11.558  0.2320 -0.1925 -0.4559
 3885TIP3    H133146   6.362   4.205  11.478 -0.0126 -1.0882  0.1354
 3885TIP3    H233147   6.473   4.225  11.579  0.6010  0.6622 -0.8523
 3886TIP3   OH233148   5.537   0.844  15.757  0.3264 -0.1449 -0.4761
 3886TIP3    H133149   5.551   0.750  15.749  0.3035 -0.0976 -1.0926
 3886TIP3    H233150   5.491   0.854  15.841 -0.2013 -0.7353 -0.6910
 3887TIP3   OH233151   5.375   4.068  14.831 -0.4420  0.6851 -0.1851
 3887TIP3    H133152   5.426   4.095  14.906 -1.3230  1.4616  0.1508
 3887TIP3    H233153   5.429   4.090  14.755 -0.6945  2.4731  0.1220
 3888TIP3   OH233154   2.711   4.152  14.720  0.1003 -0.6307 -0.3451
 3888TIP3    H133155   2.683   4.244  14.716  1.2061 -0.2982 -0.7093
 3888TIP3    H233156   2.781   4.151  14.784 -1.2700 -1.6166  1.2137
 3889TIP3   OH233157   6.360   5.089  14.906  0.3255 -0.6352 -0.0707
 3889TIP3    H133158   6.292   5.079  14.840  0.2578 -1.3396  0.1052
 3889TIP3    H233159   6.390   5.000  14.924  0.7253 -0.4014  0.4495
 3890TIP3   OH233160   3.996   2.400  13.153  0.1236 -0.8863 -0.2815
 3890TIP3    H133161   3.997   2.459  13.077 -1.4885 -1.8206 -1.0870
 3890TIP3    H233162   4.055   2.329  13.129  1.8190  0.1638  0.5579
 3891TIP3   OH233163   6.569   0.396  12.093  0.6974  0.7846  0.0701
 3891TIP3    H133164   6.551   0.324  12.153 -1.1147  0.1984 -1.0812
 3891TIP3    H233165   6.577   0.473  12.150  0.4594  0.0324  1.1562
 3892TIP3   OH233166   3.287   4.160  12.179  0.6389 -0.2986 -0.4752
 3892TIP3    H133167   3.343   4.182  12.105  0.7385  2.8468  0.4264
 3892TIP3    H233168   3.202   4.140  12.139  1.0169  0.1051 -1.5125
 3893TIP3   OH233169   5.452   2.203   6.081 -1.0065 -0.0312  0.5641
 3893TIP3    H133170   5.496   2.262   6.142  2.1330 -0.7095 -0.8285
 3893TIP3    H233171   5.443   2.120   6.129 -0.4833  0.0437  0.7980
 3894TIP3   OH233172   0.814   0.780  14.350  0.9189  0.1461  0.1433
 3894TIP3    H133173   0.892   0.823  14.386  0.4530 -0.1992  1.5903
 3894TIP3    H233174   0.848   0.704  14.303  1.3725 -0.9428  2.1523
 3895TIP3   OH233175   5.459   4.801  11.996 -0.1293  0.9249 -0.3271
 3895TIP3    H133176   5.516   4.730  12.026 -2.3977 -0.0331  2.1337
 3895TIP3    H233177   5.497   4.880  12.035 -0.5445  0.2598  1.5647
 3896TIP3   OH233178   2.999   2.317  15.416 -0.2749 -0.5325 -0.2152
 3896TIP3    H133179   2.911   2.354  15.416  0.0275  0.3196 -1.9392
 3896TIP3    H233180   2.997   2.247  15.481 -2.3761 -0.8789 -0.5948
 3897TIP3   OH233181   1.767   4.506  16.750 -0.7517 -0.1321  0.2539
 3897TIP3    H133182   1.836   4.544  16.696 -0.6411 -0.4764  0.1540
 3897TIP3    H233183   1.753   4.570  16.820  1.5376 -1.2454  1.8352
 3898TIP3   OH233184   3.979   0.689  10.777  0.6696  0.7569 -0.0103
 3898TIP3    H133185   4.069   0.655  10.774  0.7458  0.9715 -0.2074
 3898TIP3    H233186   3.925   0.618  10.744  0.7839  0.6820 -0.0351
 3899TIP3   OH233187   0.277   1.509   3.601 -0.7424 -0.2679 -0.0145
 3899TIP3    H133188   0.222   1.467   3.535 -0.1305 -2.0754  0.5645
 3899TIP3    H233189   0.358   1.457   3.601  0.0541  0.9338  0.7474
 3900TIP3   OH233190   0.764   0.172  15.284  0.7516  0.3980 -0.0517
 3900TIP3    H133191   0.720   0.141  15.205 -0.9429  1.3990  0.4592
 3900TIP3    H233192   0.752   0.101  15.348 -0.6635  0.8951  0.2588
 3901TIP3   OH233193   1.517   6.169   5.154  0.3068  0.3885  0.1034
 3901TIP3    H133194   1.510   6.120   5.073  1.1343  1.4183 -0.6239
 3901TIP3    H233195   1.427   6.197   5.173  0.3368  1.8120 -1.5672
 3902TIP3   OH233196   0.383   5.839  16.151  0.1867  0.5416 -0.3298
 3902TIP3    H133197   0.382   5.815  16.058 -0.1935 -0.7624 -0.0043
 3902TIP3    H233198   0.353   5.760  16.197 -0.9792  1.5921  0.8020
 3903TIP3   OH233199   6.279   1.215  15.624 -0.2169 -0.1221 -0.0010
 3903TIP3    H133200   6.246   1.208  15.714 -0.1461 -0.0162  0.0341
 3903TIP3    H233201   6.226   1.284  15.584  0.4569  0.5784  0.2834
 3904TIP3   OH233202   5.651   5.716   2.569  0.0814 -0.3747  0.1668
 3904TIP3    H133203   5.621   5.800   2.534 -0.1187  0.1382  1.5035
 3904TIP3    H233204   5.572   5.662   2.569  0.1319 -0.4539 -0.3659
 3905TIP3   OH233205   1.436   4.902   6.463  0.1152  0.2563 -0.3783
 3905TIP3    H133206   1.346   4.894   6.494 -0.6514  0.4614 -2.4152
 3905TIP3    H233207   1.489   4.883   6.541 -1.6245 -3.2439  0.1816
 3906TIP3   OH233208   0.451   2.957  13.544  0.2772 -0.0093  0.2710
 3906TIP3    H133209   0.371   2.998  13.577  0.5576  1.3285 -0.5969
 3906TIP3    H233210   0.500   2.933  13.622  1.1048  3.3692  0.9619
 3907TIP3   OH233211   5.236   3.380  14.841 -0.2581  0.6348  0.0460
 3907TIP3    H133212   5.203   3.409  14.926 -1.0095  1.7634 -0.6069
 3907TIP3    H233213   5.173   3.314  14.812  1.0757 -1.2243  1.2226
 3908TIP3   OH233214   2.251   4.239  16.582  0.2193  0.4479 -0.0623
 3908TIP3    H133215   2.215   4.328  16.574 -1.7135 -0.2575  0.1880
 3908TIP3    H233216   2.339   4.246  16.545 -0.0816  2.3435 -0.5657
 3909TIP3   OH233217   0.839   3.806   1.016  0.0035 -0.3757  0.0225
 3909TIP3    H133218   0.767   3.855   0.976  0.7500  0.4404 -0.3408
 3909TIP3    H233219   0.803   3.718   1.029 -0.6423 -0.3295 -1.3332
 3910TIP3   OH233220   3.496   3.898   0.970  0.0954  0.3011 -0.3501
 3910TIP3    H133221   3.474   3.815   0.928 -0.6343  0.6722 -0.7138
 3910TIP3    H233222   3.566   3.875   1.031  1.7784 -0.1332 -2.3036
 3911TIP3   OH233223   0.249   3.221   1.301 -0.4968  0.7980 -0.5325
 3911TIP3    H133224   0.308   3.289   1.333 -0.2376  0.0757  0.5937
 3911TIP3    H233225   0.307   3.150   1.273 -0.8062  0.3213  0.0127
 3912TIP3   OH233226   1.149   5.247   3.045 -0.3110  0.1847  0.1275
 3912TIP3    H133227   1.112   5.159   3.042 -2.2042  0.9300  0.1966
 3912TIP3    H233228   1.155   5.274   2.953  1.5584 -0.4755  0.0109
 3913TIP3   OH233229   0.573   3.721  17.029  0.1779  0.1936  0.2077
 3913TIP3    H133230   0.492   3.669  17.021 -0.7437  1.3720  1.4374
 3913TIP3    H233231   0.566   3.763  17.115  0.1645  3.5193 -1.2835
 3914TIP3   OH233232   3.740   1.337   3.474  0.3128 -0.1812 -0.0251
 3914TIP3    H133233   3.691   1.374   3.547  1.3978  0.4974  0.3820
 3914TIP3    H233234   3.812   1.289   3.515  1.6417  1.1989 -0.6278
 3915TIP3   OH233235   5.498   3.422  12.117 -0.3039 -0.0202 -0.0228
 3915TIP3    H133236   5.510   3.442  12.024  1.3115 -0.6409  0.0211
 3915TIP3    H233237   5.499   3.326  12.121 -2.5350 -0.0639  0.4010
 3916TIP3   OH233238   5.355   5.479  12.767 -0.3917 -0.8494  0.3708
 3916TIP3    H133239   5.294   5.472  12.695 -0.1085  1.8638 -0.2433
 3916TIP3    H233240   5.440   5.454  12.729 -0.2179  0.6993 -0.3448
 3917TIP3   OH233241   2.883   5.658  16.436 -0.4735  0.2284 -0.0822
 3917TIP3    H133242   2.919   5.725  16.378  0.3495 -0.7388 -0.7229
 3917TIP3    H233243   2.788   5.661  16.421 -0.2213 -0.7514 -2.3878
 3918TIP3   OH233244   2.565   3.726  12.900 -0.4054  0.3820 -0.6291
 3918TIP3    H133245   2.630   3.731  12.970 -0.0204  1.1789 -1.0318
 3918TIP3    H233246   2.543   3.817  12.881 -0.9164  0.1530 -1.1700
 3919TIP3   OH233247   1.985   1.764   0.222  0.1044 -0.4096  0.1806
 3919TIP3    H133248   2.014   1.739   0.134 -3.1467 -1.0760 -0.8496
 3919TIP3    H233249   1.992   1.859   0.223  0.8390 -0.4450 -0.5367
 3920TIP3   OH233250   6.428   4.031   5.102 -0.1545 -0.2870  0.0531
 3920TIP3    H133251   6.470   4.090   5.164 -1.1980 -0.5501  1.0372
 3920TIP3    H233252   6.359   4.084   5.062 -1.3024 -0.8950  1.1703
 3921TIP3   OH233253   4.445   4.420  11.005  0.5414  0.1665 -0.8141
 3921TIP3    H133254   4.528   4.426  10.957 -0.2735 -0.2495 -2.3164
 3921TIP3    H233255   4.411   4.509  11.004  1.0714  0.3894  0.0237
 3922TIP3   OH233256   0.297   5.533  12.050  0.2357  0.8680 -0.4365
 3922TIP3    H133257   0.254   5.571  12.126  0.6766  3.9613 -1.5638
 3922TIP3    H233258   0.389   5.556  12.061  0.3593  1.0512 -1.6853
 3923TIP3   OH233259   2.373   0.315   4.758  0.0033  0.2212 -0.3644
 3923TIP3    H133260   2.392   0.400   4.719  0.1864  0.7545  0.8686
 3923TIP3    H233261   2.312   0.333   4.829  0.1619 -0.6603  0.0119
 3924TIP3   OH233262   1.913   5.643   0.033 -0.4845  0.6318  0.1642
 3924TIP3    H133263   1.965   5.717   0.003 -0.2183  0.3282 -0.1242
 3924TIP3    H233264   1.869   5.675   0.113  0.9743  0.5502  1.0308
 3925TIP3   OH233265   6.626   3.994  13.426 -0.0348 -0.2579  0.5988
 3925TIP3    H133266   6.714   3.986  13.390 -0.6765 -0.2496 -1.0612
 3925TIP3    H233267   6.638   4.035  13.512  1.5495 -0.0285  0.2888
 3926TIP3   OH233268   5.264   1.413  13.160  0.6006 -0.2104 -0.4480
 3926TIP3    H133269   5.326   1.341  13.167  0.2165 -0.8176 -2.7395
 3926TIP3    H233270   5.192   1.379  13.107 -0.1591  1.4904 -0.5886
 3927TIP3   OH233271   5.036   3.169   2.416  0.3152 -0.5750  0.0683
 3927TIP3    H133272   4.942   3.165   2.435  0.6583 -0.5471  1.9034
 3927TIP3    H233273   5.078   3.152   2.500  1.9661  1.9927 -0.1395
 3928TIP3   OH233274   1.827   1.171   3.613 -1.1658 -0.0868  0.4451
 3928TIP3    H133275   1.911   1.134   3.637 -0.6699  1.2006  0.7781
 3928TIP3    H233276   1.811   1.240   3.678 -2.1861  0.0906  0.0351
 3929TIP3   OH233277   5.030   6.115  14.868 -0.3767  0.4575  0.8999
 3929TIP3    H133278   5.054   6.146  14.956  1.5729 -0.4147  0.7210
 3929TIP3    H233279   5.075   6.032  14.859 -0.4109  0.6038 -1.0021
 3930TIP3   OH233280   0.395   1.063  14.986  0.6137  0.7204 -0.0803
 3930TIP3    H133281   0.461   1.010  14.941  0.0298  0.2009 -0.3345
 3930TIP3    H233282   0.355   1.114  14.915  0.2278  0.4773 -0.0366
 3931TIP3   OH233283   6.701   3.724  12.023 -0.5510  0.2830 -0.0165
 3931TIP3    H133284   6.670   3.754  11.938 -1.1360 -0.3468 -0.0337
 3931TIP3    H233285   6.726   3.804  12.069 -0.0284  0.6069 -0.8572
 3932TIP3   OH233286   4.396   0.262   4.039  0.1930  0.3140 -0.1917
 3932TIP3    H133287   4.481   0.248   3.997  0.4701  0.4087  0.3193
 3932TIP3    H233288   4.335   0.277   3.967  0.5694  0.0251 -0.5753
 3933TIP3   OH233289   6.423   4.710   6.575  0.0822 -0.5861 -0.4410
 3933TIP3    H133290   6.477   4.762   6.514  0.8829  0.3505  1.0078
 3933TIP3    H233291   6.482   4.642   6.607 -0.0858 -0.5584 -0.0731
 3934TIP3   OH233292   4.748   6.314  14.319  0.0883 -0.1919 -0.0429
 3934TIP3    H133293   4.752   6.337  14.226 -0.6100 -0.4069 -0.1283
 3934TIP3    H233294   4.725   6.395  14.363 -2.0912 -0.6011 -0.3153
 3935TIP3   OH233295   3.656   3.020  13.001  0.2163  0.0965 -0.1495
 3935TIP3    H133296   3.575   3.000  12.953 -0.2720  1.3305  0.1105
 3935TIP3    H233297   3.630   3.087  13.064  1.6894  1.4730 -0.9221
 3936TIP3   OH233298   3.259   1.749   3.718  0.5663 -0.5958 -0.0159
 3936TIP3    H133299   3.280   1.817   3.654  0.7208 -1.6008 -1.0613
 3936TIP3    H233300   3.171   1.721   3.696  1.7515 -3.2228 -1.9733
 3937TIP3   OH233301   2.829   1.857   0.317  0.2962 -0.5414 -0.0026
 3937TIP3    H133302   2.845   1.873   0.410 -0.1638 -0.1645  0.0133
 3937TIP3    H233303   2.738   1.830   0.312  0.3486 -0.6639 -0.3321
 3938TIP3   OH233304   4.036   5.257  13.487  0.1470  0.0004 -0.5879
 3938TIP3    H133305   4.125   5.246  13.453  0.2295  1.4193 -0.9157
 3938TIP3    H233306   3.980   5.222  13.418  0.4163  0.5707 -1.1139
 3939TIP3   OH233307   2.078   1.338   0.378  0.5815 -0.2681 -0.6698
 3939TIP3    H133308   1.992   1.357   0.417 -0.0312  0.1663 -2.1501
 3939TIP3    H233309   2.108   1.423   0.345  0.3149 -0.8510 -2.5433
 3940TIP3   OH233310   3.237   3.547   6.026 -0.6682  0.1894  0.5523
 3940TIP3    H133311   3.331   3.542   6.042 -0.3504  1.5880 -0.5972
 3940TIP3    H233312   3.197   3.516   6.107  0.7580 -1.5169  0.6680
 3941TIP3   OH233313   3.967   4.304   6.453 -1.1947  0.4090 -0.4284
 3941TIP3    H133314   3.887   4.355   6.463 -1.1623  0.7020 -1.5098
 3941TIP3    H233315   3.944   4.216   6.484 -1.8757  0.5412 -0.5465
 3942TIP3   OH233316   0.851   2.624   0.414 -0.1986  0.9791  0.2406
 3942TIP3    H133317   0.937   2.606   0.376 -0.3528 -0.3989  0.4862
 3942TIP3    H233318   0.810   2.686   0.354  1.1900  2.1679  0.4553
 3943TIP3   OH233319   3.892   4.290  11.462 -0.5382 -0.1790 -0.6563
 3943TIP3    H133320   3.985   4.268  11.458  0.1642  1.9881  1.4935
 3943TIP3    H233321   3.886   4.374  11.417 -1.1776  0.4095  0.4985
 3944TIP3   OH233322   5.757   6.178  11.108 -0.2487 -0.3512  0.1825
 3944TIP3    H133323   5.791   6.203  11.194  0.0619 -0.8229  0.1995
 3944TIP3    H233324   5.662   6.169  11.122 -0.1938 -0.4734  0.4880
 3945TIP3   OH233325   2.350   1.739  13.983  0.4935  0.0731 -0.2980
 3945TIP3    H133326   2.276   1.684  13.957  1.0768  0.1193 -2.1585
 3945TIP3    H233327   2.421   1.678  14.000  0.8504  0.1736 -1.3755
 3946TIP3   OH233328   4.289   6.163  15.808  0.2074 -0.9497  0.6294
 3946TIP3    H133329   4.256   6.191  15.723  0.3371 -0.6147  0.6858
 3946TIP3    H233330   4.378   6.131  15.790  0.4912 -0.2418  0.7391
 3947TIP3   OH233331   5.438   2.371  13.306 -0.2907 -0.0354  0.7305
 3947TIP3    H133332   5.456   2.392  13.397 -1.1865 -0.8388  1.1143
 3947TIP3    H233333   5.523   2.375  13.262  0.4971 -1.5899  2.0088
 3948TIP3   OH233334   1.610   2.390   5.091  0.2462  0.1465  0.3149
 3948TIP3    H133335   1.527   2.347   5.110 -0.1668  0.6996 -0.2232
 3948TIP3    H233336   1.593   2.483   5.102  0.6143  0.3111 -0.4181
 3949TIP3   OH233337   0.994   5.881   0.896 -0.1481  0.1903  0.5442
 3949TIP3    H133338   1.006   5.840   0.810  2.4505 -0.8358  1.2908
 3949TIP3    H233339   1.034   5.967   0.888  1.0030 -0.2879  0.9577
 3950TIP3   OH233340   0.024   2.610   0.250 -0.3601  0.1299  0.5111
 3950TIP3    H133341  -0.062   2.601   0.209  1.1377  1.0420 -3.2352
 3950TIP3    H233342   0.049   2.701   0.233  2.1132 -0.6407 -0.2639
 3951TIP3   OH233343   1.181   4.364   5.912 -0.1120  0.0768 -0.0097
 3951TIP3    H133344   1.256   4.351   5.854 -0.3641 -0.3080 -0.2518
 3951TIP3    H233345   1.184   4.291   5.974 -1.3703 -1.0380 -1.2017
 3952TIP3   OH233346   0.975   3.481   2.254 -0.2041  0.1419 -0.4020
 3952TIP3    H133347   0.918   3.446   2.186  0.7915  0.5147 -1.4651
 3952TIP3    H233348   1.032   3.408   2.278  1.2075  0.6735 -1.9088
 3953TIP3   OH233349   5.015   3.945   4.421 -0.6939 -0.1453 -0.3828
 3953TIP3    H133350   4.995   3.894   4.500  0.3874  1.5675  1.0920
 3953TIP3    H233351   4.974   3.897   4.350 -2.3346 -1.4002  1.3093
 3954TIP3   OH233352   0.040   4.617   1.809  0.6210 -0.5055  0.3538
 3954TIP3    H133353   0.102   4.635   1.880  0.4366 -1.2270  0.7021
 3954TIP3    H233354   0.075   4.666   1.734  2.1587 -1.6526  0.2685
 3955TIP3   OH233355   2.135   5.084   2.061 -0.3884 -0.0855 -0.0448
 3955TIP3    H133356   2.068   5.111   1.998  1.1743  2.6514 -0.7129
 3955TIP3    H233357   2.160   5.165   2.105  1.3203 -1.2932  1.3397
 3956TIP3   OH233358   1.658   6.030  11.411  0.4459 -0.2675 -0.4412
 3956TIP3    H133359   1.646   5.969  11.485 -1.1834  0.2326 -0.2516
 3956TIP3    H233360   1.580   6.017  11.357  1.8095 -0.9260 -2.3363
 3957TIP3   OH233361   0.345   3.602  16.929  0.1857  0.3936 -0.2260
 3957TIP3    H133362   0.338   3.524  16.983  0.9673  0.0273 -0.6316
 3957TIP3    H233363   0.319   3.573  16.842 -1.7212  1.1399  0.0482
 3958TIP3   OH233364   6.262   2.488  12.028 -0.0714 -0.1590  0.5903
 3958TIP3    H133365   6.300   2.484  11.940  0.5974  2.2379  0.7033
 3958TIP3    H233366   6.168   2.476  12.013 -0.0324  0.7282 -0.5307
 3959TIP3   OH233367   4.179   0.628   0.877  0.2563 -0.3286 -0.1730
 3959TIP3    H133368   4.153   0.679   0.954  2.6106  1.3289 -0.3435
 3959TIP3    H233369   4.117   0.654   0.809 -1.6335 -1.5375  0.9859
 3960TIP3   OH233370   0.062   2.344   2.882  0.3154  0.2508  0.3750
 3960TIP3    H133371   0.001   2.274   2.907  0.3729 -0.9033 -2.4025
 3960TIP3    H233372   0.132   2.339   2.947  0.9725 -3.2141 -0.3951
 3961TIP3   OH233373   1.290   1.294  12.863 -0.0213 -0.3603 -0.4000
 3961TIP3    H133374   1.378   1.269  12.836  0.0732 -0.8651  0.3539
 3961TIP3    H233375   1.245   1.212  12.879  0.3592 -0.1231  2.3053
 3962TIP3   OH233376   3.183   6.472   2.640 -0.6111 -0.6425  0.0402
 3962TIP3    H133377   3.118   6.507   2.701  0.3771 -0.3621  0.9630
 3962TIP3    H233378   3.188   6.538   2.571  0.4111  0.5600  1.1933
 3963TIP3   OH233379   3.681   5.427  12.182 -0.3089 -0.0830  0.0674
 3963TIP3    H133380   3.616   5.453  12.116  0.8974  0.3595 -0.9878
 3963TIP3    H233381   3.633   5.428  12.264 -1.1646  2.3402 -0.3681
 3964TIP3   OH233382   5.859   4.163   4.780 -0.4001 -0.1809 -0.2869
 3964TIP3    H133383   5.768   4.135   4.797 -2.4928  3.0715 -4.3305
 3964TIP3    H233384   5.895   4.094   4.724 -0.0740 -1.6761  1.6350
 3965TIP3   OH233385   3.669   0.889   5.494  0.1968  1.1943 -0.3226
 3965TIP3    H133386   3.649   0.978   5.467  1.1015  1.2699 -0.7833
 3965TIP3    H233387   3.598   0.865   5.554 -1.3891  1.3273 -2.0789
 3966TIP3   OH233388   6.434   1.242   2.257 -0.1655 -0.0792 -0.3691
 3966TIP3    H133389   6.404   1.265   2.345 -0.4018  0.0505 -0.4840
 3966TIP3    H233390   6.454   1.326   2.216  0.2191 -0.1556 -0.3422
 3967TIP3   OH233391   1.921   5.926   5.035  0.6079  0.1480 -0.1490
 3967TIP3    H133392   1.874   5.998   4.994  2.1543  1.3058  0.0339
 3967TIP3    H233393   2.012   5.936   5.006  1.3021 -0.3525  1.6896
 3968TIP3   OH233394   3.655   2.998   1.318 -0.4553  0.2336 -0.4754
 3968TIP3    H133395   3.615   2.929   1.265  2.7291 -1.1455 -1.3360
 3968TIP3    H233396   3.697   2.951   1.391 -0.4918  1.5664  0.4381
 3969TIP3   OH233397   6.524   4.539  16.100  0.2947  0.3128 -0.1795
 3969TIP3    H133398   6.556   4.521  16.011 -1.5972  0.2664 -0.8981
 3969TIP3    H233399   6.452   4.478  16.113  0.3862  0.4865  1.3169
 3970TIP3   OH233400   2.045   1.686  14.334  0.7320 -0.7299  0.2836
 3970TIP3    H133401   2.010   1.679  14.423  1.4574 -1.4228  0.5270
 3970TIP3    H233402   2.061   1.779  14.321  0.3791 -0.6000  0.7848
 3971TIP3   OH233403   6.056   3.775  11.736 -0.3984  0.1103 -0.1474
 3971TIP3    H133404   5.963   3.783  11.759 -0.3453  1.3484 -0.2761
 3971TIP3    H233405   6.102   3.788  11.819 -0.3392 -1.3668  0.0787
 3972TIP3   OH233406   0.109   2.964   1.203  0.2850 -0.5930 -0.5782
 3972TIP3    H133407   0.136   2.907   1.276 -0.9952 -1.3432 -0.6571
 3972TIP3    H233408   0.184   3.021   1.188  1.3050 -1.7175  0.0544
 3973TIP3   OH233409   0.425   5.280  14.845 -0.4417 -0.0134  0.0334
 3973TIP3    H133410   0.333   5.284  14.820  0.0776 -0.9177 -2.3144
 3973TIP3    H233411   0.465   5.356  14.802  0.1715 -0.5359 -0.3505
 3974TIP3   OH233412   3.641   3.045   2.754  0.1091 -0.0000 -0.2220
 3974TIP3    H133413   3.725   2.999   2.756  1.5255  2.4232  0.9793
 3974TIP3    H233414   3.647   3.103   2.678  1.1989  2.8199  1.8243
 3975TIP3   OH233415   4.207   4.571   6.105  0.2491 -0.5169 -0.0469
 3975TIP3    H133416   4.132   4.619   6.140  1.1237  0.1476  0.9839
 3975TIP3    H233417   4.252   4.635   6.050  2.3581  0.5037  2.6495
 3976TIP3   OH233418   1.856   1.448   3.981 -0.6198 -0.1059 -0.0703
 3976TIP3    H133419   1.846   1.504   4.058 -1.4157  1.2149 -1.0787
 3976TIP3    H233420   1.850   1.509   3.907 -0.6484 -1.4293 -1.1878
 3977TIP3   OH233421   0.685   5.314   0.653  0.7139 -0.6804  0.5730
 3977TIP3    H133422   0.626   5.239   0.652 -0.1761 -0.0143 -1.0381
 3977TIP3    H233423   0.695   5.338   0.561  0.3689  1.6396  1.0753
 3978TIP3   OH233424   2.753   6.767  12.926 -0.0910 -0.6861  0.0085
 3978TIP3    H133425   2.817   6.756  12.996 -0.4752 -1.4872  0.2434
 3978TIP3    H233426   2.778   6.703  12.859 -0.6399 -1.0091  0.1055
 3979TIP3   OH233427   2.507   2.212  16.091  0.3344  0.1028  0.5502
 3979TIP3    H133428   2.440   2.246  16.151  0.3937  1.5069 -0.1307
 3979TIP3    H233429   2.584   2.266  16.109  0.1608  1.0033 -1.2070
 3980TIP3   OH233430   2.553   6.092   0.647 -0.1334  0.4716  0.3923
 3980TIP3    H133431   2.560   6.174   0.694  0.6407  1.2637 -1.0228
 3980TIP3    H233432   2.581   6.025   0.710 -0.3233  1.3317  1.4144
 3981TIP3   OH233433   4.934   2.773   3.117  0.2698 -0.0233  0.3000
 3981TIP3    H133434   4.897   2.840   3.174 -0.3272 -0.1736  0.0907
 3981TIP3    H233435   4.867   2.705   3.112  0.0761  0.2320 -1.0105
 3982TIP3   OH233436   3.302   3.692  16.264 -0.0151 -0.2233  0.4260
 3982TIP3    H133437   3.334   3.758  16.202 -1.4696 -0.3913 -0.5564
 3982TIP3    H233438   3.333   3.609  16.228 -1.1561 -0.3521 -0.3125
 3983TIP3   OH233439   4.384   1.448   4.799  0.5379 -0.2261  0.2698
 3983TIP3    H133440   4.383   1.482   4.889  1.3106 -0.2520  0.2995
 3983TIP3    H233441   4.409   1.523   4.745 -1.5894  0.2379 -0.1537
 3984TIP3   OH233442   0.803   2.516   6.410 -0.3559  0.8408  0.1723
 3984TIP3    H133443   0.777   2.465   6.486 -0.4071  2.3534  1.2081
 3984TIP3    H233444   0.858   2.456   6.359 -0.6429 -0.3280  1.1763
 3985TIP3   OH233445   6.308   1.239  16.652 -0.0735  0.6966  0.2832
 3985TIP3    H133446   6.238   1.264  16.711 -0.1819  1.6247 -0.2145
 3985TIP3    H233447   6.334   1.321  16.609  1.2357  0.3605  0.3739
 3986TIP3   OH233448   5.462   5.956  11.932  0.5322 -0.7915  0.1121
 3986TIP3    H133449   5.532   5.907  11.975 -1.5423 -2.2178  2.1294
 3986TIP3    H233450   5.381   5.916  11.964 -1.4045  3.4794  1.4668
 3987TIP3   OH233451   1.186   1.292  13.147  0.3029  0.2547  0.2412
 3987TIP3    H133452   1.226   1.327  13.068  1.2232 -0.0295  0.5621
 3987TIP3    H233453   1.133   1.364  13.181  0.3749  0.5746 -0.3093
 3988TIP3   OH233454   1.254   4.102   4.589 -0.0642 -0.4394 -0.3590
 3988TIP3    H133455   1.212   4.020   4.563 -2.1300  1.0952 -2.2213
 3988TIP3    H233456   1.340   4.075   4.623 -1.0293 -3.4149  0.0049
 3989TIP3   OH233457   1.392   1.726   0.532 -0.3205  0.4106  0.3198
 3989TIP3    H133458   1.405   1.799   0.470  1.3809  0.1071  0.2801
 3989TIP3    H233459   1.481   1.698   0.554 -0.9415 -1.9701 -0.0148
 3990TIP3   OH233460   4.258   1.360  15.897 -0.6215 -0.2552 -0.2317
 3990TIP3    H133461   4.317   1.388  15.828 -0.5881 -1.7288 -0.8460
 3990TIP3    H233462   4.314   1.312  15.959 -0.8220  0.1750  0.2882
 3991TIP3   OH233463   0.888   1.313   2.697 -0.0112  0.1424 -0.1174
 3991TIP3    H133464   0.954   1.249   2.670  0.7894  0.8468  0.1401
 3991TIP3    H233465   0.854   1.349   2.615  0.9901  0.8358 -0.2420
 3992TIP3   OH233466   3.740   3.600  15.955  0.3534  0.7009  0.2916
 3992TIP3    H133467   3.653   3.627  15.925  0.4777  0.2439 -0.5034
 3992TIP3    H233468   3.778   3.553  15.881  0.5044 -0.8686  1.2943
 3993TIP3   OH233469   1.725   3.681   0.856  0.4111  0.9774 -0.0620
 3993TIP3    H133470   1.756   3.606   0.806 -0.3081  1.1742 -0.8231
 3993TIP3    H233471   1.637   3.656   0.885  0.5287  1.1643  0.4618
 3994TIP3   OH233472   1.340   2.705  12.536 -0.2105  0.0595 -0.5325
 3994TIP3    H133473   1.254   2.665  12.520 -0.0566 -1.1323  1.2977
 3994TIP3    H233474   1.403   2.637  12.513  0.1295 -0.0459  0.6474
 3995TIP3   OH233475   6.781   5.823  14.829  0.0823 -0.3932 -0.0285
 3995TIP3    H133476   6.779   5.731  14.855  0.7261  0.3402  2.9855
 3995TIP3    H233477   6.822   5.822  14.742  0.5978 -2.8666  0.1595
 3996TIP3   OH233478   5.484   1.085  10.698  0.0194 -0.3229 -0.8927
 3996TIP3    H133479   5.539   1.080  10.776  2.5320 -0.6928 -2.5828
 3996TIP3    H233480   5.418   1.151  10.720 -1.2379 -2.4050  2.5660
 3997TIP3   OH233481   2.723   6.587  13.715  0.3668 -0.4871 -0.5300
 3997TIP3    H133482   2.763   6.507  13.749  1.3014  0.5152  0.8249
 3997TIP3    H233483   2.787   6.655  13.733 -1.6599  1.1002  1.2270
 3998TIP3   OH233484   1.932   2.549  13.163  0.0096  0.0206  0.9611
 3998TIP3    H133485   1.975   2.631  13.137 -0.9669  0.3721  0.3927
 3998TIP3    H233486   1.920   2.557  13.257 -0.1110  0.5662  0.9030
 3999TIP3   OH233487   5.214   4.640   3.171  0.2489 -0.6188 -0.2423
 3999TIP3    H133488   5.152   4.701   3.212  0.1018 -0.5829 -0.5128
 3999TIP3    H233489   5.297   4.686   3.172  0.1533 -0.4391 -0.3791
 4000TIP3   OH233490   6.359   2.464  15.744 -0.1018 -0.6152 -0.0882
 4000TIP3    H133491   6.437   2.473  15.799 -0.2150 -0.5242  0.0610
 4000TIP3    H233492   6.365   2.376  15.708  0.2411 -0.4894 -0.3435
 4001TIP3   OH233493   6.172   2.681  16.791  0.1124  0.1079  0.1269
 4001TIP3    H133494   6.199   2.763  16.833 -1.9233  0.5313  0.7232
 4001TIP3    H233495   6.213   2.613  16.844 -1.2697  0.6801  2.0409
 4002TIP3   OH233496   0.533   0.932  13.501 -0.0790  0.4866  0.1878
 4002TIP3    H133497   0.578   0.915  13.584 -1.9553 -0.2541  1.1121
 4002TIP3    H233498   0.486   1.014  13.515 -0.0310  0.6057 -0.3264
 4003TIP3   OH233499   1.407   6.588   5.552 -0.4245  0.6104 -0.1475
 4003TIP3    H133500   1.391   6.682   5.542  0.5913  0.7795 -0.3348
 4003TIP3    H233501   1.440   6.579   5.641 -1.0785  0.3367  0.0748
 4004TIP3   OH233502   1.923   2.206  13.705 -0.0699 -0.2341 -0.3800
 4004TIP3    H133503   1.985   2.207  13.632 -0.1865  1.9659 -0.4967
 4004TIP3    H233504   1.890   2.116  13.706  2.1187 -1.1162 -1.1420
 4005TIP3   OH233505   3.929   2.695   2.073  0.3605  0.6308  0.2600
 4005TIP3    H133506   3.944   2.679   1.979  1.2734 -0.2450  0.5377
 4005TIP3    H233507   3.851   2.644   2.094 -0.8420  2.1468 -0.3652
 4006TIP3   OH233508   5.447   1.047   1.375 -0.3835  0.2170 -0.0790
 4006TIP3    H133509   5.446   1.142   1.386  0.3238  0.1715  0.4853
 4006TIP3    H233510   5.372   1.028   1.319 -0.4201  1.1250 -0.3481
 4007TIP3   OH233511   3.538   2.421  13.187 -0.7270  0.5014  0.2725
 4007TIP3    H133512   3.472   2.443  13.253 -0.3032  0.5015  0.6988
 4007TIP3    H233513   3.490   2.370  13.122 -0.6561 -1.6217  1.7844
 4008TIP3   OH233514   3.806   0.472  15.562 -0.3124  0.0859  0.3432
 4008TIP3    H133515   3.848   0.432  15.486  0.2339 -0.0010  0.6872
 4008TIP3    H233516   3.722   0.426  15.570  0.7387 -1.7508  1.3630
 4009TIP3   OH233517   4.811   3.544   6.944  0.2746 -0.2315 -0.6030
 4009TIP3    H133518   4.740   3.512   6.888 -0.1489 -1.6460  0.6894
 4009TIP3    H233519   4.883   3.483   6.930  0.0436 -0.8198  0.6283
 4010TIP3   OH233520   1.947   6.785  16.248 -0.3681  0.7081  0.6675
 4010TIP3    H133521   1.953   6.698  16.288  1.8063  0.1560 -0.6531
 4010TIP3    H233522   1.867   6.823  16.284 -1.0778 -1.6061  1.7328
 4011TIP3   OH233523   4.006   4.710   0.074 -0.1536 -0.0032 -0.3112
 4011TIP3    H133524   3.924   4.737   0.116  0.0836 -0.5936  0.5485
 4011TIP3    H233525   4.075   4.746   0.129  0.1630 -1.2976  0.1654
 4012TIP3   OH233526   6.544   1.753   3.011  0.1167 -0.2490 -0.2895
 4012TIP3    H133527   6.513   1.836   2.975  0.5294  0.7207  1.5038
 4012TIP3    H233528   6.499   1.744   3.094  1.1599 -1.1014  0.2103
 4013TIP3   OH233529   4.936   0.433   5.467  0.6167  0.2101 -0.1697
 4013TIP3    H133530   5.024   0.437   5.504  0.0434 -2.6926  1.8404
 4013TIP3    H233531   4.879   0.454   5.542 -0.4505  0.1275 -0.9422
 4014TIP3   OH233532   0.272   4.784  16.727  0.0105  0.0813 -0.0094
 4014TIP3    H133533   0.361   4.818  16.722 -0.6010  1.5416 -2.4128
 4014TIP3    H233534   0.282   4.689  16.723  1.4102  0.2633 -3.0776
 4015TIP3   OH233535   1.167   5.254   3.334 -0.0752 -0.4159 -0.1472
 4015TIP3    H133536   1.179   5.241   3.240 -0.0467 -1.0296 -0.0635
 4015TIP3    H233537   1.255   5.264   3.368 -0.0139 -1.1606 -0.0589
 4016TIP3   OH233538   0.785   3.975  15.139 -0.3036 -0.1173 -0.4352
 4016TIP3    H133539   0.842   3.898  15.135 -0.7491 -0.3843 -2.3630
 4016TIP3    H233540   0.807   4.026  15.061  0.7980  2.3575  1.3659
 4017TIP3   OH233541   5.321   6.365  14.351 -0.3963 -0.2678 -0.6274
 4017TIP3    H133542   5.344   6.361  14.259 -0.1747  0.9335 -0.6498
 4017TIP3    H233543   5.231   6.333  14.355 -0.0673 -1.2800 -1.1003
 4018TIP3   OH233544   2.146   0.193   0.665 -0.2138  0.0695 -0.0171
 4018TIP3    H133545   2.051   0.186   0.662 -0.2497  0.7336 -0.7500
 4018TIP3    H233546   2.173   0.188   0.573  0.3922  0.7458  0.1229
 4019TIP3   OH233547   3.425   4.458   2.703  0.3324 -0.3387  0.2109
 4019TIP3    H133548   3.486   4.395   2.741  0.6257  0.1464  0.5489
 4019TIP3    H233549   3.347   4.453   2.759  0.7479  0.3445  0.8647
 4020TIP3   OH233550   1.223   0.384  11.549  0.0449 -0.4397 -0.5346
 4020TIP3    H133551   1.149   0.443  11.535 -0.2245 -0.8793 -1.0026
 4020TIP3    H233552   1.186   0.296  11.543  0.6145 -0.6668 -0.8350
 4021TIP3   OH233553   4.502   3.616   2.792 -0.4521  0.2132  0.3768
 4021TIP3    H133554   4.552   3.540   2.761 -0.7651 -0.4398  1.4185
 4021TIP3    H233555   4.488   3.669   2.713  2.8096  1.0077  0.1930
 4022TIP3   OH233556   3.798   0.539  12.816  0.5882 -0.2201  0.4261
 4022TIP3    H133557   3.765   0.627  12.836  2.7402  0.3708  1.8005
 4022TIP3    H233558   3.867   0.554  12.752 -0.9218 -1.3007 -1.5760
 4023TIP3   OH233559   2.257   2.019  11.422 -0.0918 -0.2564  0.0320
 4023TIP3    H133560   2.349   2.044  11.421 -0.1314  0.1988  2.2986
 4023TIP3    H233561   2.228   2.031  11.331  1.4216  2.1013 -0.2332
 4024TIP3   OH233562   2.150   3.836  11.898  0.0734  0.4741  0.2092
 4024TIP3    H133563   2.066   3.835  11.943  0.0238  2.9490  0.3095
 4024TIP3    H233564   2.214   3.856  11.967  0.1921  2.6875 -0.4642
 4025TIP3   OH233565   3.315   3.181   6.326 -0.1242  0.4386  0.6590
 4025TIP3    H133566   3.403   3.181   6.288 -0.5347 -1.9408 -0.4616
 4025TIP3    H233567   3.328   3.147   6.414 -0.2119 -3.3863 -0.6465
 4026TIP3   OH233568   3.801   4.910  11.875 -0.1345  0.3210  0.0964
 4026TIP3    H133569   3.881   4.924  11.926 -1.2123  0.4162  1.8387
 4026TIP3    H233570   3.832   4.873  11.792  1.6350 -0.5404  1.0795
 4027TIP3   OH233571   4.305   5.528   1.079 -0.0725  0.3404 -0.0341
 4027TIP3    H133572   4.390   5.572   1.076 -0.6202  1.3933 -0.8626
 4027TIP3    H233573   4.305   5.480   1.162  1.4171  0.1216 -0.1429
 4028TIP3   OH233574   4.900   5.808  15.745  0.3653  0.4574 -0.0734
 4028TIP3    H133575   4.849   5.864  15.804 -0.2363  0.0202 -0.1699
 4028TIP3    H233576   4.973   5.777  15.799 -1.3951 -1.7625  1.1823
 4029TIP3   OH233577   5.957   5.475   2.426 -0.0447 -0.1532  0.4247
 4029TIP3    H133578   5.977   5.494   2.517  0.8914  2.6402 -0.2421
 4029TIP3    H233579   5.917   5.556   2.393 -1.5712 -1.5342 -1.3362
 4030TIP3   OH233580   3.220   1.868   3.272  0.1548 -0.2931  0.1258
 4030TIP3    H133581   3.221   1.932   3.201  2.0373 -0.0128  0.3601
 4030TIP3    H233582   3.158   1.903   3.336 -0.6131  0.0708 -0.7927
 4031TIP3   OH233583   1.566   2.768   4.845 -0.5557 -0.0085  0.2087
 4031TIP3    H133584   1.516   2.847   4.827  1.0549  1.0834  0.3208
 4031TIP3    H233585   1.630   2.794   4.911 -0.2725 -1.5236  0.5813
 4032TIP3   OH233586   4.574   2.902  11.693 -0.6095  0.1379 -0.3852
 4032TIP3    H133587   4.565   2.996  11.708 -0.6340  0.1769 -0.6411
 4032TIP3    H233588   4.508   2.862  11.749 -1.1998  0.3216 -0.9505
 4033TIP3   OH233589   6.716   0.126  17.108  0.1372  0.2270  0.0369
 4033TIP3    H133590   6.663   0.065  17.058  1.8137 -1.4183  0.1512
 4033TIP3    H233591   6.678   0.125  17.196 -0.7222  0.4770 -0.3283
 4034TIP3   OH233592   5.607   4.207  11.601  0.5032 -0.5056 -0.9588
 4034TIP3    H133593   5.555   4.129  11.617  1.7648 -1.7143 -2.4745
 4034TIP3    H233594   5.696   4.174  11.587  1.3322  1.3248 -0.3389
 4035TIP3   OH233595   3.211   0.109   2.947 -0.1458 -0.0168 -0.1699
 4035TIP3    H133596   3.263   0.038   2.986 -0.4110  0.2583  0.7058
 4035TIP3    H233597   3.240   0.188   2.992 -0.8394  0.2319 -0.1487
 4036TIP3   OH233598   6.058   1.893   4.832 -0.6021 -0.0344 -0.2944
 4036TIP3    H133599   6.062   1.830   4.760 -3.6824 -1.1798  0.3646
 4036TIP3    H233600   6.105   1.970   4.799  1.6211 -1.9075 -1.8787
 4037TIP3   OH233601   3.756   5.630  12.843 -0.3586  0.0634 -0.7877
 4037TIP3    H133602   3.851   5.637  12.841 -0.4566  1.7661 -0.9183
 4037TIP3    H233603   3.725   5.720  12.848 -1.9680 -0.4659 -0.4376
 4038TIP3   OH233604   2.858   5.810  12.295  0.0469  0.2733 -0.0184
 4038TIP3    H133605   2.843   5.898  12.262 -2.0589 -0.0017  0.0626
 4038TIP3    H233606   2.808   5.805  12.376 -0.1597 -1.0690 -0.1898
 4039TIP3   OH233607   6.245   1.905  11.660 -0.4220  0.2745 -0.3194
 4039TIP3    H133608   6.204   1.854  11.731 -0.1132 -0.1580 -0.4473
 4039TIP3    H233609   6.253   1.993  11.696 -1.3888  0.3451 -0.2625
 4040TIP3   OH233610   0.158   6.571  11.813  0.0435 -0.4839  1.2955
 4040TIP3    H133611   0.206   6.492  11.787  0.7601 -0.8667  3.5550
 4040TIP3    H233612   0.213   6.611  11.881 -0.1934  2.1205  0.0756
 4041TIP3   OH233613   3.982   4.866   1.028 -0.5481 -0.3578 -0.2778
 4041TIP3    H133614   3.986   4.961   1.039  0.2463 -0.4626  0.4435
 4041TIP3    H233615   3.997   4.851   0.934 -2.1266  0.2873 -0.6704
 4042TIP3   OH233616   5.007   0.299   2.112 -0.3875  0.4064 -0.2897
 4042TIP3    H133617   4.959   0.273   2.191  0.1937 -0.9112 -0.3452
 4042TIP3    H233618   4.951   0.365   2.071 -2.9384 -2.0538 -1.0969
 4043TIP3   OH233619   0.178   5.542   0.293  0.2785  0.0613 -0.2573
 4043TIP3    H133620   0.189   5.626   0.338 -1.4134  0.7868 -1.1139
 4043TIP3    H233621   0.211   5.558   0.204  0.8616 -0.4823 -0.1424
 4044TIP3   OH233622   2.733   1.011   4.956 -0.1714  0.4757  0.2662
 4044TIP3    H133623   2.649   1.056   4.966 -1.1486 -1.3882  0.8121
 4044TIP3    H233624   2.760   0.989   5.045 -0.1112 -0.6676 -0.0166
 4045TIP3   OH233625   4.432   3.104  10.876  0.0806  0.6006 -0.0050
 4045TIP3    H133626   4.436   3.124  10.970  0.6018 -2.0733  0.6078
 4045TIP3    H233627   4.446   3.189  10.834  1.1263  1.6807  2.3184
 4046TIP3   OH233628   5.744   3.257   2.147  0.6570  0.4854  0.3955
 4046TIP3    H133629   5.663   3.210   2.163  1.4522 -0.9352  0.4437
 4046TIP3    H233630   5.718   3.335   2.099 -0.7498  0.1664  0.6061
 4047TIP3   OH233631   6.689   2.144  15.966  0.2584 -0.5814  0.1236
 4047TIP3    H133632   6.614   2.086  15.973  1.0030 -1.7563 -1.1908
 4047TIP3    H233633   6.656   2.229  15.996 -2.1380 -0.5998 -2.0840
 4048TIP3   OH233634   2.269   4.933  13.972  0.3790 -0.2670  0.3621
 4048TIP3    H133635   2.336   5.002  13.976  1.3086 -1.1760  1.1498
 4048TIP3    H233636   2.194   4.969  14.020  1.3071 -0.2526  1.8661
 4049TIP3   OH233637   2.485   5.086  13.472 -0.5427 -0.4410 -0.4132
 4049TIP3    H133638   2.476   5.033  13.551  1.2750  0.4404  0.4388
 4049TIP3    H233639   2.422   5.157  13.483  0.1951  0.0711  0.6010
 4050TIP3   OH233640   4.822   1.676  12.962 -0.0382 -0.4658 -0.2122
 4050TIP3    H133641   4.789   1.638  12.881 -1.1126  1.5836 -0.7980
 4050TIP3    H233642   4.890   1.737  12.934 -1.2390  1.1646  0.2363
 4051TIP3   OH233643   1.349   2.078   4.849  0.0634  0.0479  0.5716
 4051TIP3    H133644   1.260   2.046   4.837 -0.0142  0.3902  0.1960
 4051TIP3    H233645   1.341   2.146   4.916  0.0404  0.0627  0.5542
 4052TIP3   OH233646   1.138   0.993  16.079  0.1081  0.1803  0.0759
 4052TIP3    H133647   1.190   0.951  16.147  1.5007  1.5089 -0.1235
 4052TIP3    H233648   1.047   0.981  16.108  0.4698 -2.2018  0.4193
 4053TIP3   OH233649   6.021   2.514   5.098 -0.2943  0.8106  0.6035
 4053TIP3    H133650   6.047   2.435   5.145  0.3828  1.5156  1.4720
 4053TIP3    H233651   5.965   2.562   5.160 -1.2573  0.7027 -0.1653
 4054TIP3   OH233652   0.706   5.683  11.667  0.1885  0.4109 -0.3495
 4054TIP3    H133653   0.719   5.675  11.573 -0.7149  2.8019 -0.7335
 4054TIP3    H233654   0.619   5.720  11.677  0.9047  1.8080  1.3296
 4055TIP3   OH233655   3.157   6.823  15.100 -0.2736 -0.2441 -0.5235
 4055TIP3    H133656   3.164   6.904  15.051 -0.4091  0.3827  0.4494
 4055TIP3    H233657   3.222   6.765  15.062  0.8313  0.8223 -0.3167
 4056TIP3   OH233658   3.437   2.756  14.930  0.2125  0.2799  0.4943
 4056TIP3    H133659   3.516   2.781  14.883 -1.0360 -0.5516 -2.2980
 4056TIP3    H233660   3.396   2.839  14.956 -0.1889  0.9487 -2.0382
 4057TIP3   OH233661   1.906   3.041  12.758  0.3878  0.6712 -0.1755
 4057TIP3    H133662   1.924   3.114  12.698  1.3467  0.5134 -0.1019
 4057TIP3    H233663   1.877   2.970  12.701  0.1786  0.8755 -0.3278
 4058TIP3   OH233664   0.691   3.542   3.437 -0.2543  0.0581 -0.4787
 4058TIP3    H133665   0.669   3.580   3.523 -0.5252 -1.5795  0.2208
 4058TIP3    H233666   0.606   3.526   3.396 -0.2118 -0.9668 -0.2013
 4059TIP3   OH233667   5.093   6.497  15.254 -0.1109 -0.2830 -0.0776
 4059TIP3    H133668   5.020   6.559  15.266  1.5976  1.8160  0.1307
 4059TIP3    H233669   5.159   6.525  15.317  1.9025 -0.4433 -2.0012
 4060TIP3   OH233670   0.626   2.112   0.992  0.1027 -0.0092  0.3254
 4060TIP3    H133671   0.621   2.034   0.936 -0.2307  0.2258  0.0171
 4060TIP3    H233672   0.711   2.150   0.971 -0.3812  0.5676 -0.7105
 4061TIP3   OH233673   1.341   0.431   5.735 -0.2592  0.6426  0.4038
 4061TIP3    H133674   1.375   0.502   5.791 -1.8390  1.4774  0.3821
 4061TIP3    H233675   1.246   0.437   5.745 -0.4539 -1.0395 -0.1765
 4062TIP3   OH233676   6.784   3.440  17.138 -0.1573  0.1040 -0.4877
 4062TIP3    H133677   6.742   3.365  17.180 -1.5785  0.8596 -0.5137
 4062TIP3    H233678   6.731   3.457  17.060  1.1428  0.1102 -1.4017
 4063TIP3   OH233679   6.439   3.593  11.179  0.2780 -0.5453  0.1074
 4063TIP3    H133680   6.464   3.637  11.098 -0.0514  0.7732  0.6778
 4063TIP3    H233681   6.515   3.541  11.204  0.8030 -0.0470 -0.4430
 4064TIP3   OH233682   4.612   3.530   5.546 -0.0319  0.2600  0.5124
 4064TIP3    H133683   4.597   3.483   5.628  1.6080 -1.1004  0.1070
 4064TIP3    H233684   4.549   3.492   5.485 -0.5101  0.4868  0.8664
 4065TIP3   OH233685   1.532   1.938   2.035 -0.7416 -0.3270  0.1253
 4065TIP3    H133686   1.584   1.899   2.105 -0.6962 -0.3448  0.0815
 4065TIP3    H233687   1.442   1.937   2.068 -0.7064 -0.2460  0.2237
 4066TIP3   OH233688   0.844   2.953   3.896  0.3658  0.3179 -0.0643
 4066TIP3    H133689   0.818   2.860   3.898  0.6485  0.1978 -1.3060
 4066TIP3    H233690   0.842   2.976   3.804  0.5434  1.4955  0.2164
 4067TIP3   OH233691   4.023   6.148   5.439  0.3336  0.2608 -0.1343
 4067TIP3    H133692   4.039   6.191   5.523 -0.8680 -0.7101  0.6382
 4067TIP3    H233693   3.948   6.090   5.455  0.6282 -0.6257 -1.6440
 4068TIP3   OH233694   5.387   5.742  12.848 -0.0385  0.1272 -0.6649
 4068TIP3    H133695   5.358   5.656  12.819  0.3649 -0.3469  0.2862
 4068TIP3    H233696   5.482   5.735  12.852 -0.1131 -0.6232  2.9385
 4069TIP3   OH233697   1.210   4.982  17.210 -0.5734 -0.2967 -0.4914
 4069TIP3    H133698   1.153   4.974  17.286  0.9264 -3.1882  0.4872
 4069TIP3    H233699   1.299   4.979  17.246  0.2594 -4.1271 -2.2670
 4070TIP3   OH233700   1.791   5.296  12.974 -0.3706 -0.6473  0.3945
 4070TIP3    H133701   1.883   5.271  12.977 -0.2251 -0.1805  0.0798
 4070TIP3    H233702   1.753   5.240  12.907  0.2980  0.9710 -1.4538
 4071TIP3   OH233703   3.068   2.508   3.256 -0.5619  0.4562  0.0697
 4071TIP3    H133704   3.071   2.413   3.266  1.2146  0.5145  0.3518
 4071TIP3    H233705   3.143   2.529   3.201 -3.0342  1.3769 -3.3179
 4072TIP3   OH233706   1.735   3.649  16.391 -0.7386  0.2461  0.3504
 4072TIP3    H133707   1.790   3.655  16.313 -0.6334  1.5077  0.4947
 4072TIP3    H233708   1.732   3.739  16.425 -1.3687 -0.1484  1.3925
 4073TIP3   OH233709   2.944   0.834   5.110 -0.4527  0.5524  0.3906
 4073TIP3    H133710   2.912   0.914   5.151 -0.3892  0.7472  0.0699
 4073TIP3    H233711   3.015   0.863   5.052  0.2364  0.1381  1.0062
 4074TIP3   OH233712   6.092   5.608   3.636  0.1600 -0.1115  0.3217
 4074TIP3    H133713   6.109   5.520   3.669  0.7264  0.1560  0.7590
 4074TIP3    H233714   6.087   5.597   3.541  1.0460 -0.4964  0.3084
 4075TIP3   OH233715   0.421   0.102   3.925 -0.4225 -0.2127 -0.7469
 4075TIP3    H133716   0.483   0.041   3.965 -0.0092  0.2743 -0.6468
 4075TIP3    H233717   0.370   0.136   3.998 -0.4802 -0.2360 -0.7758
 4076TIP3   OH233718   2.579   4.996  14.285  0.4512 -0.3461 -0.0392
 4076TIP3    H133719   2.671   5.017  14.300  0.9499 -0.2931 -2.7576
 4076TIP3    H233720   2.580   4.906  14.254 -0.2704  0.0311 -1.2017
 4077TIP3   OH233721   5.712   6.760  16.982 -0.3129  0.0513  0.8826
 4077TIP3    H133722   5.774   6.691  16.959  1.0192  1.2031  0.8758
 4077TIP3    H233723   5.765   6.826  17.027 -1.3689  1.4501  0.1569
 4078TIP3   OH233724   0.960   5.065   1.711  0.3441  0.2511  0.0557
 4078TIP3    H133725   0.927   4.977   1.729  2.1751 -0.2247  1.4061
 4078TIP3    H233726   0.896   5.103   1.651 -0.8326 -1.7588 -0.0534
 4079TIP3   OH233727   3.445   4.442   1.773  0.1887  0.2646  0.7953
 4079TIP3    H133728   3.409   4.471   1.689  0.2759 -0.5770  0.4593
 4079TIP3    H233729   3.539   4.435   1.758  0.2448  0.4305  1.0626
 4080TIP3   OH233730   1.425   1.227  15.168 -0.1500  0.1203  0.0958
 4080TIP3    H133731   1.453   1.144  15.207  0.8254 -0.2191 -1.2347
 4080TIP3    H233732   1.455   1.221  15.077 -2.5459  0.7720 -0.7923
 4081TIP3   OH233733   3.825   2.790  15.885  0.0635  0.4572  0.3493
 4081TIP3    H133734   3.880   2.864  15.862  1.0381 -0.0914  0.8394
 4081TIP3    H233735   3.795   2.809  15.974 -0.8193  0.9036 -0.0301
 4082TIP3   OH233736   3.911   1.203  13.452  0.1183 -0.5607 -0.4840
 4082TIP3    H133737   3.889   1.294  13.433  0.1823  0.0060  1.8527
 4082TIP3    H233738   3.828   1.163  13.479  0.7102 -0.0005  2.5506
 4083TIP3   OH233739   3.225   1.933  13.059 -0.1702 -0.3092 -0.6651
 4083TIP3    H133740   3.158   1.892  13.113  1.1544  0.6289  1.8709
 4083TIP3    H233741   3.225   1.882  12.977 -3.5180 -0.6471 -0.5751
 4084TIP3   OH233742   2.092   6.431  16.983  0.9174  0.0851  0.4080
 4084TIP3    H133743   1.997   6.438  16.995  0.9832  1.5397  0.3414
 4084TIP3    H233744   2.104   6.354  16.929 -0.2105 -0.2537  0.6028
 4085TIP3   OH233745   1.294   0.906  15.859 -0.4028  0.5759  0.2569
 4085TIP3    H133746   1.293   0.819  15.820 -1.3173  0.6682  0.0428
 4085TIP3    H233747   1.227   0.902  15.928 -0.0835  0.9550  0.5972
 4086TIP3   OH233748   0.036   4.954  13.595  0.5985 -0.3628  0.2778
 4086TIP3    H133749   0.071   5.008  13.524  0.1288 -0.9026 -0.3680
 4086TIP3    H233750   0.076   4.868  13.582  1.2033 -0.2412  1.1996
 4087TIP3   OH233751   0.623   0.921   3.607  0.1687  0.3338  0.8146
 4087TIP3    H133752   0.585   0.834   3.619 -1.2790  0.9815  1.1615
 4087TIP3    H233753   0.630   0.932   3.512  0.0696 -0.0448  0.7643
 4088TIP3   OH233754   2.457   3.789  12.248  0.5067  0.1214 -0.0051
 4088TIP3    H133755   2.450   3.850  12.175 -1.0568 -0.3747 -0.3000
 4088TIP3    H233756   2.444   3.703  12.209 -1.4719 -0.0816  0.9707
 4089TIP3   OH233757   0.819   3.867  16.253  0.6704  0.3303 -0.3164
 4089TIP3    H133758   0.844   3.843  16.342  0.6956 -1.2977 -0.7318
 4089TIP3    H233759   0.727   3.891  16.259  0.3375 -0.9567 -0.0423
 4090TIP3   OH233760   1.540   6.046   4.585 -0.1107  0.9014 -0.7538
 4090TIP3    H133761   1.534   5.977   4.519  0.6677  0.6689 -0.5978
 4090TIP3    H233762   1.468   6.028   4.645  1.9608 -1.8098  1.1569
 4091TIP3   OH233763   5.131   2.204   5.696  0.0874 -0.2718  0.2134
 4091TIP3    H133764   5.100   2.126   5.742 -1.0706  0.2803  0.3925
 4091TIP3    H233765   5.184   2.251   5.760 -0.2872 -0.2572  0.5118
 4092TIP3   OH233766   3.458   4.177   4.691  0.0631  0.2055 -0.4035
 4092TIP3    H133767   3.390   4.118   4.724  1.2336 -0.9863 -0.0621
 4092TIP3    H233768   3.479   4.233   4.765 -0.1518  0.1960 -0.3348
 4093TIP3   OH233769   0.966   2.597  17.219 -0.0396  0.8361 -0.3572
 4093TIP3    H133770   0.904   2.526  17.236  1.2729 -0.2854 -0.1261
 4093TIP3    H233771   0.912   2.668  17.183 -1.2289 -0.6242 -1.5610
 4094TIP3   OH233772   4.970   6.237  13.287 -0.2726 -0.3298  0.5114
 4094TIP3    H133773   5.064   6.217  13.289 -0.7352 -2.6452  1.5584
 4094TIP3    H233774   4.931   6.164  13.239 -1.5955  0.4615  0.3485
 4095TIP3   OH233775   4.191   3.950  11.710  0.2614 -0.1301  0.1901
 4095TIP3    H133776   4.131   3.953  11.784 -1.1160  2.4163 -0.9028
 4095TIP3    H233777   4.265   4.003  11.736  1.1402 -1.5736  0.7511
 4096TIP3   OH233778   2.321   0.096  15.057 -0.3175  0.1709  0.2664
 4096TIP3    H133779   2.295   0.133  15.142 -0.0499 -2.1219  1.3995
 4096TIP3    H233780   2.242   0.102  15.003 -0.6888  1.0144  0.8866
 4097TIP3   OH233781   6.711   0.006   3.260 -0.9742  0.3691 -0.6032
 4097TIP3    H133782   6.723  -0.089   3.256 -1.9838  0.2203 -0.2390
 4097TIP3    H233783   6.743   0.030   3.347  2.0318  0.8023 -1.7221
 4098TIP3   OH233784   2.883   0.061  16.585  0.2625  0.0446  0.1718
 4098TIP3    H133785   2.964   0.090  16.544 -0.4044  0.4764 -0.8834
 4098TIP3    H233786   2.850   0.139  16.630  0.5113 -0.1741  0.7385
 4099TIP3   OH233787   1.340   4.921  11.837 -1.4966  0.1091  0.2002
 4099TIP3    H133788   1.365   4.898  11.747 -1.5757  0.2175  0.1511
 4099TIP3    H233789   1.245   4.918  11.837 -1.4981  0.1625  0.2683
 4100TIP3   OH233790   0.083   6.323   3.382  0.0845  0.5216 -0.1288
 4100TIP3    H133791   0.048   6.315   3.471 -1.3268 -2.1316 -0.8095
 4100TIP3    H233792   0.171   6.358   3.393  0.5751 -1.2924  2.4861
 4101TIP3   OH233793   2.136   2.764   3.894 -0.2644  0.2945  0.2238
 4101TIP3    H133794   2.220   2.791   3.930 -0.2177  0.2653  0.1363
 4101TIP3    H233795   2.121   2.821   3.819  0.1204 -0.3162 -0.3265
 4102TIP3   OH233796   3.860   2.890  14.486 -0.5429 -0.7458  0.2684
 4102TIP3    H133797   3.818   2.898  14.400 -0.7869 -0.7555  0.3881
 4102TIP3    H233798   3.788   2.885  14.548 -0.3611  0.0599  0.5492
 4103TIP3   OH233799   3.317   3.686  11.785 -0.0359 -0.3635  0.2889
 4103TIP3    H133800   3.351   3.688  11.696 -0.4736 -1.4926  0.0756
 4103TIP3    H233801   3.303   3.778  11.808  0.9471 -0.0200 -0.4597
 4104TIP3   OH233802   6.604   4.377  12.049  0.1760 -0.2860  0.8899
 4104TIP3    H133803   6.620   4.302  11.991  0.4774 -1.3126  2.2388
 4104TIP3    H233804   6.538   4.429  12.004  0.5931 -0.9020 -0.4910
 4105TIP3   OH233805   3.039   6.090  13.755  0.7950 -0.2451 -0.5786
 4105TIP3    H133806   3.081   6.167  13.794 -0.6080  0.6960 -0.8371
 4105TIP3    H233807   3.025   6.030  13.829  1.0326  0.1670 -0.2006
 4106TIP3   OH233808   1.149   6.600   1.675  0.1731  0.1063  0.3844
 4106TIP3    H133809   1.087   6.582   1.746 -0.2788  2.4527  0.6593
 4106TIP3    H233810   1.230   6.626   1.720 -0.2433  2.0235  0.0996
 4107TIP3   OH233811   2.501   5.422  13.447 -0.0194  0.1494  0.1273
 4107TIP3    H133812   2.587   5.450  13.478 -0.3588 -1.5196  2.9802
 4107TIP3    H233813   2.518   5.365  13.372  1.2606  0.6432  0.0288
 4108TIP3   OH233814   0.587   4.121  13.602 -0.2471  0.4109 -0.6419
 4108TIP3    H133815   0.521   4.076  13.549  1.0838 -1.3836 -0.8621
 4108TIP3    H233816   0.539   4.153  13.679 -1.2281 -1.7957 -0.2626
 4109TIP3   OH233817   6.717   6.468  16.671  0.1579  0.4149  0.1284
 4109TIP3    H133818   6.787   6.471  16.736 -0.1426 -0.4395  0.5098
 4109TIP3    H233819   6.645   6.517  16.711  0.3630  0.8601 -0.0459
 4110TIP3   OH233820   1.805   6.606   3.387  0.1027  0.6947  0.1990
 4110TIP3    H133821   1.757   6.610   3.470  0.5459  0.7421  0.4554
 4110TIP3    H233822   1.896   6.591   3.412 -0.0716 -1.5851 -0.3650
 4111TIP3   OH233823   3.236   1.201  14.858  0.1710 -0.3042 -0.4571
 4111TIP3    H133824   3.324   1.222  14.825  0.8080  0.5573  1.6063
 4111TIP3    H233825   3.252   1.134  14.925 -1.1013 -2.2422 -1.9832
 4112TIP3   OH233826   3.676   0.453  13.755  0.5599  0.0738  0.1882
 4112TIP3    H133827   3.738   0.381  13.748  2.3531  1.4472  0.9739
 4112TIP3    H233828   3.709   0.519  13.693 -1.0732  0.2267 -0.5777
 4113TIP3   OH233829   0.799   4.451  12.863  0.4253 -0.5441  0.2504
 4113TIP3    H133830   0.841   4.366  12.876 -0.3188 -0.8008  1.0515
 4113TIP3    H233831   0.804   4.494  12.948 -0.6223 -0.4447  0.2794
 4114TIP3   OH233832   2.813   3.205  11.386 -0.2062 -0.3770  0.6424
 4114TIP3    H133833   2.759   3.167  11.316 -1.5084 -2.3399  2.5698
 4114TIP3    H233834   2.756   3.269  11.428  1.1304  2.0518 -0.9790
 4115TIP3   OH233835   5.543   5.103   4.511  0.2101 -0.7528  0.0646
 4115TIP3    H133836   5.583   5.070   4.591 -0.2904 -0.9076  0.2538
 4115TIP3    H233837   5.493   5.179   4.539  1.3151  0.1684 -0.3582
 4116TIP3   OH233838   0.578   2.250   1.226  0.3723 -0.1041  0.0452
 4116TIP3    H133839   0.609   2.219   1.141 -1.0296 -2.1211  0.1886
 4116TIP3    H233840   0.502   2.304   1.207 -0.1192 -0.7975  0.0106
 4117TIP3   OH233841   5.125   0.541   1.069 -0.3195 -0.1758 -0.3496
 4117TIP3    H133842   5.154   0.555   1.160  0.2657  1.0087 -0.6984
 4117TIP3    H233843   5.184   0.473   1.036  2.2364  2.1641 -1.0326
 4118TIP3   OH233844   6.551   5.011   1.448 -0.5816  0.5214  0.4432
 4118TIP3    H133845   6.479   5.070   1.430 -1.3708 -1.2055 -3.0258
 4118TIP3    H233846   6.519   4.925   1.421  1.0169 -1.3478  3.7879
 4119TIP3   OH233847   5.742   3.451   1.758  0.5348 -0.1342 -0.2742
 4119TIP3    H133848   5.737   3.539   1.721  1.0217  0.6496  1.4491
 4119TIP3    H233849   5.694   3.396   1.695  0.9129  1.2017 -1.7852
 4120TIP3   OH233850   2.108   6.397   0.488  0.0271  0.1253 -0.2637
 4120TIP3    H133851   2.064   6.341   0.551  0.1631 -0.0605 -0.3301
 4120TIP3    H233852   2.099   6.485   0.522  0.6739 -0.0393  0.3588
 4121TIP3   OH233853   5.112   5.305  14.127 -0.1039  0.6432 -0.2747
 4121TIP3    H133854   5.110   5.239  14.058 -2.4947 -1.0267  1.2316
 4121TIP3    H233855   5.024   5.344  14.125 -0.0220  0.9713  1.4072
 4122TIP3   OH233856   4.875   1.821   0.439 -0.0431  0.1683  0.0253
 4122TIP3    H133857   4.952   1.848   0.489 -0.4155 -0.5942  1.0205
 4122TIP3    H233858   4.911   1.775   0.363  0.4801 -1.0877  1.0100
 4123TIP3   OH233859   1.749   1.536   5.791  0.3845 -0.0433 -0.0153
 4123TIP3    H133860   1.701   1.492   5.861  0.0591 -0.6457 -0.6016
 4123TIP3    H233861   1.691   1.530   5.715  0.0268  2.0353  0.0446
 4124TIP3   OH233862   4.082   1.590   3.087  0.1573  0.1765  0.2164
 4124TIP3    H133863   4.105   1.680   3.066 -2.0172  1.0465  1.2101
 4124TIP3    H233864   4.031   1.560   3.011 -1.5586  0.8249  1.0657
 4125TIP3   OH233865   1.002   4.888   2.050  0.3848  0.0215 -0.0442
 4125TIP3    H133866   1.001   4.932   2.135  0.9149 -2.5422  1.4045
 4125TIP3    H233867   0.913   4.897   2.016 -0.0040  0.5662  1.0841
 4126TIP3   OH233868   4.533   5.127   4.055  0.3160 -0.0979 -0.4951
 4126TIP3    H133869   4.610   5.176   4.026 -1.4593  1.4028 -3.0622
 4126TIP3    H233870   4.558   5.092   4.141  3.3902  1.2943 -0.6858
 4127TIP3   OH233871   1.584   6.017   3.163 -0.0103 -0.3737 -0.0191
 4127TIP3    H133872   1.556   5.972   3.083 -0.3690  1.1528 -0.7940
 4127TIP3    H233873   1.679   6.022   3.156  0.1906 -2.2935  0.8133
 4128TIP3   OH233874   1.902   4.652  16.553  0.0619 -0.7021  0.1217
 4128TIP3    H133875   1.966   4.723  16.557  0.4259 -0.8357 -1.9954
 4128TIP3    H233876   1.831   4.688  16.500 -1.0509 -0.9905  1.3873
 4129TIP3   OH233877   4.543   3.021  15.088 -0.2959  0.3805 -0.0769
 4129TIP3    H133878   4.528   3.104  15.132 -2.4555  0.1798 -0.3677
 4129TIP3    H233879   4.574   2.962  15.157 -0.1069  1.0321  0.4010
 4130TIP3   OH233880   0.400   1.000   5.060  0.3792  0.2641  0.4632
 4130TIP3    H133881   0.474   0.971   5.113 -0.3600  0.2647  1.5477
 4130TIP3    H233882   0.339   0.926   5.060  0.3744  0.2583 -0.4225
 4131TIP3   OH233883   6.619   0.362  14.089  0.4302 -0.2068 -0.3702
 4131TIP3    H133884   6.593   0.380  14.180  2.3515  0.2697  0.1156
 4131TIP3    H233885   6.546   0.396  14.037 -1.9117 -2.7211  1.0113
 4132TIP3   OH233886   6.779   4.759   5.804  0.0460 -0.8641  0.4709
 4132TIP3    H133887   6.831   4.679   5.797  0.9864 -0.2873  0.7586
 4132TIP3    H233888   6.794   4.790   5.893 -1.4539 -1.1128  0.8538
 4133TIP3   OH233889   6.653   6.124  12.999 -0.0238  0.0962  0.0800
 4133TIP3    H133890   6.565   6.101  12.968  0.9993 -1.6562 -1.8109
 4133TIP3    H233891   6.690   6.041  13.030  1.3395  0.5782 -0.1796
 4134TIP3   OH233892   3.331   2.813  16.649 -0.4911 -0.7349 -0.5663
 4134TIP3    H133893   3.284   2.779  16.726 -0.7095  1.7562  0.5045
 4134TIP3    H233894   3.263   2.821  16.582 -1.3665  1.3507  0.4775
 4135TIP3   OH233895   5.519   4.435  13.054  0.4924  0.0777 -0.3050
 4135TIP3    H133896   5.439   4.467  13.013  1.2760  1.3363 -0.9094
 4135TIP3    H233897   5.576   4.412  12.981 -0.0259 -2.8079  0.0907
 4136TIP3   OH233898   5.062   6.394  11.763 -0.7416  0.1623  0.1019
 4136TIP3    H133899   5.039   6.473  11.812 -0.5964  1.4424 -1.7837
 4136TIP3    H233900   5.147   6.413  11.725 -0.3994 -1.1825  0.1490
 4137TIP3   OH233901   5.911   0.863  11.561 -0.1342 -0.0701 -0.8690
 4137TIP3    H133902   5.926   0.912  11.641  0.1327 -0.6091 -0.5795
 4137TIP3    H233903   5.844   0.913  11.514 -0.1555  0.3494 -0.4008
 4138TIP3   OH233904   1.444   6.267   3.069 -0.5009  0.1906  0.0532
 4138TIP3    H133905   1.386   6.217   3.127  0.7660 -0.0537  1.1510
 4138TIP3    H233906   1.529   6.226   3.079  0.2739  1.6841 -0.1155
 4139TIP3   OH233907   5.253   0.933  14.299  0.3357 -0.4565 -0.0749
 4139TIP3    H133908   5.198   0.980  14.361  0.8594 -1.3961  1.1341
 4139TIP3    H233909   5.209   0.945  14.215 -1.3098 -0.5573  0.7227
 4140TIP3   OH233910   0.007   6.073   2.953  0.0513  0.3105 -0.0126
 4140TIP3    H133911  -0.076   6.084   2.998 -0.4178 -0.2601 -0.7088
 4140TIP3    H233912   0.067   6.133   2.997 -0.0874 -0.9761  2.0399
 4141TIP3   OH233913   3.113   4.791   3.695 -0.1513  0.0176 -0.6515
 4141TIP3    H133914   3.123   4.697   3.710 -0.5931  0.0372 -0.2144
 4141TIP3    H233915   3.160   4.808   3.613  0.1183 -0.5438 -0.6139
 4142TIP3   OH233916   6.536   5.019   4.687  0.0035 -0.3280  0.2844
 4142TIP3    H133917   6.619   5.065   4.696  0.5307 -1.5852  2.8396
 4142TIP3    H233918   6.472   5.087   4.666  1.5495  0.7524 -1.1105
 4143TIP3   OH233919   4.532   3.895   3.241 -0.0492  0.2300  0.1270
 4143TIP3    H133920   4.527   3.938   3.156 -0.3697  2.2349  1.0879
 4143TIP3    H233921   4.622   3.909   3.270 -0.2695  0.6349  0.6313
 4144TIP3   OH233922   0.361   5.295  16.974  0.2403  0.4452  0.7128
 4144TIP3    H133923   0.426   5.362  16.950 -0.2379  0.9512  0.8156
 4144TIP3    H233924   0.322   5.328  17.054  0.1142 -0.0470  0.8533
 4145TIP3   OH233925   6.225   3.677   3.522 -0.5363  0.7368 -0.0518
 4145TIP3    H133926   6.200   3.738   3.591 -0.8990 -0.8698  1.2756
 4145TIP3    H233927   6.147   3.626   3.504  0.1103 -0.2425 -0.1834
 4146TIP3   OH233928   4.850   2.994   1.426  0.3584 -0.1913  0.1922
 4146TIP3    H133929   4.912   3.008   1.354  0.2487  2.7560  0.5349
 4146TIP3    H233930   4.902   3.008   1.505 -0.5523  1.6666  0.5038
 4147TIP3   OH233931   6.761   4.209   4.386  0.4141 -0.0230 -0.7858
 4147TIP3    H133932   6.792   4.279   4.328  2.5215  1.0209  1.4215
 4147TIP3    H233933   6.796   4.232   4.472 -1.6063 -2.0979  0.7123
 4148TIP3   OH233934   2.387   3.462  17.221  0.1045 -0.1376  0.4679
 4148TIP3    H133935   2.352   3.425  17.302 -1.5706 -0.4504 -0.3445
 4148TIP3    H233936   2.343   3.546  17.212 -2.2178 -1.4204 -1.6272
 4149TIP3   OH233937   6.072   1.445   4.890 -0.4126 -0.3821 -0.1015
 4149TIP3    H133938   6.120   1.469   4.969 -0.5703 -2.2817  0.6368
 4149TIP3    H233939   5.981   1.469   4.909 -0.3859 -0.4597  0.1258
 4150TIP3   OH233940   5.065   3.853   2.126 -0.5862 -0.8569  0.2193
 4150TIP3    H133941   5.048   3.940   2.162 -0.8160 -0.9941  0.4340
 4150TIP3    H233942   5.111   3.871   2.043  0.2627 -0.5556  0.7453
 4151TIP3   OH233943   2.931   6.662  13.164  0.7784  0.5187  0.1029
 4151TIP3    H133944   2.894   6.598  13.224 -0.0330  0.7168 -0.1759
 4151TIP3    H233945   2.995   6.613  13.112  1.5163  0.3580  1.1427
 4152TIP3   OH233946   4.365   0.592  15.958 -0.0916 -0.6230 -0.0649
 4152TIP3    H133947   4.317   0.572  15.878  0.3026 -1.3801 -0.1176
 4152TIP3    H233948   4.456   0.571  15.938  0.3110  0.9346 -0.0184
 4153TIP3   OH233949   0.506   1.808   2.561  0.3805  0.6511 -0.9780
 4153TIP3    H133950   0.562   1.734   2.583 -0.6150 -0.2355 -1.3605
 4153TIP3    H233951   0.468   1.835   2.645  1.3931  1.3035 -0.7035
 4154TIP3   OH233952   1.780   5.733   2.874  0.3483 -0.0153  0.2349
 4154TIP3    H133953   1.760   5.687   2.792 -0.2914  1.3082 -0.3746
 4154TIP3    H233954   1.754   5.823   2.859 -1.3307 -0.0424  2.4669
 4155TIP3   OH233955   2.155   1.254  15.481  0.3088 -0.4664 -0.0300
 4155TIP3    H133956   2.171   1.348  15.470  0.3687 -0.4169  0.4876
 4155TIP3    H233957   2.107   1.247  15.563  1.7080 -1.0423  0.7519
 4156TIP3   OH233958   0.886   3.145  12.788 -0.1594  0.3579 -0.3468
 4156TIP3    H133959   0.906   3.237  12.769  1.9031 -0.2706 -1.5805
 4156TIP3    H233960   0.800   3.131  12.750  0.1131  1.4438 -1.4274
 4157TIP3   OH233961   5.212   1.723  16.827  0.0577 -0.5085 -0.2024
 4157TIP3    H133962   5.197   1.634  16.860  1.2935 -0.5682  0.2499
 4157TIP3    H233963   5.269   1.763  16.893 -0.6031  0.6769 -0.3282
 4158TIP3   OH233964   2.872   1.121  16.834  0.0270  0.2840  0.0351
 4158TIP3    H133965   2.829   1.063  16.896  0.7031 -0.7250 -0.4132
 4158TIP3    H233966   2.960   1.084  16.823  0.1372  0.8106 -1.0292
 4159TIP3   OH233967   2.593   2.641   5.795 -0.6110 -0.0173  0.5692
 4159TIP3    H133968   2.622   2.732   5.804 -0.8720  0.3385 -1.6384
 4159TIP3    H233969   2.673   2.591   5.783 -0.5635  0.3124 -0.7221
 4160TIP3   OH233970   0.326   2.422  12.825 -0.0242  0.1045  0.1470
 4160TIP3    H133971   0.309   2.494  12.765  2.6110  0.0890 -0.7259
 4160TIP3    H233972   0.344   2.465  12.909  2.6366  0.6718 -0.6107
 4161TIP3   OH233973   0.746   3.557  16.367 -0.4543  0.5112 -0.1210
 4161TIP3    H133974   0.652   3.548  16.377 -0.5371  0.5017 -0.8716
 4161TIP3    H233975   0.759   3.578  16.274  0.3440 -0.3849 -0.2290
 4162TIP3   OH233976   5.645   4.376   3.727  0.0454 -0.0106 -0.1489
 4162TIP3    H133977   5.720   4.408   3.776  0.6347 -2.6367  0.7863
 4162TIP3    H233978   5.677   4.365   3.638  0.5582 -0.4099  0.0846
 4163TIP3   OH233979   3.362   1.748   6.129  0.1795 -0.5874 -0.6880
 4163TIP3    H133980   3.452   1.735   6.100  0.5429 -1.1056  0.6098
 4163TIP3    H233981   3.368   1.812   6.200 -0.1460 -2.3235  1.0039
 4164TIP3   OH233982   1.387   5.561  11.629 -0.2561  0.0792  0.1469
 4164TIP3    H133983   1.431   5.607  11.700  1.3143 -0.6614 -0.3027
 4164TIP3    H233984   1.373   5.473  11.663 -0.0143 -0.1129 -0.2378
 4165TIP3   OH233985   4.367   2.092  16.744 -0.1673  0.2720  0.2959
 4165TIP3    H133986   4.433   2.125  16.683  0.1286 -0.7592  0.0440
 4165TIP3    H233987   4.418   2.042  16.809 -0.6834 -0.3728  0.2077
 4166TIP3   OH233988   3.094   1.631   2.558  0.1043  0.0914  0.1918
 4166TIP3    H133989   3.015   1.607   2.607  0.6788 -0.1520  1.0294
 4166TIP3    H233990   3.143   1.549   2.550  0.3505  0.2741 -0.1800
 4167TIP3   OH233991   3.714   1.837   5.272 -0.6058  0.0645  0.6691
 4167TIP3    H133992   3.668   1.916   5.244  1.5077  0.7632 -1.1044
 4167TIP3    H233993   3.708   1.777   5.198  2.9123  0.9604 -0.5307
 4168TIP3   OH233994   4.151   4.273   0.265  0.1681  0.3301  0.0568
 4168TIP3    H133995   4.078   4.304   0.211  1.0221  1.2773 -0.5971
 4168TIP3    H233996   4.200   4.215   0.207 -0.3252 -0.7205  0.6586
 4169TIP3   OH233997   3.905   6.567  15.125  0.4339  0.2898 -0.2401
 4169TIP3    H133998   3.877   6.478  15.148 -0.5007  0.3557 -1.0670
 4169TIP3    H233999   3.986   6.580  15.175  0.7770 -1.1523 -0.3859
 4170TIP3   OH234000   6.364   4.066  11.941  0.1335 -0.2069 -0.2115
 4170TIP3    H134001   6.357   4.152  11.899  0.9346 -0.6005 -1.1982
 4170TIP3    H234002   6.451   4.035  11.917 -0.9836 -2.3287 -1.9139
 4171TIP3   OH234003   3.586   0.841   0.388 -0.3015  0.3396 -0.2515
 4171TIP3    H134004   3.619   0.757   0.358  0.5184  0.5842 -0.0456
 4171TIP3    H234005   3.664   0.896   0.399 -0.8355  1.1918 -0.5886
 4172TIP3   OH234006   5.010   4.881  12.892  0.1134 -0.2766 -0.4889
 4172TIP3    H134007   5.027   4.902  12.984 -1.4203 -1.2014  0.0405
 4172TIP3    H234008   4.918   4.854  12.890  0.5787 -1.9444 -1.9917
 4173TIP3   OH234009   3.792   0.843  11.954  0.3343  0.1773 -0.5337
 4173TIP3    H134010   3.769   0.934  11.939  1.5404  0.3777 -1.2462
 4173TIP3    H234011   3.786   0.832  12.049  2.2180  1.5900 -0.1965
 4174TIP3   OH234012   1.008   0.758   2.830 -0.4248 -0.1140  0.1836
 4174TIP3    H134013   0.982   0.668   2.808  0.2341 -0.1013 -0.7040
 4174TIP3    H234014   1.070   0.782   2.761 -0.3608  0.9155  0.5910
 4175TIP3   OH234015   5.190   5.458  16.654 -0.3791  0.5594  0.1190
 4175TIP3    H134016   5.107   5.424  16.623  0.0416  0.3549 -0.8033
 4175TIP3    H234017   5.229   5.501  16.578  1.7119 -1.9429 -0.3567
 4176TIP3   OH234018   2.716   5.248  16.676 -0.7286 -0.3698  0.0110
 4176TIP3    H134019   2.631   5.210  16.656 -1.2937  0.9505 -0.2478
 4176TIP3    H234020   2.708   5.340  16.649  1.5825 -0.7355 -2.3595
 4177TIP3   OH234021   3.729   2.153  13.764  0.6127  0.1950 -0.0216
 4177TIP3    H134022   3.684   2.103  13.696  0.7462 -2.2099  1.5396
 4177TIP3    H234023   3.763   2.231  13.718  1.5864 -1.7726 -2.9259
 4178TIP3   OH234024   4.136   2.435   2.998  0.2034 -0.6571  0.6777
 4178TIP3    H134025   4.058   2.485   2.973 -0.7684 -2.1143  0.7204
 4178TIP3    H234026   4.191   2.438   2.921 -0.9666 -1.6435 -0.2312
 4179TIP3   OH234027   4.215   0.130  13.775  0.5688 -0.0738  0.2695
 4179TIP3    H134028   4.214   0.205  13.716 -0.2122 -1.8095 -2.0648
 4179TIP3    H234029   4.199   0.168  13.862 -1.4717  2.2748 -0.9959
 4180TIP3   OH234030   5.451   5.222   2.176 -0.4403  0.1463  0.7391
 4180TIP3    H134031   5.541   5.250   2.195 -0.5786  1.1245  0.0549
 4180TIP3    H234032   5.446   5.221   2.081 -0.7718 -1.2354  0.7523
 4181TIP3   OH234033   4.904   4.483  12.345  0.5906  0.5097  0.5108
 4181TIP3    H134034   4.890   4.452  12.435  0.6427 -1.2764 -0.0609
 4181TIP3    H234035   4.839   4.553  12.334 -1.5820 -1.3011  0.9790
 4182TIP3   OH234036   3.601   5.549  11.963 -0.0488  0.5488 -0.2026
 4182TIP3    H134037   3.526   5.490  11.955  0.6668 -0.7981  1.9540
 4182TIP3    H234038   3.564   5.636  11.956 -1.9231 -0.0761  1.1223
 4183TIP3   OH234039   6.766   0.756   3.918 -0.2584  0.1494 -0.0164
 4183TIP3    H134040   6.712   0.818   3.870 -0.3515  1.0547  1.1950
 4183TIP3    H234041   6.828   0.811   3.967  0.9954 -0.8134 -0.4740
 4184TIP3   OH234042   3.553   2.157   2.173 -0.1098 -0.3838  0.0031
 4184TIP3    H134043   3.460   2.178   2.163  0.2116  1.7747  0.9615
 4184TIP3    H234044   3.593   2.182   2.090 -0.0237  1.2781  0.5042
 4185TIP3   OH234045   3.324   5.795  13.246 -0.5823 -0.0100 -0.2741
 4185TIP3    H134046   3.399   5.738  13.233  0.3728  0.8811  1.0706
 4185TIP3    H234047   3.307   5.791  13.341 -0.9608  1.3529 -0.2656
 4186TIP3   OH234048   4.448   4.181   2.542  0.0166  0.0812 -0.1478
 4186TIP3    H134049   4.431   4.258   2.489  0.9645  0.7052  0.4445
 4186TIP3    H234050   4.382   4.118   2.514 -0.1926  0.7857 -1.2717
 4187TIP3   OH234051   1.071   2.316  11.388 -0.3832 -0.6779 -0.3062
 4187TIP3    H134052   1.032   2.382  11.331  2.0948 -0.5546 -2.0492
 4187TIP3    H234053   1.075   2.358  11.474 -0.0849  0.9418 -1.0746
 4188TIP3   OH234054   0.049   2.210  12.711  0.1861  0.5177 -0.1724
 4188TIP3    H134055   0.132   2.169  12.686  0.1908 -0.0168  0.6672
 4188TIP3    H234056   0.008   2.234  12.628  0.4868 -0.6094 -0.6709
 4189TIP3   OH234057   5.567   4.218   6.213 -0.0743 -0.0177  0.1111
 4189TIP3    H134058   5.542   4.156   6.281  1.0093 -0.6874 -0.0915
 4189TIP3    H234059   5.488   4.271   6.199  0.0755  1.1694  2.9609
 4190TIP3   OH234060   1.952   2.337   4.082  0.2748 -0.1173 -0.3797
 4190TIP3    H134061   1.913   2.272   4.024 -1.6354  1.6188 -1.1755
 4190TIP3    H234062   1.954   2.417   4.030  1.2569  0.8069  1.0122
 4191TIP3   OH234063   2.721   1.013  12.516  0.4314  0.2518  0.2680
 4191TIP3    H134064   2.663   1.081  12.552 -2.8005 -1.9702 -0.3221
 4191TIP3    H234065   2.724   1.031  12.422 -0.1228 -0.1462  0.1655
 4192TIP3   OH234066   3.052   1.510   5.595  0.0103  0.0828 -0.2911
 4192TIP3    H134067   2.988   1.504   5.666  0.7349  0.7904  0.4599
 4192TIP3    H234068   3.001   1.519   5.515 -0.8319 -0.9164  0.1187
 4193TIP3   OH234069   4.868   0.684   3.785 -0.7147 -0.0277  0.3251
 4193TIP3    H134070   4.797   0.694   3.721  0.5750 -1.1513 -1.3971
 4193TIP3    H234071   4.948   0.699   3.734  0.3750 -1.1050  1.6357
 4194TIP3   OH234072   3.504   4.522  15.161 -0.2133  0.2483 -0.1837
 4194TIP3    H134073   3.420   4.561  15.184 -0.3286  0.2731 -0.6233
 4194TIP3    H234074   3.493   4.495  15.070  0.2670  0.2855 -0.2573
 4195TIP3   OH234075   5.665   5.955  12.650 -0.0861  0.1471  0.3063
 4195TIP3    H134076   5.706   6.038  12.626  0.1381 -0.0415  0.0348
 4195TIP3    H234077   5.571   5.976  12.656 -0.3491 -0.1054 -2.1606
 4196TIP3   OH234078   4.767   4.680  13.708  0.5559 -0.0751  0.2603
 4196TIP3    H134079   4.745   4.768  13.677  0.2995 -0.3884 -0.4576
 4196TIP3    H234080   4.856   4.664  13.676  1.2449  0.5339  1.7494
 4197TIP3   OH234081   0.423   0.688   4.474 -0.5192 -0.0740 -0.2481
 4197TIP3    H134082   0.415   0.783   4.483 -3.5717 -0.2822  0.3659
 4197TIP3    H234083   0.352   0.665   4.414  1.8202 -1.7736 -2.6043
 4198TIP3   OH234084   0.934   1.302   1.177 -0.1385 -0.0152 -0.0105
 4198TIP3    H134085   0.850   1.277   1.215  1.1367 -1.7260  1.8803
 4198TIP3    H234086   0.980   1.347   1.247  0.3779  1.3133 -1.1678
 4199TIP3   OH234087   0.762   4.194   4.352  0.2576 -0.3793  0.2409
 4199TIP3    H134088   0.761   4.284   4.319  0.6595 -0.0005  1.2176
 4199TIP3    H234089   0.671   4.165   4.343 -0.0196  0.3632  0.5319
 4200TIP3   OH234090   3.357   6.172  12.898  0.4662 -0.3244  0.0698
 4200TIP3    H134091   3.359   6.143  12.807 -2.0372  0.4169 -0.3080
 4200TIP3    H234092   3.368   6.092  12.949 -1.0147 -1.2271 -0.9378
 4201TIP3   OH234093   6.286   6.160   1.507 -0.0532  0.0188  0.2625
 4201TIP3    H134094   6.321   6.249   1.515 -0.1421  0.0536  0.2680
 4201TIP3    H234095   6.340   6.108   1.566  0.6998 -0.1365 -0.5624
 4202TIP3   OH234096   3.041   0.290  12.540  0.5407  0.4654 -0.8204
 4202TIP3    H134097   3.040   0.302  12.635 -1.6604 -1.8449 -0.4378
 4202TIP3    H234098   3.053   0.196  12.528  0.2747  0.6474 -2.8276
 4203TIP3   OH234099   4.353   3.110  16.711 -0.6762  0.4332  0.7531
 4203TIP3    H134100   4.405   3.153  16.643 -1.7532  0.2443 -0.2141
 4203TIP3    H234101   4.267   3.097  16.671 -1.5937  1.0661  2.4351
 4204TIP3   OH234102   2.123   4.165  17.083 -0.0502  0.3461  0.2055
 4204TIP3    H134103   2.188   4.094  17.080 -0.0967  0.2104  1.6651
 4204TIP3    H234104   2.160   4.233  17.027 -0.2381 -0.9783 -1.6463
 4205TIP3   OH234105   0.629   0.352   1.519 -0.4017  0.3363 -0.0032
 4205TIP3    H134106   0.546   0.397   1.503 -0.0080  0.7123 -1.1220
 4205TIP3    H234107   0.627   0.330   1.612 -1.6519  0.5358  0.0388
 4206TIP3   OH234108   1.889   1.371  13.160  0.1243  0.2354  0.0073
 4206TIP3    H134109   1.917   1.452  13.204 -1.1239  0.3054  0.7475
 4206TIP3    H234110   1.943   1.366  13.081  0.0251  1.9518 -0.2072
 4207TIP3   OH234111   5.268   4.011   6.801 -0.3156  0.5259 -0.7433
 4207TIP3    H134112   5.295   4.103   6.792  0.9000  0.1100 -1.5767
 4207TIP3    H234113   5.237   4.004   6.891 -2.3641  2.2286 -1.2204
 4208TIP3   OH234114   6.424   6.763  13.327 -0.8461  0.3930 -0.1918
 4208TIP3    H134115   6.502   6.710  13.342 -0.2597  1.5026  0.8813
 4208TIP3    H234116   6.448   6.824  13.257 -0.9173  0.4183 -0.1941
 4209TIP3   OH234117   2.049   6.308  15.471  0.0149 -0.0540  0.2049
 4209TIP3    H134118   2.009   6.238  15.419 -1.0601  0.0348  0.9015
 4209TIP3    H234119   2.012   6.389  15.436  0.5535  0.1203  0.0191
 4210TIP3   OH234120   1.298   0.281  11.875  0.1672 -0.2499 -0.5471
 4210TIP3    H134121   1.213   0.303  11.913  1.0604  1.2973  0.6741
 4210TIP3    H234122   1.277   0.254  11.785 -1.5911  0.1441 -0.3039
 4211TIP3   OH234123   4.751   5.355  11.827 -0.5261 -0.1111 -0.3627
 4211TIP3    H134124   4.762   5.438  11.874 -2.4511 -0.0513  0.0483
 4211TIP3    H234125   4.825   5.353  11.766  2.4281 -0.4181  2.8890
 4212TIP3   OH234126   5.073   4.167   2.619 -0.3567 -0.1028  0.6278
 4212TIP3    H134127   5.014   4.216   2.675  0.2674 -0.5355  1.7122
 4212TIP3    H234128   5.077   4.217   2.537 -0.0264  1.4437  1.5518
 4213TIP3   OH234129   3.445   3.245  15.629 -0.1952 -0.0578  0.4320
 4213TIP3    H134130   3.459   3.227  15.722 -0.9521 -0.7177  0.4242
 4213TIP3    H234131   3.401   3.168  15.595  2.0966 -0.8245 -1.0146
 4214TIP3   OH234132   3.761   5.465   4.596 -0.3811  0.1101 -0.1961
 4214TIP3    H134133   3.830   5.492   4.535  0.1281 -0.8984 -0.1000
 4214TIP3    H234134   3.682   5.461   4.542 -0.5963  2.1907 -0.1081
 4215TIP3   OH234135   3.049   2.802   1.272 -0.6258 -0.1108 -0.4508
 4215TIP3    H134136   3.040   2.896   1.285  3.0371  0.6440 -2.1990
 4215TIP3    H234137   3.039   2.791   1.177  1.8029 -0.9655 -0.6664
 4216TIP3   OH234138   4.239   0.536  11.239 -0.1533  0.2236 -0.6397
 4216TIP3    H134139   4.329   0.506  11.247 -0.4189 -0.4585 -0.1711
 4216TIP3    H234140   4.246   0.626  11.209  0.8162  1.6299  3.2446
 4217TIP3   OH234141   6.476   6.155   6.746  0.3608 -0.3671 -0.6297
 4217TIP3    H134142   6.517   6.172   6.830  0.3842 -1.1534 -0.4702
 4217TIP3    H234143   6.391   6.199   6.751  1.1495  1.2391 -0.9504
 4218TIP3   OH234144   2.935   1.506  13.585 -0.1430  0.3768  0.2722
 4218TIP3    H134145   2.972   1.552  13.661 -1.0420  1.5267  0.0325
 4218TIP3    H234146   2.996   1.525  13.514  0.2694 -0.0272  0.5146
 4219TIP3   OH234147   5.322   3.833   5.786 -0.2006 -0.5357  0.1875
 4219TIP3    H134148   5.354   3.919   5.757 -0.0254 -1.0529 -1.2664
 4219TIP3    H234149   5.399   3.791   5.825 -0.0322 -0.4047 -0.0024
 4220TIP3   OH234150   1.552   4.342  16.802 -0.8990  0.1286 -0.4195
 4220TIP3    H134151   1.479   4.404  16.794  0.2559  1.5529 -0.4456
 4220TIP3    H234152   1.630   4.395  16.785  0.2299 -1.0700  0.7935
 4221TIP3   OH234153   4.631   4.295   5.161 -0.3000 -0.3773  0.0477
 4221TIP3    H134154   4.613   4.206   5.129 -2.1969  0.8706 -2.8955
 4221TIP3    H234155   4.545   4.326   5.191  0.4907  0.2581  1.7179
 4222TIP3   OH234156   0.492   0.203  10.949 -0.5304  0.4150  0.3367
 4222TIP3    H134157   0.500   0.117  10.991 -0.8757  0.3327  0.2366
 4222TIP3    H234158   0.544   0.195  10.869 -0.7619  0.2199  0.2049
 4223TIP3   OH234159   4.165   6.313  15.993 -0.0714 -0.2632 -0.2444
 4223TIP3    H134160   4.073   6.288  15.990 -0.4430  0.8794  0.8983
 4223TIP3    H234161   4.208   6.254  15.931 -1.6691 -0.3509 -1.3285
 4224TIP3   OH234162   1.449   4.458  11.765 -0.0956  0.2607  0.3025
 4224TIP3    H134163   1.510   4.419  11.703 -2.0669 -0.9228 -1.0190
 4224TIP3    H234164   1.407   4.529  11.716  0.5665  1.4131  1.3619
 4225TIP3   OH234165   4.011   3.160  15.606 -0.5449 -0.0970  0.0306
 4225TIP3    H134166   4.101   3.131  15.616 -0.8147 -0.9940 -0.0718
 4225TIP3    H234167   3.965   3.084  15.571 -1.2833  0.4417 -0.1917
 4226TIP3   OH234168   5.703   0.284  14.255  0.0936 -0.0444 -0.1859
 4226TIP3    H134169   5.694   0.348  14.185  0.9125  0.5995  0.2762
 4226TIP3    H234170   5.614   0.268  14.285 -0.0710  1.8386  0.5105
 4227TIP3   OH234171   0.775   6.126  16.488 -0.3115 -0.1632 -0.2338
 4227TIP3    H134172   0.790   6.219  16.474 -0.0383 -0.1737 -0.0238
 4227TIP3    H234173   0.839   6.082  16.431 -0.7049 -0.2270 -0.6315
 4228TIP3   OH234174   1.480   0.410   1.597 -0.1332 -0.5634 -0.5401
 4228TIP3    H134175   1.490   0.351   1.672 -0.4387  0.7704  0.5897
 4228TIP3    H234176   1.391   0.396   1.567 -0.8440  0.5990  0.8994
 4229TIP3   OH234177   0.561   6.447   5.123  0.0553  0.5171 -0.5369
 4229TIP3    H134178   0.559   6.518   5.058  0.6763  0.9715 -0.0663
 4229TIP3    H234179   0.621   6.478   5.190 -0.3834 -0.0703  0.1314
 4230TIP3   OH234180   4.384   5.069   0.962 -0.2266  0.2798 -0.7372
 4230TIP3    H134181   4.414   5.048   1.051 -0.4222  1.0388 -0.4802
 4230TIP3    H234182   4.382   4.985   0.916 -2.2824 -0.4654  0.6148
 4231TIP3   OH234183   2.996   2.117   4.545  0.5391  0.3070 -0.6527
 4231TIP3    H134184   3.006   2.193   4.603  1.5089  0.7815 -1.3947
 4231TIP3    H234185   3.078   2.069   4.555 -1.3221 -2.6153  2.3987
 4232TIP3   OH234186   3.184   2.617   3.003 -0.3206  0.8220 -0.1267
 4232TIP3    H134187   3.126   2.544   2.981  2.1584 -0.6433 -2.4643
 4232TIP3    H234188   3.163   2.686   2.940 -0.4844  0.8332 -0.0578
 4233TIP3   OH234189   2.230   5.246   2.322  0.6196 -0.1593  0.6737
 4233TIP3    H134190   2.228   5.151   2.332  0.0524 -0.2757 -0.3945
 4233TIP3    H234191   2.312   5.264   2.276  0.4004 -0.2028  0.2626
 4234TIP3   OH234192   2.384   6.338   5.767 -0.3808  0.1581 -0.0711
 4234TIP3    H134193   2.399   6.306   5.678 -0.6489 -1.3716  0.4052
 4234TIP3    H234194   2.444   6.286   5.821  0.7229  1.9533  0.5308
 4235TIP3   OH234195   5.650   6.363   2.795 -0.0459 -0.2332  0.4168
 4235TIP3    H134196   5.729   6.366   2.741  0.4149  2.1794  1.1003
 4235TIP3    H234197   5.586   6.316   2.741  1.4948 -1.2664 -0.6091
 4236TIP3   OH234198   6.629   3.986   4.815 -0.6471 -0.0255  0.5893
 4236TIP3    H134199   6.556   3.937   4.851 -1.0583  0.2769  0.1732
 4236TIP3    H234200   6.614   4.077   4.843  0.8528 -0.3055  2.5676
 4237TIP3   OH234201   2.708   5.958  11.648 -0.4897  0.2960  0.5568
 4237TIP3    H134202   2.715   6.018  11.574  1.0613  0.2030  0.6159
 4237TIP3    H234203   2.692   5.873  11.609 -0.6838  0.4106  0.3833
 4238TIP3   OH234204   6.550   6.355  12.454 -0.4004 -0.5295 -0.1815
 4238TIP3    H134205   6.625   6.312  12.413  0.2034  0.0789  0.2505
 4238TIP3    H234206   6.474   6.317  12.411  0.2078  0.1957 -1.9809
 4239TIP3   OH234207   5.093   5.416  15.514  0.0148 -0.1478  0.5054
 4239TIP3    H134208   5.172   5.466  15.493  0.0568 -0.5157 -0.2288
 4239TIP3    H234209   5.068   5.446  15.602 -0.7108  2.1402 -0.4127
 4240TIP3   OH234210   4.611   1.109   5.530 -0.3598  0.0027  0.0932
 4240TIP3    H134211   4.581   1.159   5.454  0.4106 -1.2945 -1.0985
 4240TIP3    H234212   4.571   1.154   5.605 -0.4160  1.8643 -0.9796
 4241TIP3   OH234213   2.053   2.919  16.626 -0.6925 -0.0690  0.3628
 4241TIP3    H134214   1.966   2.893  16.656 -0.9104 -2.0620 -1.7590
 4241TIP3    H234215   2.039   3.003  16.582 -1.3439  0.0812  0.8475
 4242TIP3   OH234216   4.351   4.389   3.059  0.2264  0.2707 -0.4926
 4242TIP3    H134217   4.440   4.400   3.025  1.0954 -2.3895  0.6868
 4242TIP3    H234218   4.351   4.302   3.099 -2.5689  0.6980  0.6507
 4243TIP3   OH234219   0.068   3.851  16.996 -0.3362 -0.0771 -0.3556
 4243TIP3    H134220   0.023   3.928  17.031 -0.5809 -0.6068  0.5468
 4243TIP3    H234221   0.065   3.787  17.068  1.9623 -0.0967 -0.2128
 4244TIP3   OH234222   6.607   1.182   1.348  0.8336  0.4081  0.0959
 4244TIP3    H134223   6.702   1.181   1.341  0.8442 -1.7117 -0.1032
 4244TIP3    H234224   6.588   1.123   1.421 -0.3696 -0.4017 -0.8380
 4245TIP3   OH234225   6.628   3.814   6.435 -0.2796 -0.0459 -0.6820
 4245TIP3    H134226   6.551   3.861   6.402  0.3232  1.0557 -0.5598
 4245TIP3    H234227   6.610   3.804   6.529 -0.0151  0.7627 -0.5341
 4246TIP3   OH234228   1.303   2.134  11.417  0.3128  0.3205 -0.0766
 4246TIP3    H134229   1.316   2.107  11.508 -0.1984 -0.9293 -0.3627
 4246TIP3    H234230   1.249   2.213  11.423  0.5212  0.4138  0.7051
 4247TIP3   OH234231   5.007   2.814   5.372 -0.1327  0.4356 -0.3487
 4247TIP3    H134232   5.094   2.847   5.395 -0.2913  0.2262  0.6068
 4247TIP3    H234233   4.959   2.814   5.454 -0.5325 -0.9709 -0.5519
 4248TIP3   OH234234   6.404   2.980  14.513  0.1904  0.0444 -0.1459
 4248TIP3    H134235   6.462   3.009  14.442  0.4516  0.4436  0.2244
 4248TIP3    H234236   6.441   3.020  14.592 -1.3548  1.4498 -0.0756
 4249TIP3   OH234237   6.484   2.640   1.474  0.3347  0.1643 -0.1658
 4249TIP3    H134238   6.544   2.596   1.533  0.9416  1.1988  0.0173
 4249TIP3    H234239   6.475   2.581   1.399 -0.6091 -1.2645  1.0268
 4250TIP3   OH234240   3.540   0.611  11.525 -0.0684  0.5212  0.4490
 4250TIP3    H134241   3.453   0.613  11.485 -0.3484  0.4824  1.0380
 4250TIP3    H234242   3.599   0.641  11.457 -0.8605  3.3333  0.8621
 4251TIP3   OH234243   5.082   6.406  10.523  0.3601  0.5684  0.3689
 4251TIP3    H134244   5.146   6.339  10.497  0.7418 -0.1693  2.9040
 4251TIP3    H234245   5.135   6.478  10.556 -0.0907  0.9119  0.3521
 4252TIP3   OH234246   3.770   0.650   4.314 -0.3064  0.3632  0.1282
 4252TIP3    H134247   3.687   0.610   4.289 -0.8990  0.7736  1.3609
 4252TIP3    H234248   3.748   0.742   4.328  0.8877  1.0315 -1.9668
 4253TIP3   OH234249   5.013   1.332  15.799  0.0333  0.3089  0.0700
 4253TIP3    H134250   4.974   1.385  15.868  1.2102  1.7834 -0.3399
 4253TIP3    H234251   5.096   1.376  15.779  1.0559 -1.6829 -0.3283
 4254TIP3   OH234252   2.805   2.843  15.096  0.4717 -0.3042  0.4347
 4254TIP3    H134253   2.883   2.819  15.045 -0.6645 -2.1087 -0.5681
 4254TIP3    H234254   2.758   2.905  15.041 -1.1734 -2.8697 -1.2530
 4255TIP3   OH234255   4.301   4.584  16.169  0.8248  0.2983 -0.2605
 4255TIP3    H134256   4.323   4.632  16.249 -3.2878  0.0792  1.1940
 4255TIP3    H234257   4.236   4.639  16.125  0.3733 -1.2367 -1.6140
 4256TIP3   OH234258   5.402   1.387   1.642  0.5481 -0.3684 -0.0378
 4256TIP3    H134259   5.360   1.302   1.637  0.0373 -0.0339 -2.2280
 4256TIP3    H234260   5.429   1.406   1.553  2.5590  0.8460  0.7706
 4257TIP3   OH234261   5.950   2.865  12.855  0.3305  0.1811  0.3368
 4257TIP3    H134262   5.934   2.931  12.922  1.7695  0.3922  0.5176
 4257TIP3    H234263   5.871   2.811  12.853 -0.4376  1.2660  0.9293
 4258TIP3   OH234264   6.654   5.216   0.444  0.2708  0.0976  0.0077
 4258TIP3    H134265   6.708   5.275   0.497  0.2818 -0.4556  0.6325
 4258TIP3    H234266   6.655   5.133   0.492  1.0925 -0.7303 -1.3790
 4259TIP3   OH234267   5.838   1.834  13.336 -0.2252 -0.0665 -0.5682
 4259TIP3    H134268   5.839   1.930  13.341  1.2032 -0.1191  1.0130
 4259TIP3    H234269   5.903   1.812  13.270 -0.1285  0.0504 -0.5126
 4260TIP3   OH234270   6.353   6.762  15.192 -0.7099  0.4182 -0.2230
 4260TIP3    H134271   6.285   6.734  15.254 -0.8196  0.9301 -0.1108
 4260TIP3    H234272   6.398   6.681  15.169 -1.8924 -0.0607 -0.9510
 4261TIP3   OH234273   0.464   6.288   3.679 -0.5078  0.2366 -0.0046
 4261TIP3    H134274   0.447   6.229   3.605  1.0302  1.8487 -1.7566
 4261TIP3    H234275   0.556   6.274   3.700 -0.5110  0.9677  0.5424
 4262TIP3   OH234276   5.734   0.499  14.078  0.2879  0.7787 -0.1877
 4262TIP3    H134277   5.730   0.429  14.012 -0.5183 -1.4501  2.0497
 4262TIP3    H234278   5.815   0.546  14.058  1.1690 -1.1470 -1.4922
 4263TIP3   OH234279   1.823   2.258   3.267  0.4248 -0.1714  0.2275
 4263TIP3    H134280   1.872   2.177   3.248 -0.9178 -0.6940 -1.2000
 4263TIP3    H234281   1.794   2.288   3.181 -0.1839  1.1421  0.8823
 4264TIP3   OH234282   0.839   3.790  12.822 -0.2792  0.0376 -0.0561
 4264TIP3    H134283   0.898   3.862  12.841 -0.3241 -0.2013  1.0825
 4264TIP3    H234284   0.772   3.795  12.890  1.3334 -2.8117  1.9576
 4265TIP3   OH234285   6.107   6.491  10.637  0.1738 -0.0203  0.3391
 4265TIP3    H134286   6.016   6.514  10.656 -0.0081 -0.1123 -0.4015
 4265TIP3    H234287   6.141   6.566  10.588  1.1121  0.9162  2.3204
 4266TIP3   OH234288   6.428   6.395   1.379  0.4818 -0.1044 -0.1230
 4266TIP3    H134289   6.496   6.402   1.311  0.7302  0.4417  0.1751
 4266TIP3    H234290   6.358   6.345   1.338  0.2862  0.8997 -1.0710
 4267TIP3   OH234291   3.227   4.423   2.366  0.2831  0.3267 -0.1325
 4267TIP3    H134292   3.320   4.399   2.371  0.0588 -0.6095 -0.3958
 4267TIP3    H234293   3.219   4.497   2.427  1.3114  0.7788 -0.5141
 4268TIP3   OH234294   0.892   3.679   0.749 -0.6630 -0.3623 -0.1227
 4268TIP3    H134295   0.875   3.719   0.834 -0.7055  0.0284 -0.3130
 4268TIP3    H234296   0.914   3.588   0.769  0.8684  0.1023  0.4464
 4269TIP3   OH234297   3.159   3.092   0.100 -0.2624  0.2220 -0.0056
 4269TIP3    H134298   3.115   3.085   0.016  0.7432  1.2660 -0.6552
 4269TIP3    H234299   3.163   3.002   0.133  0.2019 -0.3516 -1.5414
 4270TIP3   OH234300   0.034   3.023   3.993  0.1993 -0.5571 -0.6053
 4270TIP3    H134301   0.067   2.990   3.909  0.8317 -0.0346 -0.5658
 4270TIP3    H234302  -0.061   3.016   3.985  0.2359 -0.1744 -1.5114
 4271TIP3   OH234303   2.683   2.870   4.531  0.1956  0.1390  0.0706
 4271TIP3    H134304   2.624   2.869   4.455 -0.2861  0.7105  0.4242
 4271TIP3    H234305   2.766   2.904   4.497  0.3188 -0.6514 -0.4302
 4272TIP3   OH234306   5.285   1.191  10.865 -0.3327 -0.2050 -0.5641
 4272TIP3    H134307   5.252   1.280  10.877 -0.7762 -0.5437  1.0856
 4272TIP3    H234308   5.351   1.181  10.934  1.3358 -0.4293 -2.1326
 4273TIP3   OH234309   1.234   2.944  16.176  0.1535 -0.0498 -0.1798
 4273TIP3    H134310   1.234   2.998  16.256  0.9387 -1.6847  0.9742
 4273TIP3    H234311   1.252   3.006  16.106  2.3670  1.0459  1.2368
 4274TIP3   OH234312   0.703   4.143   5.603 -0.4745 -0.0279 -0.3122
 4274TIP3    H134313   0.735   4.061   5.565  0.9881 -0.8899  2.5442
 4274TIP3    H234314   0.779   4.201   5.601 -0.9414  0.5816 -0.4655
 4275TIP3   OH234315   2.928   3.853  14.609  0.0041  0.1622  0.2847
 4275TIP3    H134316   2.873   3.909  14.554  0.6840  0.4869 -0.0652
 4275TIP3    H234317   2.867   3.818  14.675 -0.9898 -0.8224 -1.1018
 4276TIP3   OH234318   6.197   1.751   1.356  0.1735 -0.6764 -0.0161
 4276TIP3    H134319   6.112   1.787   1.382 -1.0071 -4.0843  1.4509
 4276TIP3    H234320   6.190   1.740   1.261 -1.5447 -1.8766  0.1961
 4277TIP3   OH234321   4.133   4.644   1.061 -0.1870 -0.1719 -0.5543
 4277TIP3    H134322   4.078   4.720   1.080 -0.3388  0.2830 -2.5909
 4277TIP3    H234323   4.121   4.628   0.967  0.6833 -2.0573 -0.3990
 4278TIP3   OH234324   1.723   1.950  12.497  0.1969 -0.1695 -0.0540
 4278TIP3    H134325   1.689   1.860  12.492  1.6529 -0.6923 -1.5602
 4278TIP3    H234326   1.650   2.005  12.468  0.6140 -1.2944 -3.8318
 4279TIP3   OH234327   5.235   4.768   1.737  0.5509 -0.2805 -0.1959
 4279TIP3    H134328   5.315   4.756   1.787 -0.2796 -1.6610  0.8645
 4279TIP3    H234329   5.180   4.692   1.760  0.2186 -1.1596 -3.3891
 4280TIP3   OH234330   0.559   6.799  13.605 -0.0732  0.1774 -0.3809
 4280TIP3    H134331   0.532   6.714  13.639 -0.7649  0.3120 -0.5797
 4280TIP3    H234332   0.494   6.820  13.538 -1.6761  2.2096  1.6721
 4281TIP3   OH234333   1.488   1.480   2.124  0.9095 -0.3929  0.4459
 4281TIP3    H134334   1.562   1.427   2.154  1.2823 -0.0002  0.2387
 4281TIP3    H234335   1.413   1.422   2.131  1.2208 -0.7693  0.7534
 4282TIP3   OH234336   3.632   6.640  11.064  0.0664 -0.2342  0.0281
 4282TIP3    H134337   3.548   6.684  11.075 -0.1814 -0.5146 -0.6829
 4282TIP3    H234338   3.697   6.703  11.095 -0.1776  1.1351 -2.0928
 4283TIP3   OH234339   2.260   5.117  12.095  0.1336 -0.1735  0.2448
 4283TIP3    H134340   2.291   5.159  12.015 -0.7478  0.7734  0.3884
 4283TIP3    H234341   2.299   5.029  12.093  1.1945  0.3016 -0.5505
 4284TIP3   OH234342   3.707   2.794  14.817 -0.1373  0.2459  0.1092
 4284TIP3    H134343   3.741   2.883  14.810  0.2532  0.0785 -0.1678
 4284TIP3    H234344   3.784   2.740  14.833 -0.3708 -0.0448  0.2700
 4285TIP3   OH234345   5.216   5.568  14.517  0.4701 -0.3314 -0.9490
 4285TIP3    H134346   5.194   5.655  14.484 -0.2066 -0.5624 -1.1248
 4285TIP3    H234347   5.255   5.523  14.441  1.1292 -0.0803 -0.7673
 4286TIP3   OH234348   0.871   3.138  14.252  0.1670 -0.2697 -0.3525
 4286TIP3    H134349   0.801   3.115  14.191 -1.0590 -0.9260  1.2340
 4286TIP3    H234350   0.875   3.065  14.313 -0.2074  1.3335  1.6934
 4287TIP3   OH234351   0.466   0.386   4.359 -0.3317  0.2560 -0.4034
 4287TIP3    H134352   0.486   0.372   4.451 -2.5000 -1.1372 -0.0612
 4287TIP3    H234353   0.496   0.476   4.341 -2.2898  1.6387  2.4386
 4288TIP3   OH234354   5.081   6.283  16.844 -0.6794  0.2378 -0.0195
 4288TIP3    H134355   5.119   6.257  16.760 -0.7456 -1.5189  0.4546
 4288TIP3    H234356   5.158   6.303  16.899 -0.6088  0.6085 -0.2478
 4289TIP3   OH234357   2.024   4.977  14.346  0.0435  0.1372 -0.1618
 4289TIP3    H134358   1.933   4.949  14.354 -0.4261  1.3876 -0.8989
 4289TIP3    H234359   2.075   4.900  14.374 -1.2076 -0.7919 -0.3348
 4290TIP3   OH234360   1.401   2.258   3.215 -0.1702 -0.6771 -0.0047
 4290TIP3    H134361   1.419   2.203   3.292  1.6545  0.1554  0.2289
 4290TIP3    H234362   1.366   2.339   3.252 -0.4381 -0.7273 -0.1492
 4291TIP3   OH234363   4.826   4.132   4.072  0.1927 -0.4609  0.1986
 4291TIP3    H134364   4.751   4.072   4.067  1.5242 -2.2182  0.1511
 4291TIP3    H234365   4.902   4.076   4.054  1.5240  1.2531  0.2715
 4292TIP3   OH234366   5.451   3.648  10.844 -0.1584  0.0424  0.2208
 4292TIP3    H134367   5.431   3.645  10.750 -1.2598  1.8339  0.3527
 4292TIP3    H234368   5.403   3.574  10.881 -0.9254  0.1916 -0.4372
 4293TIP3   OH234369   2.684   6.006  16.558 -0.2200  0.3412 -0.0389
 4293TIP3    H134370   2.652   6.087  16.517  0.4401 -0.0215 -1.2847
 4293TIP3    H234371   2.614   5.981  16.618 -1.8901  0.0968 -1.9923
 4294TIP3   OH234372   5.242   4.272  13.932 -0.3826  0.4716  0.6457
 4294TIP3    H134373   5.211   4.190  13.970  0.6811 -0.6683 -0.7965
 4294TIP3    H234374   5.306   4.244  13.866  0.0483  2.4788  0.1623
 4295TIP3   OH234375   5.776   4.727   6.427  0.7426 -0.2131  0.3116
 4295TIP3    H134376   5.799   4.745   6.336  1.2128  0.5338  0.5765
 4295TIP3    H234377   5.800   4.806   6.475 -0.1432 -0.3366  0.9804
 4296TIP3   OH234378   3.472   1.947  14.377 -0.0242  0.1017  0.1724
 4296TIP3    H134379   3.390   1.996  14.380 -0.6926 -0.9640 -0.0746
 4296TIP3    H234380   3.496   1.936  14.469  1.2064  2.5714  0.2090
 4297TIP3   OH234381   4.014   2.999  15.898 -0.0234  0.3462  0.0304
 4297TIP3    H134382   4.054   3.076  15.858  0.6136 -0.3602 -0.7459
 4297TIP3    H234383   4.086   2.958  15.947 -0.1236 -0.2249 -0.2907
 4298TIP3   OH234384   5.765   5.071   4.356 -0.3725  0.5741  0.2428
 4298TIP3    H134385   5.689   5.092   4.411 -1.6725  0.5282 -1.4382
 4298TIP3    H234386   5.749   4.981   4.327 -1.7110  1.6980 -3.0602
 4299TIP3   OH234387   5.311   6.592   4.406 -0.0406  0.0944 -0.6569
 4299TIP3    H134388   5.400   6.569   4.380 -0.1949  1.1386 -2.2368
 4299TIP3    H234389   5.269   6.508   4.426  0.9515 -0.5124 -1.0638
 4300TIP3   OH234390   0.863   3.069  11.826 -0.0418 -0.0758 -0.3896
 4300TIP3    H134391   0.854   3.010  11.901  0.2976  0.1242 -0.1828
 4300TIP3    H234392   0.933   3.129  11.852 -0.1942  0.2449 -0.7074
 4301TIP3   OH234393   5.161   2.125   0.262  0.4634 -0.5939  0.3851
 4301TIP3    H134394   5.175   2.212   0.299  0.3114 -0.4367  0.0790
 4301TIP3    H234395   5.068   2.123   0.242  0.4486 -0.8661  0.4837
 4302TIP3   OH234396   4.825   1.541   5.597 -0.1945 -0.2042  0.7115
 4302TIP3    H134397   4.838   1.606   5.666 -1.0877  2.6094 -1.5774
 4302TIP3    H234398   4.914   1.521   5.567  0.0675  0.7400  0.8074
 4303TIP3   OH234399   6.000   1.151  15.518 -0.2858  0.3612 -0.2693
 4303TIP3    H134400   6.059   1.077  15.531 -0.2819  0.5666  1.0867
 4303TIP3    H234401   5.915   1.120  15.550 -0.6065  0.5105 -0.9495
 4304TIP3   OH234402   1.887   6.113  11.790  0.2055  0.2426  0.3986
 4304TIP3    H134403   1.827   6.061  11.842 -1.0137 -1.1495 -2.1815
 4304TIP3    H234404   1.864   6.204  11.809 -1.0193 -0.2413  1.3219
 4305TIP3   OH234405   5.185   2.256  15.211  0.0221  0.4703  0.2885
 4305TIP3    H134406   5.162   2.348  15.198  0.1816  0.3185 -1.2330
 4305TIP3    H234407   5.123   2.209  15.155  1.8876 -0.1482 -1.3363
 4306TIP3   OH234408   6.492   2.021   1.318  0.1081 -0.2102 -0.2820
 4306TIP3    H134409   6.498   1.931   1.286  1.0950 -0.0502 -0.5937
 4306TIP3    H234410   6.537   2.019   1.403  0.4222  0.0459 -0.4380
 4307TIP3   OH234411   1.023   5.939   1.845 -0.1367  0.7484 -0.0777
 4307TIP3    H134412   1.043   6.027   1.811 -0.0123  0.3319 -1.0894
 4307TIP3    H234413   1.080   5.881   1.796  0.6174  0.1901  1.3798
 4308TIP3   OH234414   0.639   5.497  12.088  0.1665  0.0015  0.4917
 4308TIP3    H134415   0.670   5.465  12.003  0.6724  1.1956  0.2116
 4308TIP3    H234416   0.719   5.527  12.133 -0.0509 -0.9108  1.5283
 4309TIP3   OH234417   4.211   3.016   0.579  0.1198 -0.1823 -0.2051
 4309TIP3    H134418   4.124   2.977   0.569 -0.5691  1.1931  0.1561
 4309TIP3    H234419   4.272   2.944   0.560 -1.0794 -1.3171  0.0867
 4310TIP3   OH234420   2.305   0.564   5.747  0.2088 -0.2660  0.0748
 4310TIP3    H134421   2.336   0.503   5.814  0.6455  0.7811  0.8520
 4310TIP3    H234422   2.276   0.640   5.795 -0.7713 -0.0270 -0.8582
 4311TIP3   OH234423   0.710   4.801   3.711  0.0128 -0.7278 -0.1182
 4311TIP3    H134424   0.670   4.884   3.687  1.2102  0.4420  1.7032
 4311TIP3    H234425   0.757   4.773   3.632  1.3843  1.4526 -0.1463
 4312TIP3   OH234426   3.683   6.181   5.590  0.3928 -0.5009  0.2406
 4312TIP3    H134427   3.758   6.223   5.633 -0.2429  1.0811 -0.1042
 4312TIP3    H234428   3.687   6.213   5.500 -0.2665 -1.0156  0.0218
 4313TIP3   OH234429   2.914   5.608   4.655  0.5217 -0.0765  0.0133
 4313TIP3    H134430   2.907   5.603   4.751  1.2023  2.7944  0.3106
 4313TIP3    H234431   2.823   5.615   4.626  0.3761  0.8733  0.6396
 4314TIP3   OH234432   2.566   2.831  12.545  0.4132 -0.7976 -0.2823
 4314TIP3    H134433   2.565   2.925  12.529  1.7385 -0.8087 -0.5349
 4314TIP3    H234434   2.630   2.819  12.615 -0.0428 -1.4818  0.0322
 4315TIP3   OH234435   3.047   4.321   3.034 -0.1453  0.2136 -0.6529
 4315TIP3    H134436   2.989   4.259   2.988  0.9543 -1.1256 -0.3167
 4315TIP3    H234437   3.133   4.305   2.996  0.2350  1.2634 -0.2472
 4316TIP3   OH234438   5.331   2.200   1.104 -0.2848  0.0685 -0.5900
 4316TIP3    H134439   5.243   2.190   1.068  0.1137 -0.5699 -1.4114
 4316TIP3    H234440   5.364   2.111   1.112 -0.0297  0.2499  0.5532
 4317TIP3   OH234441   3.678   0.640   6.129 -0.1681  0.3879  0.2853
 4317TIP3    H134442   3.692   0.720   6.179  0.8603  0.7527 -0.5368
 4317TIP3    H234443   3.609   0.662   6.066 -1.2316  0.0269  1.2992
 4318TIP3   OH234444   3.805   1.168  15.446  0.0479  0.0650 -0.6092
 4318TIP3    H134445   3.853   1.085  15.438 -3.1768 -2.1836  0.9784
 4318TIP3    H234446   3.795   1.179  15.541  0.0944  2.1358 -0.8183
 4319TIP3   OH234447   6.404   3.176  11.488  0.1070  0.3396 -0.3536
 4319TIP3    H134448   6.479   3.130  11.529  0.0195 -1.3823 -1.9878
 4319TIP3    H234449   6.444   3.249  11.441  0.9255 -1.0569 -1.9197
 4320TIP3   OH234450   6.305   1.484   0.792  0.2548  0.5542  0.0390
 4320TIP3    H134451   6.343   1.505   0.706  0.0248  2.1849  0.3054
 4320TIP3    H234452   6.346   1.546   0.852 -0.6685  0.4005  0.8518
 4321TIP3   OH234453   5.013   5.918  16.099 -0.0643 -0.4337  0.1430
 4321TIP3    H134454   4.942   5.981  16.112  0.4171 -0.2590  2.3051
 4321TIP3    H234455   5.080   5.944  16.163  1.0784 -1.8191 -0.4409
 4322TIP3   OH234456   4.618   4.533   2.579  0.1664  0.6195 -0.2056
 4322TIP3    H134457   4.669   4.614   2.568 -2.1254  2.2043  0.0199
 4322TIP3    H234458   4.563   4.550   2.655 -0.8571 -0.9170 -0.5713
 4323TIP3   OH234459   6.819   6.249  12.319 -0.3506 -0.3425  0.5807
 4323TIP3    H134460   6.845   6.162  12.288  0.8780 -0.7595  2.5801
 4323TIP3    H234461   6.799   6.236  12.412 -0.7035  1.4103  0.7794
 4324TIP3   OH234462   4.677   1.233  14.898  0.0180  0.0347 -0.4307
 4324TIP3    H134463   4.726   1.241  14.980  0.3381 -2.0323 -0.3581
 4324TIP3    H234464   4.744   1.226  14.830 -0.2350  0.6060 -0.7497
 4325TIP3   OH234465   5.465   2.923   3.343 -0.1600 -0.0357 -0.0542
 4325TIP3    H134466   5.547   2.893   3.382 -0.3797 -0.0593  0.3976
 4325TIP3    H234467   5.458   2.874   3.261  0.3455  0.0749 -0.1638
 4326TIP3   OH234468   5.198   6.252  14.070 -0.3130 -0.6337  0.2134
 4326TIP3    H134469   5.207   6.170  14.118  0.0609  0.1328  1.5125
 4326TIP3    H234470   5.109   6.281  14.090  0.8169  1.2481  3.1574
 4327TIP3   OH234471   5.788   5.198   1.218 -0.1302  0.4717 -0.0651
 4327TIP3    H134472   5.833   5.242   1.147 -2.3616  2.5724 -0.3293
 4327TIP3    H234473   5.744   5.268   1.266 -1.4609 -1.2084  1.3386
 4328TIP3   OH234474   5.816   6.388   1.632 -0.3229  0.3405  0.4560
 4328TIP3    H134475   5.736   6.361   1.677 -0.0985 -1.2379 -0.0513
 4328TIP3    H234476   5.853   6.456   1.689 -0.2725 -1.2640  2.4269
 4329TIP3   OH234477   5.725   1.355  15.353  0.7523  0.4258  0.0439
 4329TIP3    H134478   5.658   1.410  15.313  0.3455  0.0538  0.2085
 4329TIP3    H234479   5.762   1.305  15.280 -0.6812 -0.9899  0.2473
 4330TIP3   OH234480   6.489   6.665   0.187 -0.4221  0.2915  0.2203
 4330TIP3    H134481   6.455   6.649   0.275 -4.9048 -0.5506 -1.3750
 4330TIP3    H234482   6.528   6.582   0.160 -0.4518  0.0716  0.8338
 4331TIP3   OH234483   3.494   1.708   2.603  0.3974  0.0983  0.6796
 4331TIP3    H134484   3.492   1.772   2.532  2.6161 -0.0534  0.3996
 4331TIP3    H234485   3.481   1.760   2.682 -0.4907  0.5049  0.2755
 4332TIP3   OH234486   2.566   2.842   4.248  0.3782  0.5575  0.4024
 4332TIP3    H134487   2.483   2.796   4.238  0.1768  1.3133 -2.0838
 4332TIP3    H234488   2.632   2.774   4.234  0.1285  0.4174 -0.1170
 4333TIP3   OH234489   3.845   0.540  13.541 -0.4764  0.3483  0.2140
 4333TIP3    H134490   3.922   0.541  13.597 -1.4308 -0.4110  1.5791
 4333TIP3    H234491   3.846   0.625  13.498  2.5734 -0.5743 -1.8953
 4334TIP3   OH234492   0.236   0.551   3.112 -0.3884  0.3984  0.0068
 4334TIP3    H134493   0.298   0.488   3.075  0.2732  1.3577 -0.5700
 4334TIP3    H234494   0.249   0.546   3.206  1.2941  1.2755 -0.1418
 4335TIP3   OH234495   2.313   4.492   4.250  0.6170 -0.0562  0.5784
 4335TIP3    H134496   2.397   4.527   4.279  0.7383 -0.1269  0.3076
 4335TIP3    H234497   2.335   4.420   4.191  0.3974  1.2787 -1.2229
 4336TIP3   OH234498   2.024   6.007  15.988 -0.7229 -0.3092  0.2962
 4336TIP3    H134499   2.103   5.952  15.993 -0.9742 -0.7080  0.0249
 4336TIP3    H234500   2.053   6.094  16.012 -0.2218 -0.4806  0.3194
 4337TIP3   OH234501   5.973   3.331  16.014  0.0769  0.3712 -0.1087
 4337TIP3    H134502   5.885   3.363  16.035 -0.8064 -2.2432  0.4816
 4337TIP3    H234503   6.026   3.356  16.090 -0.0231  2.2178 -0.5935
 4338TIP3   OH234504   3.861   2.305   0.613  0.2483 -0.2728  0.5052
 4338TIP3    H134505   3.853   2.327   0.706  1.0697 -1.0252  0.7661
 4338TIP3    H234506   3.928   2.237   0.610 -1.3989 -1.9442 -0.3897
 4339TIP3   OH234507   1.290   2.341   4.292  0.3208 -0.1216 -0.4497
 4339TIP3    H134508   1.245   2.270   4.246  0.7393 -0.1765 -0.7887
 4339TIP3    H234509   1.379   2.308   4.306 -0.0694 -0.4897  1.3114
 4340TIP3   OH234510   4.705   1.382   6.351  0.1074  0.1057  0.8651
 4340TIP3    H134511   4.772   1.402   6.285 -0.2166 -1.1361  0.1316
 4340TIP3    H234512   4.626   1.424   6.317 -0.3712 -1.5940 -0.2443
 4341TIP3   OH234513   1.468   0.694   5.516  0.9036 -0.3437 -0.0654
 4341TIP3    H134514   1.458   0.614   5.466  1.7809 -0.6316  0.1939
 4341TIP3    H234515   1.547   0.735   5.481  1.3970 -0.4279  0.9049
 4342TIP3   OH234516   1.948   2.982   5.652 -0.0273 -0.3556  0.7858
 4342TIP3    H134517   1.899   2.996   5.571  0.5950 -1.1297  0.2552
 4342TIP3    H234518   1.882   2.952   5.715 -0.3274 -0.9552  0.2061
 4343TIP3   OH234519   2.670   4.452  10.960 -0.0927 -0.1701 -0.2284
 4343TIP3    H134520   2.580   4.467  10.932  0.3009 -0.2312 -1.6004
 4343TIP3    H234521   2.712   4.410  10.885  0.6448 -1.7175  1.0004
 4344TIP3   OH234522   5.017   0.643   5.249 -0.2403  0.7970  0.1852
 4344TIP3    H134523   4.976   0.601   5.324 -0.6145  2.4289  0.9399
 4344TIP3    H234524   5.051   0.570   5.196 -1.8636 -0.4919  0.8251
 4345TIP3   OH234525   1.478   4.079  12.989 -0.6994 -0.3377  0.2839
 4345TIP3    H134526   1.437   4.073  13.075  0.4802 -1.2187  0.8074
 4345TIP3    H234527   1.561   4.123  13.004 -0.3861 -0.6888 -0.3566
 4346TIP3   OH234528   4.856   0.295   4.676 -0.0412  0.6837 -0.2346
 4346TIP3    H134529   4.763   0.282   4.657 -0.2016 -1.6308  1.6774
 4346TIP3    H234530   4.901   0.268   4.596 -0.9392 -0.6702 -0.3121
 4347TIP3   OH234531   0.742   4.393   5.191 -0.0783 -0.3016 -0.3743
 4347TIP3    H134532   0.741   4.298   5.206 -0.5394  0.0941  2.7238
 4347TIP3    H234533   0.812   4.425   5.249 -0.1735  1.3136 -1.1053
 4348TIP3   OH234534   1.077   0.397  16.001  0.0735 -0.0647 -0.1118
 4348TIP3    H134535   1.031   0.480  16.011  0.4934  0.0859  0.5735
 4348TIP3    H234536   1.097   0.392  15.907  2.6152  2.0023  0.2321
 4349TIP3   OH234537   0.889   4.273   4.634 -0.0013 -0.4584 -0.0247
 4349TIP3    H134538   0.826   4.342   4.616  0.2391 -0.6621 -1.8409
 4349TIP3    H234539   0.849   4.194   4.599  0.0018 -1.1658  1.4747
 4350TIP3   OH234540   6.458   6.574  12.805 -0.4038  0.3822  0.2142
 4350TIP3    H134541   6.510   6.613  12.735  0.6513 -1.0267  0.1610
 4350TIP3    H234542   6.408   6.505  12.762 -0.7822  0.3927  0.6269
 4351TIP3   OH234543   2.590   5.335  12.526  0.3420  0.3403 -0.2225
 4351TIP3    H134544   2.681   5.323  12.498 -0.1906 -0.8008 -1.5843
 4351TIP3    H234545   2.558   5.247  12.545  0.3673  0.9541  3.3125
 4352TIP3   OH234546   1.040   4.930  15.380 -0.1816  0.2948 -0.4805
 4352TIP3    H134547   1.042   4.836  15.364  1.3505 -0.4990  3.2882
 4352TIP3    H234548   1.092   4.968  15.309  1.7530 -2.0602 -0.4482
 4353TIP3   OH234549   3.290   4.285  13.891 -0.7913 -0.0317  0.5793
 4353TIP3    H134550   3.197   4.263  13.894 -0.8153 -0.4152 -1.3163
 4353TIP3    H234551   3.323   4.235  13.816  0.8566  0.3956  0.9942
 4354TIP3   OH234552   4.921   5.661  15.106 -0.4352 -0.6850  0.1147
 4354TIP3    H134553   4.891   5.720  15.175  0.7017  1.0974 -0.8302
 4354TIP3    H234554   4.925   5.716  15.028  2.4974 -1.4587 -0.4245
 4355TIP3   OH234555   0.347   2.622   4.304  0.2513  0.3365  0.2521
 4355TIP3    H134556   0.433   2.634   4.264  0.1362  1.9606  0.4033
 4355TIP3    H234557   0.356   2.659   4.392 -0.2187 -0.7871  0.7879
 4356TIP3   OH234558   5.954   6.617  17.131 -0.0531 -0.4840 -0.4312
 4356TIP3    H134559   5.906   6.536  17.149 -1.1783  0.3490  0.4451
 4356TIP3    H234560   6.007   6.632  17.210 -0.5290  0.0906 -0.2138
 4357TIP3   OH234561   1.171   6.108  14.368 -0.8118  0.3296  0.2853
 4357TIP3    H134562   1.129   6.169  14.429  0.0529  1.4454 -0.1852
 4357TIP3    H234563   1.142   6.022  14.396 -1.4102  0.9001  1.5069
 4358TIP3   OH234564   2.898   4.572  17.221  0.0570  0.4579 -0.2410
 4358TIP3    H134565   2.827   4.508  17.214 -0.0414  0.7003 -1.7957
 4358TIP3    H234566   2.861   4.644  17.273  0.1414 -0.6663  1.4441
 4359TIP3   OH234567   3.239   4.788   1.787  0.5104 -0.2434  0.5200
 4359TIP3    H134568   3.298   4.738   1.732  0.3601 -1.5428  1.4867
 4359TIP3    H234569   3.296   4.836   1.847  0.6631  0.9675 -0.5518
 4360TIP3   OH234570   5.554   5.217  13.112 -0.1692  0.0060  0.4604
 4360TIP3    H134571   5.477   5.257  13.072  0.6985  1.5064  0.2448
 4360TIP3    H234572   5.520   5.174  13.191 -1.0279  1.9688  1.2293
 4361TIP3   OH234573   4.255   5.080  12.503  0.1134  0.0364  0.3077
 4361TIP3    H134574   4.274   5.128  12.423  0.8033 -0.7589 -0.0201
 4361TIP3    H234575   4.299   5.129  12.572 -0.3400  0.6267  0.1843
 4362TIP3   OH234576   3.482   3.433  12.035 -0.1229 -0.1765 -0.1987
 4362TIP3    H134577   3.408   3.441  12.096 -0.2790  0.8779 -0.5080
 4362TIP3    H234578   3.532   3.513  12.047  0.3235 -0.3510 -0.8426
 4363TIP3   OH234579   0.543   1.753   0.505 -0.1083 -0.3760  0.1435
 4363TIP3    H134580   0.534   1.832   0.452 -1.8954 -0.0525  0.8809
 4363TIP3    H234581   0.550   1.784   0.595  0.1450 -1.0382  0.3617
 4364TIP3   OH234582   5.949   2.805  15.440 -0.2987  0.0212  0.3250
 4364TIP3    H134583   6.019   2.798  15.506  0.5838 -0.6648 -0.6488
 4364TIP3    H234584   5.923   2.897  15.443  0.3143  0.1829  1.0445
 4365TIP3   OH234585   2.804   0.595   2.400 -0.0648 -0.4892  0.0355
 4365TIP3    H134586   2.713   0.607   2.426 -0.1035 -1.0042  0.1628
 4365TIP3    H234587   2.812   0.500   2.385  0.5828 -0.5198  0.5372
 4366TIP3   OH234588   1.709   0.172   4.626  0.2321  0.5715 -0.1681
 4366TIP3    H134589   1.726   0.097   4.683 -0.3592  0.5344 -0.0435
 4366TIP3    H234590   1.616   0.191   4.636  0.4583  1.6003  0.1364
 4367TIP3   OH234591   0.291   0.578  11.861 -0.4157 -0.3716  0.1736
 4367TIP3    H134592   0.287   0.494  11.907  1.4108 -0.2742  0.5972
 4367TIP3    H234593   0.385   0.595  11.851 -0.7394  0.4433 -2.0827
 4368TIP3   OH234594   5.317   2.906  11.280 -0.1859 -0.0117 -0.1402
 4368TIP3    H134595   5.246   2.875  11.223  0.3965 -0.1391 -0.8174
 4368TIP3    H234596   5.332   2.996  11.252  0.8675 -0.4257 -1.0010
 4369TIP3   OH234597   6.085   3.846   5.777  0.1547 -0.3001  0.0922
 4369TIP3    H134598   6.159   3.812   5.826  0.5747 -1.8040 -1.4695
 4369TIP3    H234599   6.042   3.768   5.742 -1.0865  0.6362 -0.5572
 4370TIP3   OH234600   2.558   3.458   0.624 -0.0461  0.4529 -0.0630
 4370TIP3    H134601   2.623   3.519   0.659  0.2658  0.1443 -0.1026
 4370TIP3    H234602   2.598   3.424   0.544 -1.0563  1.7140 -1.1425
 4371TIP3   OH234603   6.674   2.086  14.071 -0.2070 -0.0966 -0.5849
 4371TIP3    H134604   6.746   2.142  14.043  1.0468  0.4513  3.2055
 4371TIP3    H234605   6.597   2.143  14.068 -0.0269  0.1243 -2.0022
 4372TIP3   OH234606   0.961   4.648  14.020 -0.7068 -0.1078  0.5070
 4372TIP3    H134607   0.920   4.694  13.946  1.7250 -0.1660 -1.0163
 4372TIP3    H234608   1.023   4.712  14.056  2.4954 -1.8118 -1.4324
 4373TIP3   OH234609   2.632   0.294  16.388 -0.4024  0.5476 -0.5237
 4373TIP3    H134610   2.715   0.272  16.347 -0.4084  0.9165 -0.7327
 4373TIP3    H234611   2.617   0.386  16.366 -0.8297  0.5039 -0.4287
 4374TIP3   OH234612   3.360   3.362  11.173 -0.3824  0.0427 -0.4345
 4374TIP3    H134613   3.370   3.306  11.250  1.4003  0.0677 -0.6079
 4374TIP3    H234614   3.419   3.324  11.108 -0.2593  1.2558 -1.0575
 4375TIP3   OH234615   1.366   5.588   3.421  0.1061  0.0942  0.4605
 4375TIP3    H134616   1.414   5.630   3.349 -0.5107 -0.4249 -0.2669
 4375TIP3    H234617   1.312   5.659   3.458  0.2013  0.2979  0.2131
 4376TIP3   OH234618   4.875   3.232  17.171 -0.0488 -0.2927 -0.5331
 4376TIP3    H134619   4.856   3.259  17.081  1.0048  0.3310 -0.5807
 4376TIP3    H234620   4.870   3.136  17.169 -0.7955 -0.2499 -1.0655
 4377TIP3   OH234621   5.359   5.231   3.952 -0.3946 -0.3176 -0.2503
 4377TIP3    H134622   5.421   5.169   3.990 -1.4279 -0.8965  0.5421
 4377TIP3    H234623   5.413   5.286   3.895  0.7426 -1.1714 -0.0501
 4378TIP3   OH234624   2.222   2.631   6.369 -0.1084  0.7508  0.1230
 4378TIP3    H134625   2.243   2.555   6.423 -0.0497  0.2260 -0.6342
 4378TIP3    H234626   2.162   2.682   6.424  1.6480  1.3665  1.5752
 4379TIP3   OH234627   1.991   4.800  17.099  0.1732  0.0473  0.0414
 4379TIP3    H134628   1.929   4.840  17.160  0.4871  0.8015 -0.1243
 4379TIP3    H234629   2.018   4.718  17.142  0.3745  0.5515  0.9035
 4380TIP3   OH234630   0.889   6.045  12.514  0.3292  1.0338 -0.1086
 4380TIP3    H134631   0.886   6.014  12.424  0.1948  2.7059 -0.7048
 4380TIP3    H234632   0.930   5.973  12.562  0.6006  0.1956 -1.5323
 4381TIP3   OH234633   5.060   5.143   1.153  0.5140 -0.3207 -0.0131
 4381TIP3    H134634   5.010   5.070   1.117  1.6816 -0.8437 -0.6338
 4381TIP3    H234635   5.150   5.111   1.156  0.7660  0.4393  1.4727
 4382TIP3   OH234636   1.664   3.506  16.635 -0.6673 -0.2521  0.0738
 4382TIP3    H134637   1.618   3.428  16.604  2.8252 -1.6877 -2.1734
 4382TIP3    H234638   1.676   3.559  16.557  2.3339 -0.5660  0.1886
 4383TIP3   OH234639   0.135   1.567   1.228 -0.7374 -0.0334  0.0076
 4383TIP3    H134640   0.145   1.657   1.259 -1.4298  0.5979 -1.4970
 4383TIP3    H234641   0.121   1.516   1.307 -1.1041  1.3031  0.8354
 4384TIP3   OH234642   4.539   4.386   4.073 -0.3266  0.4814 -0.5145
 4384TIP3    H134643   4.448   4.404   4.048 -0.2779  1.2033 -0.1778
 4384TIP3    H234644   4.579   4.353   3.992 -0.7827  0.5320 -0.7678
 4385TIP3   OH234645   3.949   5.711  15.140  0.5436  0.1027  0.2568
 4385TIP3    H134646   3.890   5.777  15.177 -0.4816 -1.4076  1.4929
 4385TIP3    H234647   4.032   5.725  15.185 -0.2548 -0.7101  2.0779
 4386TIP3   OH234648   0.771   0.622   0.969 -0.2084 -0.9037 -0.0040
 4386TIP3    H134649   0.844   0.673   1.001 -2.1425  1.8606  0.3671
 4386TIP3    H234650   0.762   0.550   1.031  2.1001 -1.3018 -0.0679
 4387TIP3   OH234651   5.280   6.005  16.597 -0.2469 -0.2934  0.0934
 4387TIP3    H134652   5.193   6.037  16.572  0.3771  1.9255  0.5367
 4387TIP3    H234653   5.331   6.085  16.616  1.5258 -1.5731  1.0609
 4388TIP3   OH234654   5.217   2.184  12.366 -0.0692  0.2078  0.3345
 4388TIP3    H134655   5.131   2.144  12.377  0.1404 -0.1350  0.7118
 4388TIP3    H234656   5.259   2.176  12.451  1.1449 -1.5211 -0.3621
 4389TIP3   OH234657   0.258   5.056  12.796  0.0540  0.0532  0.0819
 4389TIP3    H134658   0.216   5.065  12.881 -1.4308 -1.9602 -0.3464
 4389TIP3    H234659   0.240   5.138  12.751 -2.4416 -0.2568  0.3837
 4390TIP3   OH234660   0.486   1.208  14.127 -0.1135  0.1964  0.5788
 4390TIP3    H134661   0.500   1.129  14.180  0.5717  1.0777  1.7332
 4390TIP3    H234662   0.400   1.194  14.086  0.6637 -1.8536 -0.5174
 4391TIP3   OH234663   0.738   6.096   3.842 -0.3432 -0.4825 -0.2124
 4391TIP3    H134664   0.772   6.185   3.838 -0.4760 -0.4654 -1.4793
 4391TIP3    H234665   0.816   6.040   3.834 -0.1289 -0.5215  1.7559
 4392TIP3   OH234666   3.322   0.233  15.471 -0.5156  0.0505 -0.1166
 4392TIP3    H134667   3.317   0.138  15.464 -0.7494  0.0536 -0.0132
 4392TIP3    H234668   3.237   0.264  15.439 -0.9438  0.1552  1.0778
 4393TIP3   OH234669   3.664   2.668  14.386 -0.8866 -0.9035  0.0400
 4393TIP3    H134670   3.757   2.682  14.407 -0.8190 -3.1870  1.6005
 4393TIP3    H234671   3.665   2.640  14.294 -0.1902  0.0561 -0.2774
 4394TIP3   OH234672   1.306   5.989   2.698  0.6482  0.1703 -0.2549
 4394TIP3    H134673   1.272   5.951   2.616  1.9214  3.5589 -2.5431
 4394TIP3    H234674   1.247   6.061   2.717  2.1871  1.4304 -0.0621
 4395TIP3   OH234675   3.270   5.467  16.288  0.1099  0.5775 -0.6373
 4395TIP3    H134676   3.228   5.502  16.210  0.4729  1.0984 -0.6037
 4395TIP3    H234677   3.254   5.532  16.356  3.2056  2.1675 -1.2498
 4396TIP3   OH234678   3.317   0.578   0.292 -0.0705 -0.0038  0.0269
 4396TIP3    H134679   3.331   0.561   0.385  0.3991  1.2228  0.2057
 4396TIP3    H234680   3.405   0.582   0.254  0.1113  3.9524  0.4335
 4397TIP3   OH234681   1.545   5.196  15.943 -0.0645  0.2739  0.1621
 4397TIP3    H134682   1.502   5.172  16.025  1.0174  0.0689  0.6877
 4397TIP3    H234683   1.487   5.164  15.874 -0.2844 -0.8592  0.8549
 4398TIP3   OH234684   3.988   2.124  10.623 -0.3122 -0.2753  0.5890
 4398TIP3    H134685   3.899   2.142  10.655  0.4998 -0.3210  3.0056
 4398TIP3    H234686   3.988   2.160  10.534 -1.9878  2.0079  1.4080
 4399TIP3   OH234687   6.178   4.945   1.668  0.4636 -0.6473 -0.1182
 4399TIP3    H134688   6.110   4.913   1.728 -0.9338 -0.2163 -1.4403
 4399TIP3    H234689   6.197   5.034   1.699 -2.6528  0.8930 -2.1699
 4400TIP3   OH234690   1.336   4.185   0.432 -0.1508 -0.1082 -0.7497
 4400TIP3    H134691   1.392   4.189   0.354 -1.3824 -0.1245 -1.6688
 4400TIP3    H234692   1.270   4.119   0.411 -1.0788  0.5710 -0.0827
 4401TIP3   OH234693   4.008   3.798   2.486 -0.0090 -0.3460  0.2953
 4401TIP3    H134694   4.061   3.720   2.505 -1.0306 -1.2213 -0.3635
 4401TIP3    H234695   4.072   3.861   2.453  0.8669 -0.8254  1.0046
 4402TIP3   OH234696   2.756   3.377   1.359 -0.4295  0.0155  0.2760
 4402TIP3    H134697   2.815   3.439   1.316 -0.3637  0.1612  0.5692
 4402TIP3    H234698   2.676   3.426   1.375 -0.0435  0.3380  1.3790
 4403TIP3   OH234699   2.484   6.561  14.439 -0.1588  0.2360 -0.0094
 4403TIP3    H134700   2.556   6.598  14.388 -0.3690  0.2278 -0.3168
 4403TIP3    H234701   2.526   6.503  14.502  0.2740  1.7621  1.1753
 4404TIP3   OH234702   4.914   3.627   5.731 -0.3161  0.0945  0.4204
 4404TIP3    H134703   4.841   3.606   5.788 -0.8123 -0.7189 -0.4916
 4404TIP3    H234704   4.926   3.722   5.741 -0.2386 -0.0599  2.0191
 4405TIP3   OH234705   1.947   4.219  16.189  0.5629  0.0255  0.3035
 4405TIP3    H134706   1.998   4.155  16.239  0.2957  0.1416  0.7294
 4405TIP3    H234707   1.965   4.302  16.234 -2.9812 -0.4037  2.9217
 4406TIP3   OH234708   2.277   6.182  10.895 -0.1332  0.3471 -0.4754
 4406TIP3    H134709   2.267   6.238  10.818  1.3483  0.6314 -0.4944
 4406TIP3    H234710   2.265   6.093  10.861 -2.8158  0.6083 -0.3816
 4407TIP3   OH234711   5.372   1.083   0.319  0.0229  0.7445  0.4991
 4407TIP3    H134712   5.432   1.155   0.300  0.9320 -0.7146 -2.7196
 4407TIP3    H234713   5.415   1.033   0.388  1.4581  0.9539 -0.2209
 4408TIP3   OH234714   2.166   5.844   2.516  0.3267 -0.3788  0.0398
 4408TIP3    H134715   2.228   5.902   2.471 -1.2647  0.5740 -1.0400
 4408TIP3    H234716   2.162   5.877   2.605 -0.7476  1.4179 -0.6201
 4409TIP3   OH234717   4.148   5.965  15.226 -0.2725 -0.0386 -0.5581
 4409TIP3    H134718   4.233   5.928  15.251  0.1305  0.9111 -0.4907
 4409TIP3    H234719   4.167   6.021  15.151 -1.1946 -1.4568 -1.9035
 4410TIP3   OH234720   5.471   6.813  14.501  0.4927 -0.0593 -0.1348
 4410TIP3    H134721   5.546   6.861  14.535  2.0830 -1.6328 -1.2118
 4410TIP3    H234722   5.395   6.862  14.531  1.9646  2.3377 -0.0912
 4411TIP3   OH234723   1.046   5.000   2.965  0.2450 -0.5078  0.3324
 4411TIP3    H134724   0.983   4.945   2.919 -0.4793  1.4123 -1.1522
 4411TIP3    H234725   1.126   4.948   2.969  0.0717 -1.1319 -2.3931
 4412TIP3   OH234726   5.918   5.644  15.485  0.0118  0.2172  0.4729
 4412TIP3    H134727   5.904   5.730  15.445  0.7274  0.1333  0.0415
 4412TIP3    H234728   5.833   5.600  15.476  0.0165  0.3889 -0.4903
 4413TIP3   OH234729   2.331   6.470   1.221 -0.2853 -0.8120  0.0335
 4413TIP3    H134730   2.316   6.436   1.133 -0.8903  0.0082 -0.1938
 4413TIP3    H234731   2.271   6.421   1.276 -0.2729 -0.9718 -0.0955
 4414TIP3   OH234732   5.694   4.094  16.057 -0.1404 -0.3563  0.3975
 4414TIP3    H134733   5.749   4.152  16.108  1.3147 -0.5282 -0.9015
 4414TIP3    H234734   5.616   4.080  16.111  0.4718  0.9986  1.6758
 4415TIP3   OH234735   2.836   0.010  13.722 -0.2254  0.3919  0.1091
 4415TIP3    H134736   2.913   0.021  13.667  0.1447  1.5523  0.8118
 4415TIP3    H234737   2.763   0.041  13.668 -0.0600  0.2730 -0.1845
 4416TIP3   OH234738   2.094   2.418  11.109 -0.2299 -0.3659 -0.5188
 4416TIP3    H134739   2.019   2.463  11.070 -0.0425  0.0780 -0.3724
 4416TIP3    H234740   2.168   2.477  11.095  0.0198 -0.6296 -0.3291
 4417TIP3   OH234741   4.066   4.379  12.183  0.7836  0.2814 -0.2389
 4417TIP3    H134742   4.062   4.449  12.119  0.3442 -0.3008 -0.8511
 4417TIP3    H234743   4.139   4.404  12.241 -0.1654  1.8849  0.3356
 4418TIP3   OH234744   3.515   6.090   4.880 -0.0399 -0.4012 -0.1033
 4418TIP3    H134745   3.526   6.029   4.953 -0.9635 -1.4386 -0.8006
 4418TIP3    H234746   3.527   6.036   4.802  1.0684  0.7126 -0.7424
 4419TIP3   OH234747   0.634   0.602  16.362 -0.3397  0.1078 -0.0095
 4419TIP3    H134748   0.661   0.525  16.312 -0.2055  1.6147 -2.4138
 4419TIP3    H234749   0.539   0.607  16.349 -0.3017  0.5174 -0.1575
 4420TIP3   OH234750   5.678   5.813   2.830 -0.0999  0.9707  0.3356
 4420TIP3    H134751   5.631   5.883   2.876 -0.1283  1.6037 -0.6459
 4420TIP3    H234752   5.630   5.801   2.748  1.2499  1.4068 -0.5413
 4421TIP3   OH234753   2.015   5.366   2.189 -0.2895 -0.1645 -0.5659
 4421TIP3    H134754   2.013   5.461   2.200 -0.0010 -0.2860  0.6515
 4421TIP3    H234755   2.095   5.338   2.235 -0.0793 -0.9489 -1.3683
 4422TIP3   OH234756   3.911   6.619  14.076  0.0882  0.5602 -1.0071
 4422TIP3    H134757   3.944   6.703  14.108  0.5031 -0.3700  1.1147
 4422TIP3    H234758   3.969   6.597  14.003 -0.4239  2.3818 -2.0329
 4423TIP3   OH234759   0.037   1.755  12.617  0.4156  0.8500  0.4621
 4423TIP3    H134760   0.075   1.687  12.561  0.6241  1.8268 -0.6410
 4423TIP3    H234761  -0.027   1.710  12.671  1.2549 -0.3781  0.4634
 4424TIP3   OH234762   6.067   5.160   4.822 -0.3418 -0.3848 -0.0210
 4424TIP3    H134763   6.119   5.167   4.902 -1.1047 -1.2149  0.5694
 4424TIP3    H234764   6.131   5.145   4.753  0.4719  1.8046  0.1647
 4425TIP3   OH234765   0.860   1.028   2.476 -0.0968 -0.6880  0.9452
 4425TIP3    H134766   0.801   1.009   2.549  0.9272 -1.4996  1.5982
 4425TIP3    H234767   0.943   1.050   2.518  0.5041 -1.1272  0.0176
 4426TIP3   OH234768   0.673   2.246   4.930  0.1981  0.0996 -0.3438
 4426TIP3    H134769   0.708   2.229   4.842 -0.0358 -0.6026 -0.3075
 4426TIP3    H234770   0.605   2.312   4.916  1.3955  1.3569 -0.4379
 4427TIP3   OH234771   4.557   4.840  13.452 -0.0558 -0.0028 -0.9200
 4427TIP3    H134772   4.592   4.910  13.507  1.2486 -0.0700 -1.6460
 4427TIP3    H234773   4.527   4.884  13.372 -1.4189  0.0156 -0.4347
 4428TIP3   OH234774   0.723   5.993   4.430  0.2990  0.4196 -0.1583
 4428TIP3    H134775   0.688   5.978   4.342 -2.7125  1.4263  0.7586
 4428TIP3    H234776   0.663   5.945   4.488  0.6783  1.8701  1.5188
 4429TIP3   OH234777   6.508   4.280   5.821 -0.3044  0.3435 -0.0922
 4429TIP3    H134778   6.433   4.251   5.768  1.2123 -0.2633 -2.0322
 4429TIP3    H234779   6.546   4.199   5.854 -2.0686  0.7469  3.3503
 4430TIP3   OH234780   6.276   0.538   4.576 -0.3314 -0.5549  0.0020
 4430TIP3    H134781   6.365   0.520   4.604 -0.5474  1.0000  1.9264
 4430TIP3    H234782   6.223   0.525   4.655 -1.5269  0.4071 -0.5998
 4431TIP3   OH234783   6.251   2.582   1.038 -0.7794 -0.4967  0.0103
 4431TIP3    H134784   6.292   2.610   1.120 -0.5064  0.1079 -0.3199
 4431TIP3    H234785   6.199   2.657   1.010 -0.7781 -0.6526 -0.4239
 4432TIP3   OH234786   3.022   1.024   0.380 -0.4742  0.1799  0.3151
 4432TIP3    H134787   3.088   0.955   0.370  1.0191  0.9629  3.4963
 4432TIP3    H234788   2.995   1.017   0.471 -2.3560  2.0582 -0.0430
 4433TIP3   OH234789   2.845   2.006  13.774 -0.3028 -0.0141  0.1409
 4433TIP3    H134790   2.818   1.979  13.861  0.4264  0.4981  0.5376
 4433TIP3    H234791   2.765   2.001  13.721 -0.4077 -1.9534  0.4180
 4434TIP3   OH234792   4.479   5.394   3.859  0.5108 -0.3673 -0.0059
 4434TIP3    H134793   4.458   5.435   3.943  0.2500 -2.5063  1.0347
 4434TIP3    H234794   4.535   5.458   3.815  1.4235  0.4513  2.1768
 4435TIP3   OH234795   3.124   6.227   3.101  0.2298 -0.2797 -0.5350
 4435TIP3    H134796   3.199   6.285   3.113  0.2662  0.0960 -2.2701
 4435TIP3    H234797   3.150   6.170   3.028 -0.8718 -0.6480 -0.6547
 4436TIP3   OH234798   2.948   1.201   6.312 -0.3169 -0.4968 -0.0223
 4436TIP3    H134799   2.871   1.162   6.354 -2.1134  2.6787 -0.0923
 4436TIP3    H234800   2.946   1.293   6.338  2.1664  0.2139 -1.9486
 4437TIP3   OH234801   0.934   5.906  15.738  0.7471 -0.1832  0.3169
 4437TIP3    H134802   1.001   5.951  15.789 -0.5296  0.5644  1.3777
 4437TIP3    H234803   0.969   5.905  15.649  2.9072 -1.3147  1.1087
 4438TIP3   OH234804   3.750   0.137   6.163 -0.0540  0.3221 -0.0309
 4438TIP3    H134805   3.801   0.178   6.093  1.1744  1.1822  1.2983
 4438TIP3    H234806   3.680   0.200   6.181 -0.6680 -0.1255 -0.7842
 4439TIP3   OH234807   6.549   3.649  12.730  0.3112  0.3766 -0.0512
 4439TIP3    H134808   6.485   3.711  12.695  2.2797  0.8961 -3.0238
 4439TIP3    H234809   6.575   3.596  12.655  0.1453 -2.8775  1.9830
 4440TIP3   OH234810   5.119   6.205   1.224  0.0227  0.6242 -0.3434
 4440TIP3    H134811   5.042   6.258   1.246  0.3941  0.7105  0.8343
 4440TIP3    H234812   5.089   6.148   1.153 -1.1928  0.5070  0.2308
 4441TIP3   OH234813   0.465   2.952  15.434 -0.3908 -0.0683 -0.1155
 4441TIP3    H134814   0.481   2.886  15.502  0.5098 -1.7263 -1.8364
 4441TIP3    H234815   0.550   2.996  15.424 -0.9421  1.2952  0.9019
 4442TIP3   OH234816   4.033   4.114   6.227 -0.2757  0.2808 -0.0790
 4442TIP3    H134817   3.947   4.104   6.269 -0.3534 -0.3411 -0.3630
 4442TIP3    H234818   4.066   4.197   6.259  0.0693 -0.5640  1.9228
 4443TIP3   OH234819   1.208   1.320   1.612 -0.0090  0.8782 -0.1114
 4443TIP3    H134820   1.234   1.323   1.520 -0.3918 -0.7381 -0.3042
 4443TIP3    H234821   1.152   1.243   1.618 -0.2836  1.1737  1.4098
 4444TIP3   OH234822   0.732   0.987   3.104 -0.6310 -0.0941 -0.2375
 4444TIP3    H134823   0.637   0.995   3.099 -0.6933 -1.0024 -0.7165
 4444TIP3    H234824   0.765   1.065   3.058 -1.1687 -0.7316 -1.7658
 4445TIP3   OH234825   3.192   3.409  15.604 -0.3687  0.2202  0.6820
 4445TIP3    H134826   3.218   3.451  15.686  1.5556 -1.2018  0.8735
 4445TIP3    H234827   3.251   3.334  15.596 -0.4237  0.3777 -2.0656
 4446TIP3   OH234828   1.328   0.073  12.615  0.3379 -0.0676 -0.1695
 4446TIP3    H134829   1.270   0.017  12.563 -0.3991  0.1355  0.4260
 4446TIP3    H234830   1.416   0.047  12.588  0.0516 -2.0800  0.6157
 4447TIP3   OH234831   2.898   5.433   1.144 -0.2211 -0.1795 -0.0759
 4447TIP3    H134832   2.917   5.343   1.118  1.2354  0.4344 -1.2560
 4447TIP3    H234833   2.945   5.446   1.226  1.3923  0.1478 -1.0230
 4448TIP3   OH234834   0.912   6.083   5.566 -0.1416 -0.2686 -0.4428
 4448TIP3    H134835   0.944   6.059   5.653 -2.1374 -0.8076  0.2029
 4448TIP3    H234836   0.987   6.067   5.508  1.1862 -0.0334  1.1373
 4449TIP3   OH234837   0.449   5.136  13.385 -0.4729  0.2639  0.1747
 4449TIP3    H134838   0.541   5.110  13.380 -0.9158 -1.3337 -0.1877
 4449TIP3    H234839   0.441   5.208  13.322  0.0226 -1.2842 -1.7830
 4450TIP3   OH234840   5.091   1.849   0.596  0.6080  0.0475 -0.0300
 4450TIP3    H134841   5.182   1.874   0.613  0.7929  0.6849 -1.7447
 4450TIP3    H234842   5.075   1.774   0.654  1.6371  1.0388  1.6002
 4451TIP3   OH234843   6.430   4.641  11.951 -0.2758  0.0773  0.4843
 4451TIP3    H134844   6.339   4.629  11.924 -0.1453  0.9433 -0.3935
 4451TIP3    H234845   6.470   4.692  11.880 -0.1336  3.2867  2.6599
 4452TIP3   OH234846   3.067   2.647  13.871 -0.6038 -0.3128 -0.0503
 4452TIP3    H134847   3.114   2.582  13.924 -1.3149 -0.3646  0.5334
 4452TIP3    H234848   3.135   2.688  13.818 -0.0634 -1.1695 -0.0487
 4453TIP3   OH234849   4.460   5.834  12.151 -0.0205 -0.6476  0.1549
 4453TIP3    H134850   4.492   5.868  12.067 -0.1567  2.1651  1.1347
 4453TIP3    H234851   4.534   5.845  12.211 -0.7440 -0.1639  0.9776
 4454TIP3   OH234852   3.477   4.887  10.909 -0.5323 -0.1225 -0.1917
 4454TIP3    H134853   3.447   4.845  10.990 -0.6397  1.7011  0.7755
 4454TIP3    H234854   3.417   4.855  10.842  0.8876 -3.3773 -0.0467
 4455TIP3   OH234855   4.655   5.405  17.117  0.6939  0.3505 -0.2007
 4455TIP3    H134856   4.697   5.359  17.045  0.7926  0.6429 -0.3349
 4455TIP3    H234857   4.561   5.386  17.106  0.6874  0.5494 -0.5251
 4456TIP3   OH234858   0.717   1.981  16.554  0.0377  0.4952 -0.1905
 4456TIP3    H134859   0.621   1.979  16.555  0.0537 -0.2387  0.2992
 4456TIP3    H234860   0.739   2.006  16.464 -0.6197  2.7570  0.1912
 4457TIP3   OH234861   5.058   1.789   6.544 -0.3172 -0.3225 -0.1294
 4457TIP3    H134862   5.016   1.703   6.546  0.6862 -0.8386 -0.3619
 4457TIP3    H234863   5.016   1.835   6.471 -2.4789  0.2807  1.3936
 4458TIP3   OH234864   4.671   6.230  10.810 -0.5255  0.5857  0.0215
 4458TIP3    H134865   4.599   6.260  10.754 -1.3141  0.9197  1.1787
 4458TIP3    H234866   4.697   6.146  10.773 -3.0718 -0.6857  0.8921
 4459TIP3   OH234867   5.888   6.776   6.723 -0.3328 -0.3692 -0.1087
 4459TIP3    H134868   5.817   6.814   6.672 -1.4050  0.7614  2.1098
 4459TIP3    H234869   5.905   6.839   6.793  1.7105 -1.4077  0.4227
 4460TIP3   OH234870   3.533   2.631  15.655 -0.1981  0.4263 -0.1795
 4460TIP3    H134871   3.516   2.722  15.679  0.0455  0.4280 -0.0146
 4460TIP3    H234872   3.559   2.589  15.737  2.7346  0.9122 -0.7435
 4461TIP3   OH234873   3.694   2.604   1.612  0.2534 -0.4144 -0.2345
 4461TIP3    H134874   3.627   2.646   1.558 -0.2159 -0.1415  0.5551
 4461TIP3    H234875   3.670   2.625   1.702  1.3926 -0.3208  0.0641
 4462TIP3   OH234876   1.026   6.758   6.070 -0.0992 -0.5500 -0.1880
 4462TIP3    H134877   0.949   6.738   6.016  1.2037 -1.3975 -1.8477
 4462TIP3    H234878   1.043   6.677   6.118  0.6451 -0.8821 -0.9997
 4463TIP3   OH234879   6.732   6.374  15.060  0.1139  0.2859 -0.2307
 4463TIP3    H134880   6.731   6.278  15.062  1.6236  0.2562  0.1635
 4463TIP3    H234881   6.781   6.399  15.138  0.8747  1.3466 -1.0221
 4464TIP3   OH234882   4.189   2.618   2.765 -0.2339 -0.4821 -0.1148
 4464TIP3    H134883   4.141   2.561   2.705 -0.0470  0.5466 -1.2769
 4464TIP3    H234884   4.123   2.681   2.796 -0.2036 -0.6708  0.3482
 4465TIP3   OH234885   5.235   3.648   3.533  0.0815  0.3044 -0.3569
 4465TIP3    H134886   5.149   3.689   3.536  0.7218  1.7180 -0.3366
 4465TIP3    H234887   5.288   3.700   3.594  0.6273 -1.3342  0.6310
 4466TIP3   OH234888   1.436   1.479   4.865  0.6634  0.7375  0.1841
 4466TIP3    H134889   1.532   1.478   4.868  0.7208  2.7106  0.3479
 4466TIP3    H234890   1.413   1.572   4.865 -1.2688  0.3008  0.3211
 4467TIP3   OH234891   3.447   6.347  11.328  0.2545 -0.7224 -0.3736
 4467TIP3    H134892   3.508   6.417  11.308 -0.3651 -0.9072 -3.2388
 4467TIP3    H234893   3.503   6.274  11.356  1.1175 -0.0556 -0.3133
 4468TIP3   OH234894   4.778   2.301   5.505 -0.1032 -0.2602 -0.4452
 4468TIP3    H134895   4.820   2.370   5.453 -0.6633 -0.5553 -1.2945
 4468TIP3    H234896   4.761   2.343   5.590  2.8513 -0.4355  0.3504
 4469TIP3   OH234897   1.997   0.692  16.125  0.3014  0.4587  0.1046
 4469TIP3    H134898   2.088   0.665  16.116  0.6011  1.3895  0.2046
 4469TIP3    H234899   1.947   0.611  16.119  1.2119 -0.2150  1.2574
 4470TIP3   OH234900   6.356   1.951  17.118 -0.2467 -0.5279 -0.1747
 4470TIP3    H134901   6.326   1.860  17.108  0.6603 -0.8024 -0.4767
 4470TIP3    H234902   6.287   1.993  17.170 -1.7401 -0.8207 -1.8184
 4471TIP3   OH234903   4.260   0.893  10.876  0.2974 -0.3127  0.0620
 4471TIP3    H134904   4.222   0.926  10.958  1.9282  0.0475  0.7327
 4471TIP3    H234905   4.224   0.950  10.808 -0.2395  0.0867  0.6688
 4472TIP3   OH234906   2.257   0.813   4.543  0.1742  0.3489 -0.1239
 4472TIP3    H134907   2.176   0.864   4.539 -0.6146 -0.7469  1.1470
 4472TIP3    H234908   2.252   0.752   4.470  0.4520  1.1136 -0.7922
 4473TIP3   OH234909   3.242   2.832   4.319 -0.0815  0.4921 -0.0555
 4473TIP3    H134910   3.225   2.796   4.406 -0.8452  0.6062 -0.1513
 4473TIP3    H234911   3.274   2.920   4.335 -1.4615  0.9855  0.0818
 4474TIP3   OH234912   4.277   2.130  12.413 -0.3076 -0.6596 -0.1703
 4474TIP3    H134913   4.320   2.051  12.445  0.0082 -0.0969  0.8471
 4474TIP3    H234914   4.185   2.119  12.437 -0.1285 -0.3842  0.6802
 4475TIP3   OH234915   6.008   0.463   2.824 -0.1392  0.7457 -0.3390
 4475TIP3    H134916   5.995   0.374   2.858 -0.6266  1.7097  2.2529
 4475TIP3    H234917   5.920   0.491   2.798  0.0944  0.3384 -1.6673
 4476TIP3   OH234918   3.851   4.543  11.930 -0.5078 -0.1434  0.3161
 4476TIP3    H134919   3.887   4.627  11.958 -0.5374  0.2674 -0.8239
 4476TIP3    H234920   3.887   4.529  11.842 -2.1614 -0.2791 -0.3896
 4477TIP3   OH234921   6.641   4.920  11.203  0.5922 -0.1568 -0.0954
 4477TIP3    H134922   6.600   4.881  11.125  0.1508 -0.7243  0.4050
 4477TIP3    H234923   6.649   4.847  11.265  1.7130  0.1033  0.0893
 4478TIP3   OH234924   6.705   1.848   2.295  0.0987 -0.0928  0.2793
 4478TIP3    H134925   6.722   1.779   2.230 -0.3808 -0.0001  0.0505
 4478TIP3    H234926   6.682   1.800   2.375 -1.5714 -0.2198 -0.2332
 4479TIP3   OH234927   0.001   4.485  14.939  0.2966 -0.5166  0.0424
 4479TIP3    H134928  -0.088   4.513  14.956  0.3360 -0.2855 -0.1300
 4479TIP3    H234929   0.038   4.467  15.026  0.3465  0.1927  0.1764
 4480TIP3   OH234930   5.144   5.989   4.545  0.1110 -0.2286  0.4209
 4480TIP3    H134931   5.211   6.046   4.509  0.6733 -1.3665 -0.3730
 4480TIP3    H234932   5.190   5.933   4.607 -0.6413  0.9230  2.1219
 4481TIP3   OH234933   2.401   3.964  13.749  0.1253 -0.6889 -0.1845
 4481TIP3    H134934   2.473   3.914  13.711 -0.1903  0.2227 -2.1091
 4481TIP3    H234935   2.322   3.922  13.714 -0.1415  1.0823 -1.8766
 4482TIP3   OH234936   0.491   2.393  11.712  0.0681 -0.9030  0.1266
 4482TIP3    H134937   0.465   2.424  11.799 -1.2618 -0.9578 -0.2174
 4482TIP3    H234938   0.412   2.350  11.678  0.3288 -0.2552 -1.3734
 4483TIP3   OH234939   0.029   5.219  10.895 -0.1310 -0.1924  0.4231
 4483TIP3    H134940  -0.012   5.306  10.893 -0.3605 -0.3059 -0.0148
 4483TIP3    H234941   0.121   5.237  10.915 -0.0158  0.2228 -0.4358
 4484TIP3   OH234942   2.757   5.523  13.371 -0.1073 -0.2042 -0.0081
 4484TIP3    H134943   2.806   5.442  13.354 -0.1323 -0.3550  0.6316
 4484TIP3    H234944   2.782   5.581  13.298  1.0291 -0.2751  0.3022
 4485TIP3   OH234945   0.746   6.298   0.883 -0.7022 -0.5040  0.1576
 4485TIP3    H134946   0.795   6.356   0.941 -0.4793 -2.7407  2.3676
 4485TIP3    H234947   0.809   6.231   0.857 -0.8604  0.2821 -2.6327
 4486TIP3   OH234948   0.190   1.974   1.012  0.3193 -0.2611  0.0394
 4486TIP3    H134949   0.266   2.024   1.042  0.0574 -0.1398  0.4980
 4486TIP3    H234950   0.209   1.884   1.036  0.9049 -0.4385 -1.0067
 4487TIP3   OH234951   1.458   5.726   4.117  0.2075 -0.5500  0.5045
 4487TIP3    H134952   1.547   5.692   4.121 -0.3685 -2.0772  1.3321
 4487TIP3    H234953   1.464   5.804   4.063  1.9674 -0.8661  0.1924
 4488TIP3   OH234954   2.215   3.460  11.836 -0.4660  0.1025 -0.0161
 4488TIP3    H134955   2.149   3.416  11.889  0.7635  1.0553  2.4314
 4488TIP3    H234956   2.250   3.391  11.780 -0.2438 -1.5233  2.0303
 4489TIP3   OH234957   6.710   3.229   5.492 -0.3503 -0.6273  0.0536
 4489TIP3    H134958   6.632   3.180   5.519 -1.8960  2.4788  1.6984
 4489TIP3    H234959   6.775   3.208   5.558 -1.4585  0.5366  1.5804
 4490TIP3   OH234960   6.176   4.232   1.360  0.2001 -0.3712 -0.2979
 4490TIP3    H134961   6.228   4.290   1.415  0.7545  1.8046 -2.8769
 4490TIP3    H234962   6.147   4.287   1.287 -1.6740 -2.6939 -1.4841
 4491TIP3   OH234963   2.572   4.414   4.054  0.3161 -0.0129  0.2922
 4491TIP3    H134964   2.633   4.368   4.112 -0.8049 -0.8395  0.8481
 4491TIP3    H234965   2.555   4.352   3.983  0.5924  0.4622 -0.2022
 4492TIP3   OH234966   4.486   1.613   1.700  0.5679  0.4494 -0.4907
 4492TIP3    H134967   4.445   1.564   1.772  0.0167 -2.5771 -2.7087
 4492TIP3    H234968   4.579   1.594   1.707  0.3031 -1.5238 -1.6518
 4493TIP3   OH234969   3.403   2.538  16.242 -0.7213  0.0041  0.7024
 4493TIP3    H134970   3.376   2.527  16.333 -1.4062  1.2854  0.6690
 4493TIP3    H234971   3.324   2.519  16.191 -0.0352 -1.9587  0.2594
 4494TIP3   OH234972   0.820   2.808  17.116  0.6369 -0.0349  0.0668
 4494TIP3    H134973   0.725   2.814  17.112  0.5729 -0.1110  1.1838
 4494TIP3    H234974   0.851   2.872  17.051 -0.1637 -0.9343 -1.2265
 4495TIP3   OH234975   5.149   2.206   6.731  0.3456  0.4878  0.1920
 4495TIP3    H134976   5.055   2.189   6.728  0.4764 -0.1587 -0.5881
 4495TIP3    H234977   5.188   2.137   6.678  1.2918  0.5693  0.7478
 4496TIP3   OH234978   1.557   3.734  12.708 -0.1935  0.5765  0.1086
 4496TIP3    H134979   1.562   3.691  12.794 -0.7551  0.8130  0.2671
 4496TIP3    H234980   1.546   3.662  12.646 -0.1563  0.4268  0.2743
 4497TIP3   OH234981   3.412   1.546   4.838  0.5445  0.1917 -0.2273
 4497TIP3    H134982   3.468   1.540   4.761 -1.1483 -0.0639 -1.5113
 4497TIP3    H234983   3.330   1.505   4.811  0.6231 -2.0846  2.5002
 4498TIP3   OH234984   3.733   0.937   4.309 -0.0760  0.3057  0.2125
 4498TIP3    H134985   3.750   0.943   4.215  1.9089 -1.3311  0.3966
 4498TIP3    H234986   3.793   1.001   4.349  1.2998 -1.0962  0.4924
 4499TIP3   OH234987   5.359   0.790  16.227  0.8579  0.2182  0.4894
 4499TIP3    H134988   5.347   0.771  16.320  0.8261 -1.1694  0.2167
 4499TIP3    H234989   5.335   0.709  16.182 -0.6847  1.3519 -0.8520
 4500TIP3   OH234990   6.084   4.481  15.726 -0.5101 -0.2696 -0.8435
 4500TIP3    H134991   6.052   4.572  15.724  1.0890  0.3135 -2.7600
 4500TIP3    H234992   6.015   4.431  15.683 -0.4774  0.3795 -1.6726
 4501TIP3   OH234993   0.318   4.872   4.492 -0.0789 -0.1016  0.6374
 4501TIP3    H134994   0.242   4.823   4.463 -0.7743  1.0382  0.4943
 4501TIP3    H234995   0.283   4.942   4.546  0.7252  1.3237 -0.6118
 4502TIP3   OH234996   5.679   3.701  17.177  0.0882 -0.1143 -0.3860
 4502TIP3    H134997   5.682   3.696  17.272 -3.1395 -0.5941 -0.1760
 4502TIP3    H234998   5.694   3.611  17.147 -3.0414 -0.8768  0.0248
 4503TIP3   OH234999   0.261   0.010  14.165 -0.3910  0.3182  0.0039
 4503TIP3    H135000   0.334  -0.025  14.114 -0.5903  0.7947 -0.6201
 4503TIP3    H235001   0.245   0.097  14.128 -1.2166  0.2540  0.1936
 4504TIP3   OH235002   1.688   5.063   0.863  0.1432 -0.2192 -0.7422
 4504TIP3    H135003   1.777   5.098   0.869  0.2029 -0.5747  0.8077
 4504TIP3    H235004   1.698   4.970   0.884 -0.5531 -0.3436 -0.9488
 4505TIP3   OH235005   2.304   3.472  15.042  0.2194  0.3557 -0.3147
 4505TIP3    H135006   2.331   3.557  15.006 -0.6457  0.8904  0.2527
 4505TIP3    H235007   2.232   3.444  14.986  1.6508 -0.9030 -1.6146
 4506TIP3   OH235008   1.836   1.818  16.457 -0.2876 -0.1759  0.6036
 4506TIP3    H135009   1.779   1.741  16.463  0.8100 -0.9557  1.2509
 4506TIP3    H235010   1.859   1.838  16.547  1.1190 -0.3791  0.3113
 4507TIP3   OH235011   4.469   5.736  12.700  0.0064  0.2015 -0.4140
 4507TIP3    H135012   4.419   5.656  12.711  0.5364 -0.1284 -0.3895
 4507TIP3    H235013   4.409   5.796  12.656 -0.3610 -0.2382 -0.5168
 4508TIP3   OH235014   5.639   4.894   0.338  0.4047 -0.0919  0.2477
 4508TIP3    H135015   5.561   4.841   0.321  1.4370 -1.8097  0.6197
 4508TIP3    H235016   5.614   4.950   0.412 -1.3504  1.4286 -1.3997
 4509TIP3   OH235017   5.909   6.396   4.796 -0.1027  0.2550  0.2596
 4509TIP3    H135018   6.003   6.410   4.804 -0.1535  0.5729  0.3243
 4509TIP3    H235019   5.887   6.429   4.709 -0.0772 -0.2471  0.0654
 4510TIP3   OH235020   1.368   2.780  15.202  0.0424  0.6297 -0.1602
 4510TIP3    H135021   1.437   2.840  15.174 -0.9102  1.1778 -1.4077
 4510TIP3    H235022   1.289   2.834  15.204 -0.6767 -0.3850 -0.5011
 4511TIP3   OH235023   0.320   2.040  14.528  0.6053  0.2503  0.1301
 4511TIP3    H135024   0.306   1.962  14.475 -0.6757  1.7032 -1.7718
 4511TIP3    H235025   0.315   2.009  14.618 -0.7637 -1.7125 -0.5739
 4512TIP3   OH235026   6.284   0.939  14.851 -0.0517 -0.2347 -0.3060
 4512TIP3    H135027   6.372   0.902  14.855  0.7880  1.6546 -0.1051
 4512TIP3    H235028   6.274   0.968  14.761 -0.0445  0.5059 -0.0742
 4513TIP3   OH235029   3.758   0.629   6.619 -0.5082  0.2118 -0.0943
 4513TIP3    H135030   3.788   0.691   6.552 -1.2094  0.4036 -0.2405
 4513TIP3    H235031   3.811   0.650   6.696  0.2848  0.0048 -0.5723
 4514TIP3   OH235032   6.734   3.262  10.830  0.6129 -0.6894 -0.3347
 4514TIP3    H135033   6.830   3.257  10.826  0.8176  1.3574  0.3270
 4514TIP3    H235034   6.712   3.335  10.772 -0.6590 -1.7499 -1.2238
 4515TIP3   OH235035   0.324   4.921   5.788 -0.1233 -0.5184  0.0811
 4515TIP3    H135036   0.411   4.961   5.794 -0.6568  0.5649  0.9529
 4515TIP3    H235037   0.315   4.898   5.696  1.0257 -0.5027 -0.0533
 4516TIP3   OH235038   2.332   2.434  15.045 -0.3409 -0.1449  0.1425
 4516TIP3    H135039   2.366   2.509  15.093 -1.0483  0.1302  0.2314
 4516TIP3    H235040   2.323   2.465  14.955  1.0784 -0.6898 -0.2111
 4517TIP3   OH235041   1.284   4.835  12.717  0.7083  0.1209  0.1412
 4517TIP3    H135042   1.280   4.931  12.712 -1.1507  0.0283 -1.5664
 4517TIP3    H235043   1.223   4.805  12.649  1.1713 -2.2866  0.6951
 4518TIP3   OH235044   5.961   3.122  14.653  0.1430  0.3009 -0.5602
 4518TIP3    H135045   5.896   3.112  14.582 -0.8722 -1.7162  0.5469
 4518TIP3    H235046   6.032   3.063  14.628 -0.1246 -0.2563 -0.0392
 4519TIP3   OH235047   5.485   3.176   2.100  0.2209  0.5412 -0.0747
 4519TIP3    H135048   5.471   3.145   2.011  0.5782  0.1942 -0.0129
 4519TIP3    H235049   5.399   3.168   2.142  0.3404 -0.5869  0.0001
 4520TIP3   OH235050   5.228   0.533   3.049  0.0926 -0.6821 -0.3575
 4520TIP3    H135051   5.281   0.514   2.971  1.3949  0.1394  0.2927
 4520TIP3    H235052   5.258   0.469   3.114 -0.1393 -0.5897 -0.1596
 4521TIP3   OH235053   0.453   6.103   0.150 -0.0313  0.6003  0.3174
 4521TIP3    H135054   0.476   6.015   0.122  0.6794  0.3908  1.5000
 4521TIP3    H235055   0.531   6.135   0.196 -0.2280  1.8971 -0.2201
 4522TIP3   OH235056   5.383   3.726  14.870 -0.2383 -0.4466  0.0075
 4522TIP3    H135057   5.454   3.665  14.890  0.3543  0.2649  0.1480
 4522TIP3    H235058   5.415   3.811  14.901 -0.9528 -0.0247 -0.3710
 4523TIP3   OH235059   6.775   3.909   3.889  0.4888 -0.1439 -0.1057
 4523TIP3    H135060   6.766   3.937   3.798  3.2506  1.8844  0.1243
 4523TIP3    H235061   6.844   3.964   3.925  0.2759 -1.6314  2.9535
 4524TIP3   OH235062   3.184   4.455  15.818 -0.1703  0.1409  0.3217
 4524TIP3    H135063   3.121   4.480  15.750  0.5698  0.7326 -0.1540
 4524TIP3    H235064   3.268   4.486  15.786  0.0557  1.3682  1.9813
 4525TIP3   OH235065   0.956   4.451   5.342 -0.3437 -0.0072  0.0951
 4525TIP3    H135066   1.017   4.382   5.317  0.2060  1.0904 -1.7836
 4525TIP3    H235067   1.013   4.521   5.375 -0.7155  0.3645 -0.0499
 4526TIP3   OH235068   2.216   3.595  14.479  0.2054 -0.0785 -0.1964
 4526TIP3    H135069   2.287   3.571  14.420 -0.7715 -3.3929 -0.2360
 4526TIP3    H235070   2.222   3.533  14.552 -2.1027  0.0611  0.2114
 4527TIP3   OH235071   3.227   4.916   2.377  0.0232 -0.1005  0.4479
 4527TIP3    H135072   3.235   4.883   2.466 -1.5111 -0.9726  0.3139
 4527TIP3    H235073   3.208   5.009   2.387 -0.3841 -0.2429  1.0496
 4528TIP3   OH235074   0.584   5.385  14.100 -0.2716  0.7200 -0.5965
 4528TIP3    H135075   0.586   5.461  14.042  0.1313  1.7537  0.7194
 4528TIP3    H235076   0.492   5.358  14.101 -0.1094 -0.0938 -2.6329
 4529TIP3   OH235077   1.957   2.227  12.814  0.1649  0.0880 -0.2916
 4529TIP3    H135078   1.931   2.135  12.813 -0.5530  0.2817 -1.6965
 4529TIP3    H235079   1.875   2.275  12.798  0.2832  1.0539  1.6667
 4530TIP3   OH235080   2.538   5.912   2.661 -0.5509  0.3203 -0.2295
 4530TIP3    H135081   2.466   5.857   2.695 -0.1833  0.0586  0.1402
 4530TIP3    H235082   2.611   5.892   2.719  0.4007 -0.8993 -1.7694
 4531TIP3   OH235083   6.316   0.577  15.027  0.0747 -0.1484  0.2076
 4531TIP3    H135084   6.344   0.585  14.936 -0.3347 -2.5724 -0.2107
 4531TIP3    H235085   6.226   0.609  15.028 -0.0509 -0.4759 -0.3414
 4532TIP3   OH235086   5.379   2.526   0.891 -0.2812 -0.3790 -0.0913
 4532TIP3    H135087   5.397   2.550   0.982 -2.6083 -2.2172  0.9733
 4532TIP3    H235088   5.295   2.566   0.872  0.2438  0.0920 -1.5093
 4533TIP3   OH235089   5.106   2.818  15.079 -0.6881 -0.7849 -0.1172
 4533TIP3    H135090   5.090   2.800  14.986  0.2533  1.5577 -0.7972
 4533TIP3    H235091   5.187   2.869  15.080 -1.6785  0.8962  1.8016
 4534TIP3   OH235092   4.317   6.785   1.116  0.3612 -0.6255  0.3360
 4534TIP3    H135093   4.240   6.775   1.171 -0.6815  0.0999 -0.9632
 4534TIP3    H235094   4.342   6.877   1.125  0.9707 -0.8098  0.5967
 4535TIP3   OH235095   3.251   3.074  12.465  0.2849 -0.1602  0.2213
 4535TIP3    H135096   3.302   3.014  12.519  1.8529  2.7844  2.2834
 4535TIP3    H235097   3.316   3.127  12.419 -1.0313 -1.0596 -2.9135
 4536TIP3   OH235098   1.886   5.039   4.392 -0.1676 -0.3662  0.5862
 4536TIP3    H135099   1.966   4.994   4.421  0.4613  1.0885  1.2556
 4536TIP3    H235100   1.906   5.069   4.304  0.7939  1.5765  1.3980
 4537TIP3   OH235101   2.756   6.803   3.319 -0.0795  0.4156  0.4674
 4537TIP3    H135102   2.844   6.798   3.281 -0.6412 -2.0324 -0.6638
 4537TIP3    H235103   2.697   6.787   3.246 -1.4636  1.0693  1.3962
 4538TIP3   OH235104   0.988   5.175   1.000  0.3030 -0.2253 -0.0893
 4538TIP3    H135105   1.063   5.233   0.982  0.2168 -0.2230 -0.4392
 4538TIP3    H235106   1.027   5.099   1.043  0.2242  0.8121  1.9268
 4539TIP3   OH235107   0.030   2.813   4.304  0.4440  0.3535 -0.0908
 4539TIP3    H135108   0.106   2.861   4.271 -0.1897  0.7163 -1.0717
 4539TIP3    H235109   0.067   2.735   4.346  1.3299  0.3088 -0.9163
 4540TIP3   OH235110   2.526   0.076  16.801 -0.4156 -0.0098 -0.1980
 4540TIP3    H135111   2.572   0.147  16.845 -0.1220  0.4544 -1.2313
 4540TIP3    H235112   2.532   0.002  16.861 -2.6748  1.4126  1.9620
 4541TIP3   OH235113   6.363   5.463   5.545  0.1750 -0.2478  0.0343
 4541TIP3    H135114   6.285   5.468   5.601 -0.8113 -1.2170 -1.2009
 4541TIP3    H235115   6.433   5.504   5.597 -0.9026 -0.3301  1.6036
 4542TIP3   OH235116   1.548   6.422   2.318 -0.6105  0.0915  0.4336
 4542TIP3    H135117   1.453   6.433   2.323 -0.9829 -1.6346 -1.4298
 4542TIP3    H235118   1.580   6.505   2.285 -1.7219  0.1277 -0.6692
 4543TIP3   OH235119   4.000   1.456   3.328  0.1293 -0.4123 -0.2697
 4543TIP3    H135120   4.013   1.521   3.259  0.7321 -0.0246  0.1946
 4543TIP3    H235121   3.976   1.507   3.405  3.5427 -0.3377  0.9442
 4544TIP3   OH235122   2.518   4.011  11.486  0.1594  0.2705  0.7394
 4544TIP3    H135123   2.462   4.074  11.442 -0.0258 -0.0095  0.5692
 4544TIP3    H235124   2.607   4.043  11.472  0.3783 -1.3260 -2.4024
 4545TIP3   OH235125   6.032   4.969   0.598  0.5147  0.0763 -0.1633
 4545TIP3    H135126   6.081   5.018   0.532  0.5473  0.0779 -0.1383
 4545TIP3    H235127   5.941   4.997   0.586  0.5938  0.4807  0.1404
 4546TIP3   OH235128   2.930   4.369  14.934  0.2737 -0.3621  0.4784
 4546TIP3    H135129   2.973   4.292  14.898  0.8925 -0.2619  0.9809
 4546TIP3    H235130   2.837   4.349  14.931  0.3073 -0.4119 -1.0376
 4547TIP3   OH235131   2.632   1.837   1.195  0.1783  0.0523 -0.3905
 4547TIP3    H135132   2.728   1.838   1.186  0.1465 -0.2391 -0.7566
 4547TIP3    H235133   2.605   1.923   1.163  0.3443  0.2821  0.0652
 4548TIP3   OH235134   4.804   2.774   5.919  0.3052  0.8045 -0.4090
 4548TIP3    H135135   4.719   2.818   5.918  0.4123  1.0082 -1.3057
 4548TIP3    H235136   4.868   2.846   5.920  0.4715  0.6754 -1.0609
 4549TIP3   OH235137   4.120   1.698   1.522 -0.3354  0.2143 -0.2022
 4549TIP3    H135138   4.180   1.669   1.453 -1.7659  0.2976 -1.5371
 4549TIP3    H235139   4.038   1.653   1.502 -0.4706 -0.8255  2.2482
 4550TIP3   OH235140   3.941   1.449  14.727 -0.5105  0.6102 -0.3203
 4550TIP3    H135141   3.945   1.368  14.677 -1.2690  1.5350 -1.9807
 4550TIP3    H235142   3.950   1.518  14.661  0.4285  1.8822  1.0817
 4551TIP3   OH235143   2.521   5.651  14.512 -0.1401 -0.1917 -0.6362
 4551TIP3    H135144   2.593   5.659  14.574 -1.1872  0.4688  0.5323
 4551TIP3    H235145   2.499   5.558  14.512 -0.2714 -0.1657  0.1621
 4552TIP3   OH235146   4.124   1.554   3.916  0.2837 -0.0291 -0.0011
 4552TIP3    H135147   4.099   1.635   3.873  1.4575 -0.0334 -0.7224
 4552TIP3    H235148   4.201   1.523   3.868  0.9512 -0.6256  1.3849
 4553TIP3   OH235149   2.309   6.475   2.749 -0.3380  0.5986 -0.4201
 4553TIP3    H135150   2.324   6.391   2.705 -1.1018  1.2710 -2.0337
 4553TIP3    H235151   2.374   6.477   2.819  1.1196 -0.4189 -1.6757
 4554TIP3   OH235152   3.090   4.588  11.867 -0.6985  0.4347  0.2175
 4554TIP3    H135153   3.019   4.590  11.803 -1.9314  1.5517  1.5540
 4554TIP3    H235154   3.159   4.642  11.828  0.1844 -1.9698 -1.8389
 4555TIP3   OH235155   0.357   6.664   5.376 -0.2833  0.5957 -0.5215
 4555TIP3    H135156   0.310   6.622   5.304  1.0210  0.2742 -1.2134
 4555TIP3    H235157   0.395   6.592   5.426 -0.1020  0.8669 -0.2628
 4556TIP3   OH235158   0.024   3.603  12.384 -0.8978  0.5895 -0.4550
 4556TIP3    H135159  -0.004   3.670  12.447 -0.9233 -0.7430  0.9941
 4556TIP3    H235160  -0.044   3.605  12.316 -1.5279  1.2198  0.1647
 4557TIP3   OH235161   5.385   0.712  16.493 -0.1392  0.4905 -0.3749
 4557TIP3    H135162   5.470   0.684  16.525  0.1114  1.5955 -0.0410
 4557TIP3    H235163   5.325   0.695  16.565 -0.5486 -1.7927 -1.1571
 4558TIP3   OH235164   0.197   6.142  12.899 -0.3579  0.5883  0.1925
 4558TIP3    H135165   0.165   6.136  12.809  1.0127  0.4965 -0.3204
 4558TIP3    H235166   0.265   6.074  12.904  0.3502  1.3237  0.9508
 4559TIP3   OH235167   5.892   2.787  14.106  0.0993  0.3026  0.0896
 4559TIP3    H135168   5.918   2.697  14.124  0.8396  0.2663 -1.0479
 4559TIP3    H235169   5.972   2.838  14.116 -0.5268  1.0173  1.7471
 4560TIP3   OH235170   2.898   6.020   2.238  0.8547  0.0772  0.3378
 4560TIP3    H135171   2.968   5.978   2.289  1.6525 -0.4483 -1.1440
 4560TIP3    H235172   2.944   6.071   2.172 -0.1383  2.1423  1.1557
 4561TIP3   OH235173   3.073   1.639   5.919 -0.3536 -0.7507  0.3374
 4561TIP3    H135174   3.046   1.697   5.990 -0.8537  0.4376 -0.7837
 4561TIP3    H235175   2.995   1.630   5.865  0.6592  0.3953 -1.3937
 4562TIP3   OH235176   1.747   4.811   4.971 -0.0694 -0.0706 -0.4214
 4562TIP3    H135177   1.680   4.833   4.906 -0.8293  0.0392  0.3890
 4562TIP3    H235178   1.785   4.895   4.995 -0.1449 -0.0575 -0.3466
 4563TIP3   OH235179   1.689   3.343  12.881  0.4861 -1.0891  0.3275
 4563TIP3    H135180   1.777   3.319  12.911  0.1855  0.9045  3.2587
 4563TIP3    H235181   1.693   3.336  12.786  3.8160 -1.0810  0.3529
 4564TIP3   OH235182   3.980   4.816  14.106 -0.0151  0.0015 -0.5718
 4564TIP3    H135183   3.902   4.837  14.055  0.1677 -0.0061 -0.8536
 4564TIP3    H235184   3.971   4.722  14.125 -0.4453  0.1589  0.0329
 4565TIP3   OH235185   1.741   4.692   1.620  0.0540  0.1520 -0.1174
 4565TIP3    H135186   1.730   4.599   1.600  1.2773  0.2171 -1.2643
 4565TIP3    H235187   1.690   4.706   1.700  0.8416 -1.7786  0.7893
 4566TIP3   OH235188   1.273   4.552  13.034  0.4031  0.3281  0.4433
 4566TIP3    H135189   1.251   4.638  13.070 -0.0618  0.0326  0.8784
 4566TIP3    H235190   1.228   4.550  12.949  0.3932  0.5064  0.4438
 4567TIP3   OH235191   0.486   0.087  15.560  0.4233  0.8862  0.3625
 4567TIP3    H135192   0.501   0.133  15.477 -0.9057  1.0918  0.2093
 4567TIP3    H235193   0.390   0.081  15.567  0.5188  0.6804  1.7864
 4568TIP3   OH235194   6.219   6.439  14.792  0.0854  0.3357 -0.0207
 4568TIP3    H135195   6.306   6.400  14.783  1.8108  3.8092  0.0811
 4568TIP3    H235196   6.186   6.447  14.703 -0.4886 -1.5851 -0.0174
 4569TIP3   OH235197   0.932   0.436  12.768 -0.2667  0.0065 -0.6799
 4569TIP3    H135198   0.878   0.448  12.846 -0.1934 -0.5243 -0.5413
 4569TIP3    H235199   1.015   0.478  12.789 -0.1063 -0.4813 -0.3107
 4570TIP3   OH235200   2.835   5.177  13.557  0.1140 -0.1607  0.8404
 4570TIP3    H135201   2.742   5.196  13.568  0.0216 -0.9349  1.4220
 4570TIP3    H235202   2.844   5.159  13.463 -0.3660 -0.3122  0.8170
 4571TIP3   OH235203   6.633   3.016  11.268 -0.1314  0.7782 -0.8495
 4571TIP3    H135204   6.628   3.022  11.173 -0.4637  0.8860 -0.8279
 4571TIP3    H235205   6.718   3.054  11.291  0.5499 -0.4723 -1.2071
 4572TIP3   OH235206   0.527   3.895   3.499 -0.1480  0.1970  0.4754
 4572TIP3    H135207   0.543   3.989   3.493 -0.2847  0.1492 -1.0597
 4572TIP3    H235208   0.601   3.856   3.453 -1.1889 -0.3296 -0.8111
 4573TIP3   OH235209   4.961   6.377   1.520 -0.3481  0.0911  0.3887
 4573TIP3    H135210   4.989   6.441   1.455 -2.2601  1.6079  0.9650
 4573TIP3    H235211   5.006   6.402   1.600 -0.2482  0.0337  0.3502
 4574TIP3   OH235212   1.750   5.748   3.850  0.3530 -0.4517 -0.2266
 4574TIP3    H135213   1.696   5.672   3.832 -2.7259  1.1378  1.4623
 4574TIP3    H235214   1.840   5.714   3.852 -0.8355 -3.9572  0.2570
 4575TIP3   OH235215   1.208   2.743   3.392  0.4338  1.0736  0.1733
 4575TIP3    H135216   1.250   2.829   3.398  0.1614  1.2941 -0.8310
 4575TIP3    H235217   1.133   2.749   3.451  0.4216  1.5262  0.1212
 4576TIP3   OH235218   5.821   5.837   5.622  0.2635  0.0241 -0.4165
 4576TIP3    H135219   5.910   5.853   5.656 -0.7224 -1.9872  3.8255
 4576TIP3    H235220   5.817   5.742   5.611 -0.8351  0.2608 -2.6817
 4577TIP3   OH235221   6.563   2.400  12.102 -0.2937 -0.5861  0.1783
 4577TIP3    H135222   6.475   2.364  12.106  0.5311 -2.6756  0.4685
 4577TIP3    H235223   6.574   2.447  12.184 -0.4146 -2.1468  1.1235
 4578TIP3   OH235224   6.186   3.176   1.925 -0.6354  0.3049  0.2679
 4578TIP3    H135225   6.235   3.102   1.890  1.0219  1.5144 -0.1019
 4578TIP3    H235226   6.195   3.169   2.020 -0.5481 -0.0007  0.2376
 4579TIP3   OH235227   2.815   0.892   1.183 -0.1438 -0.0405 -0.2354
 4579TIP3    H135228   2.777   0.875   1.096  0.3623  1.8523 -0.8871
 4579TIP3    H235229   2.742   0.880   1.243 -0.7795 -0.3206 -1.0369
 4580TIP3   OH235230   0.345   4.414   3.432 -0.0834  0.0828 -0.3740
 4580TIP3    H135231   0.301   4.479   3.487  0.8041  2.3459 -2.1408
 4580TIP3    H235232   0.277   4.350   3.412 -1.5117  1.3685  0.1258
 4581TIP3   OH235233   3.818   4.874  12.760 -0.6254 -0.2268  0.0326
 4581TIP3    H135234   3.799   4.871  12.666 -0.4744  0.5421 -0.0239
 4581TIP3    H235235   3.890   4.936  12.769 -0.1556 -0.8269  0.5877
 4582TIP3   OH235236   4.184   4.854  15.807 -0.1198 -0.7753 -0.2002
 4582TIP3    H135237   4.244   4.923  15.778 -0.2532 -1.2006 -1.5293
 4582TIP3    H235238   4.101   4.874  15.765 -0.1868 -1.6812 -0.5330
 4583TIP3   OH235239   3.284   5.444   6.038 -0.1402  0.7663  0.0632
 4583TIP3    H135240   3.201   5.409   6.004 -0.3366  0.4432  0.8464
 4583TIP3    H235241   3.351   5.388   5.999 -0.3545  0.4623  0.1292
 4584TIP3   OH235242   5.794   4.630   4.628 -0.0342  0.3047 -0.4326
 4584TIP3    H135243   5.850   4.702   4.656  1.1690 -0.6713 -0.2527
 4584TIP3    H235244   5.845   4.583   4.562 -0.6548 -0.5769 -0.3202
 4585TIP3   OH235245   0.116   0.100  14.378 -0.1307  0.4227 -0.5681
 4585TIP3    H135246   0.164   0.068  14.302  0.1390 -2.2549  0.6101
 4585TIP3    H235247   0.038   0.044  14.383 -1.2667  1.9588 -0.0482
 4586TIP3   OH235248   1.987   5.752  13.600 -0.1442 -0.0739  0.4838
 4586TIP3    H135249   2.025   5.684  13.543 -1.5900 -0.8417  0.3825
 4586TIP3    H235250   1.894   5.753  13.577 -0.4686  0.7259  1.7360
 4587TIP3   OH235251   2.920   6.262   2.610 -0.1125 -0.2323  0.2469
 4587TIP3    H135252   2.993   6.221   2.655  0.0916 -1.4786 -1.1477
 4587TIP3    H235253   2.880   6.192   2.559  1.1777  1.4896 -3.4861
 4588TIP3   OH235254   2.225   4.680   1.503  0.1406 -0.6003 -0.0396
 4588TIP3    H135255   2.199   4.596   1.464 -0.5393 -0.5829  0.3609
 4588TIP3    H235256   2.319   4.671   1.518 -0.0419 -1.5737  0.6531
 4589TIP3   OH235257   1.922   4.919   0.595  0.2060 -0.6157  0.1628
 4589TIP3    H135258   1.908   5.013   0.589 -0.5558 -0.6779  0.7697
 4589TIP3    H235259   1.848   4.887   0.648  0.1921 -1.6177 -0.4337
 4590TIP3   OH235260   3.612   4.425  16.404 -0.3277  0.4060 -0.0234
 4590TIP3    H135261   3.622   4.343  16.355  1.8306  0.7326 -0.2362
 4590TIP3    H235262   3.531   4.463  16.372 -1.0296 -1.3117 -0.4041
 4591TIP3   OH235263   4.381   5.637   1.470  0.2733  0.3105  0.2574
 4591TIP3    H135264   4.356   5.720   1.510  0.1625 -1.0897  3.3563
 4591TIP3    H235265   4.302   5.583   1.475  0.6256 -0.3220 -0.7893
 4592TIP3   OH235266   6.189   6.201  13.668 -0.4274 -0.3293  0.5197
 4592TIP3    H135267   6.212   6.214  13.760 -1.1713  0.7705  0.5803
 4592TIP3    H235268   6.247   6.132  13.638  0.9331  0.3824  1.3966
 4593TIP3   OH235269   5.708   3.716   2.503  0.1587 -0.2749 -0.0121
 4593TIP3    H135270   5.692   3.623   2.489  0.1397 -0.3225  0.3100
 4593TIP3    H235271   5.789   3.735   2.454  0.4176 -0.5656  0.3016
 4594TIP3   OH235272   5.794   6.312  12.091  0.2949  1.0845  0.2726
 4594TIP3    H135273   5.766   6.376  12.026 -0.4854  0.5434  0.0511
 4594TIP3    H235274   5.814   6.233  12.040  0.7407  0.9874  0.5874
 4595TIP3   OH235275   6.200   0.785  12.847  0.1955 -0.0521  0.3432
 4595TIP3    H135276   6.169   0.793  12.937 -0.4042  1.0349  0.0613
 4595TIP3    H235277   6.244   0.700  12.844 -0.3116 -0.3731  1.4945
 4596TIP3   OH235278   1.785   2.284   1.535  0.2264 -0.2367 -0.3694
 4596TIP3    H135279   1.732   2.348   1.487 -0.7684 -0.1472  0.8127
 4596TIP3    H235280   1.825   2.335   1.605  1.0071 -0.5315 -0.5946
 4597TIP3   OH235281   1.127   3.283   6.217  0.2697  0.3956 -0.1215
 4597TIP3    H135282   1.059   3.258   6.279  0.3257  1.8937  0.5914
 4597TIP3    H235283   1.079   3.305   6.137  0.0111  0.4529  0.0488
 4598TIP3   OH235284   3.325   2.945   5.946 -0.4861  0.0983 -0.2597
 4598TIP3    H135285   3.314   3.015   6.010 -0.5223 -0.0687 -0.0827
 4598TIP3    H235286   3.350   2.990   5.865 -3.1155  0.5796 -0.9003
 4599TIP3   OH235287   1.109   3.501  15.246 -0.0584  0.4993 -0.2715
 4599TIP3    H135288   1.183   3.448  15.277  0.7736  1.2954 -0.8744
 4599TIP3    H235289   1.066   3.446  15.180 -1.0467 -0.6592  1.2603
 4600TIP3   OH235290   1.324   0.413  16.163 -0.5691 -0.2133  0.0719
 4600TIP3    H135291   1.238   0.405  16.123 -0.7877 -0.9653  0.6792
 4600TIP3    H235292   1.308   0.454  16.248 -0.2131  0.5072 -0.1950
 4601TIP3   OH235293   3.450   3.261   5.221 -0.4110  0.2435 -0.3727
 4601TIP3    H135294   3.451   3.241   5.127 -0.8066 -0.9380 -0.1391
 4601TIP3    H235295   3.358   3.266   5.244 -0.3468 -1.0391  0.2531
 4602TIP3   OH235296   0.970   1.723   5.537  0.2056  0.8011 -0.0539
 4602TIP3    H135297   0.939   1.748   5.624  1.2431  0.8542  0.3241
 4602TIP3    H235298   1.065   1.717   5.547  0.2217 -0.5278 -0.8532
 4603TIP3   OH235299   2.479   2.019  15.860 -0.2271  0.0102 -0.2517
 4603TIP3    H135300   2.467   2.090  15.924 -0.7068  0.4476 -0.8111
 4603TIP3    H235301   2.448   1.941  15.905  0.2763  0.1574  0.3658
 4604TIP3   OH235302   2.459   5.249   0.707 -0.1399  0.3165 -0.0747
 4604TIP3    H135303   2.549   5.246   0.739 -0.1160 -1.6415 -0.1759
 4604TIP3    H235304   2.405   5.251   0.786 -0.0177  0.4271  0.0056
 4605TIP3   OH235305   4.064   2.428   1.559 -0.0993 -0.1835 -0.0914
 4605TIP3    H135306   4.142   2.432   1.614 -0.3675  3.0863  0.2668
 4605TIP3    H235307   4.071   2.344   1.513  2.5323 -0.9164  1.4224
 4606TIP3   OH235308   3.270   0.302  11.501 -0.2468  0.6192 -0.6379
 4606TIP3    H135309   3.298   0.382  11.458  0.9791  0.4030 -0.2579
 4606TIP3    H235310   3.181   0.288  11.468 -0.0632  1.5120 -1.5735
 4607TIP3   OH235311   1.628   3.591  15.986  0.5503  0.3135  0.1205
 4607TIP3    H135312   1.578   3.615  15.907  1.4939  0.1102 -0.5589
 4607TIP3    H235313   1.719   3.613  15.964  0.9077 -0.3321  0.9233
 4608TIP3   OH235314   5.007   0.615   2.155 -0.7857  0.4942  0.0125
 4608TIP3    H135315   4.920   0.603   2.116 -0.5106 -1.6163 -0.0789
 4608TIP3    H235316   5.010   0.550   2.225  0.4687  1.0404  0.4851
 4609TIP3   OH235317   0.824   3.062   2.747 -0.5286 -0.1158 -0.4940
 4609TIP3    H135318   0.821   3.149   2.708  0.2255 -0.6989 -1.9190
 4609TIP3    H235319   0.742   3.020   2.721  0.4101 -0.8688 -2.4441
 4610TIP3   OH235320   0.358   1.091  13.616  0.1794 -0.1524 -0.2328
 4610TIP3    H135321   0.274   1.049  13.635 -0.4030  0.0191 -2.2084
 4610TIP3    H235322   0.357   1.171  13.669 -0.5652 -0.5465  0.3570
 4611TIP3   OH235323   4.003   3.192  16.169 -0.0235 -0.1585  0.5289
 4611TIP3    H135324   4.039   3.272  16.207 -1.6590  0.4401  0.8969
 4611TIP3    H235325   4.065   3.169  16.100  0.5165  1.4014  0.4427
 4612TIP3   OH235326   4.918   0.794   3.087 -0.0370  0.1834  0.4584
 4612TIP3    H135327   4.838   0.785   3.035 -0.2333  0.3092  0.7357
 4612TIP3    H235328   4.901   0.740   3.165  0.1106  0.2868  0.5621
 4613TIP3   OH235329   3.592   3.560   2.870 -0.9398 -0.4155 -0.1808
 4613TIP3    H135330   3.566   3.648   2.897 -0.8753 -0.7925  1.1451
 4613TIP3    H235331   3.509   3.515   2.855 -1.0541 -0.8102  1.4388
 4614TIP3   OH235332   2.828   3.464   5.303  0.1980  0.3680  0.8541
 4614TIP3    H135333   2.822   3.544   5.251 -0.8183 -0.9633 -1.2302
 4614TIP3    H235334   2.885   3.487   5.376 -0.2672  3.0368  0.4802
 4615TIP3   OH235335   2.168   4.852   0.695  0.1619 -0.0630  0.4802
 4615TIP3    H135336   2.117   4.771   0.705 -1.8935  1.2168  1.0129
 4615TIP3    H235337   2.118   4.903   0.631  2.0058  0.3895 -0.6608
 4616TIP3   OH235338   5.562   3.930   2.143 -0.2441 -0.4266  0.2127
 4616TIP3    H135339   5.510   4.001   2.106  0.8538  0.6055  0.5703
 4616TIP3    H235340   5.503   3.855   2.145 -1.3254  0.3768 -0.5181
 4617TIP3   OH235341   4.988   5.082   2.129 -0.5963 -0.1247  0.1420
 4617TIP3    H135342   4.913   5.074   2.189  0.0337 -1.0449  0.8475
 4617TIP3    H235343   5.026   4.994   2.127 -1.3780 -0.4994 -2.7065
 4618TIP3   OH235344   4.938   4.441   4.303  0.0827  0.2240  0.2154
 4618TIP3    H135345   4.936   4.536   4.316  3.1152  0.3340  0.5704
 4618TIP3    H235346   4.944   4.405   4.392  0.4164 -0.2341  0.0103
 4619TIP3   OH235347   3.118   5.315  13.921 -0.1746  0.2544  0.0252
 4619TIP3    H135348   3.134   5.380  13.989 -1.0057 -0.8190  1.2794
 4619TIP3    H235349   3.205   5.289  13.892  0.2003  0.3895  0.9987
 4620TIP3   OH235350   5.084   3.416  16.974  0.3033 -0.0144 -0.0275
 4620TIP3    H135351   5.030   3.338  16.988 -2.2641  1.7442  0.4684
 4620TIP3    H235352   5.101   3.418  16.880 -0.8946 -0.3805 -0.2565
 4621TIP3   OH235353   2.624   0.662  10.689  0.0423  0.0154  0.0927
 4621TIP3    H135354   2.557   0.670  10.621  0.7310 -0.4921 -0.6539
 4621TIP3    H235355   2.692   0.607  10.651  0.4616 -0.2628  1.1835
 4622TIP3   OH235356   5.815   6.423   1.093  0.4145 -0.0244 -0.1633
 4622TIP3    H135357   5.804   6.364   1.167  0.7667  0.6379  0.4317
 4622TIP3    H235358   5.836   6.508   1.132 -0.2242  0.5408 -0.9892
 4623TIP3   OH235359   1.548   3.298   2.929 -0.5172 -0.5769 -0.0788
 4623TIP3    H135360   1.625   3.353   2.942 -1.5402  0.6516  1.1765
 4623TIP3    H235361   1.527   3.306   2.836  1.2419 -1.5197 -0.6110
 4624TIP3   OH235362   2.027   3.069   2.961  0.2392  0.0671 -0.1344
 4624TIP3    H135363   2.122   3.062   2.949  0.7232  2.3049  1.7169
 4624TIP3    H235364   2.000   3.139   2.901  0.6081  2.4949  2.2942
 4625TIP3   OH235365   3.892   3.230   3.423  0.0112 -0.0325 -0.5720
 4625TIP3    H135366   3.876   3.321   3.449  0.0062  0.5992 -2.6293
 4625TIP3    H235367   3.985   3.228   3.401  0.3344 -0.9028  0.7720
 4626TIP3   OH235368   4.909   4.954   1.504  0.4692  0.0114  0.0873
 4626TIP3    H135369   4.818   4.925   1.493  0.0731  0.6648  1.4879
 4626TIP3    H235370   4.907   5.047   1.480  0.5618  0.2680  1.0664
 4627TIP3   OH235371   4.283   3.398  16.768  0.1482  0.3535  0.2444
 4627TIP3    H135372   4.322   3.331  16.712 -2.2287 -0.8202 -0.1245
 4627TIP3    H235373   4.238   3.457  16.708 -1.7798 -0.4804  0.7912
 4628TIP3   OH235374   6.376   6.632   1.578 -0.0032 -0.0486  0.0946
 4628TIP3    H135375   6.367   6.562   1.514  1.2421  0.5274 -0.7402
 4628TIP3    H235376   6.456   6.611   1.627 -0.2580  0.1748  0.6213
 4629TIP3   OH235377   0.781   4.262  17.231 -0.0562  0.5932  0.6830
 4629TIP3    H135378   0.852   4.201  17.215 -0.0809  0.4370  1.1607
 4629TIP3    H235379   0.825   4.344  17.256 -0.0364  0.5914  0.6551
 4630TIP3   OH235380   3.098   3.542   1.881  0.4698  0.5034 -0.3458
 4630TIP3    H135381   3.103   3.490   1.801  1.9327  1.2597 -0.7774
 4630TIP3    H235382   3.124   3.480   1.950  1.5853  0.4570 -0.7761
 4631TIP3   OH235383   3.550   1.255  12.928  0.0031 -0.4971  0.0218
 4631TIP3    H135384   3.605   1.331  12.948  0.3410 -0.2073 -1.7899
 4631TIP3    H235385   3.604   1.201  12.871 -1.0046 -1.0272 -0.4523
 4632TIP3   OH235386   2.235   4.560  15.385  0.0888  0.2728  0.3465
 4632TIP3    H135387   2.252   4.570  15.291  0.3692 -0.3737  0.3254
 4632TIP3    H235388   2.170   4.490  15.390  0.8040 -0.3733  0.6881
 4633TIP3   OH235389   3.151   0.329   0.727 -0.4710  0.4944 -0.4612
 4633TIP3    H135390   3.185   0.380   0.800 -1.5239  0.3441  0.1406
 4633TIP3    H235391   3.188   0.371   0.649  0.6314  0.6725  0.1426
 4634TIP3   OH235392   5.451   2.301   5.552  0.0777  0.1304  0.4293
 4634TIP3    H135393   5.505   2.252   5.615 -0.6872 -1.1208  0.1483
 4634TIP3    H235394   5.477   2.268   5.467 -0.5922  0.0617  0.2454
 4635TIP3   OH235395   3.228   1.839   2.722  0.3730 -0.6862 -0.0465
 4635TIP3    H135396   3.181   1.790   2.654  1.1454 -0.7096 -0.5727
 4635TIP3    H235397   3.255   1.773   2.785  1.3282 -0.9423 -0.7038
 4636TIP3   OH235398   3.900   4.263   4.885 -0.0677  0.0048  0.2137
 4636TIP3    H135399   3.866   4.317   4.956  0.2406 -0.1365  0.4721
 4636TIP3    H235400   3.908   4.175   4.923  1.1975  0.1628  0.3736
 4637TIP3   OH235401   4.891   1.932  15.769  0.1455 -1.0041 -0.5118
 4637TIP3    H135402   4.921   1.891  15.688  0.9143 -0.2546 -0.6277
 4637TIP3    H235403   4.959   1.996  15.790 -0.4389 -0.6209  0.2901
 4638TIP3   OH235404   5.755   0.583  13.204 -0.1048 -0.9292  0.3696
 4638TIP3    H135405   5.750   0.510  13.143  0.5396 -0.7700  0.1111
 4638TIP3    H235406   5.810   0.551  13.276  1.7270 -0.1383 -0.6094
 4639TIP3   OH235407   4.854   6.622  13.315  0.2920  0.2250  0.2839
 4639TIP3    H135408   4.806   6.540  13.312 -0.8308  0.7590  2.1247
 4639TIP3    H235409   4.804   6.681  13.259  0.1460  0.1230  0.3069
 4640TIP3   OH235410   2.258   6.409  12.077 -0.0153 -0.4060  0.1403
 4640TIP3    H135411   2.221   6.324  12.102  0.0963 -0.6083 -0.3820
 4640TIP3    H235412   2.346   6.407  12.115  0.1594 -0.7195 -0.2758
 4641TIP3   OH235413   2.424   3.064   3.291 -0.1139 -0.2268  0.1115
 4641TIP3    H135414   2.448   2.975   3.267 -1.6477 -0.7207  0.2747
 4641TIP3    H235415   2.466   3.079   3.376  0.8885 -0.4541 -0.3390
 4642TIP3   OH235416   1.094   3.386  13.987 -0.1585  0.8816 -0.1512
 4642TIP3    H135417   1.118   3.404  14.078 -1.3687  2.4061 -0.0889
 4642TIP3    H235418   1.076   3.472  13.949 -0.7006  0.1955 -1.5396
 4643TIP3   OH235419   3.643   5.091   2.167  0.0278  0.5146 -0.1718
 4643TIP3    H135420   3.697   5.152   2.116 -0.0825  0.5319 -0.2695
 4643TIP3    H235421   3.705   5.029   2.205  0.0873  0.3395 -0.5477
 4644TIP3   OH235422   3.770   1.823  11.758  0.3698 -0.0270  0.3105
 4644TIP3    H135423   3.679   1.842  11.734  0.1202 -1.0094  0.4295
 4644TIP3    H235424   3.779   1.858  11.847  0.3511  0.7786  0.0062
 4645TIP3   OH235425   3.379   5.464  13.508  0.5122  0.1521 -0.4449
 4645TIP3    H135426   3.450   5.425  13.559 -2.1295 -2.2895  1.7593
 4645TIP3    H235427   3.342   5.391  13.458 -1.4523  0.9052 -0.1914
 4646TIP3   OH235428   0.497   0.986  11.584  0.7440 -0.1666  0.1894
 4646TIP3    H135429   0.574   1.041  11.602  1.1610 -0.8012  0.3528
 4646TIP3    H235430   0.423   1.041  11.609  1.0804  0.8776 -1.0206
 4647TIP3   OH235431   3.490   2.465   0.670  0.1897 -0.4182 -0.0465
 4647TIP3    H135432   3.490   2.561   0.673 -1.2499 -0.4281  2.5967
 4647TIP3    H235433   3.575   2.440   0.707  0.1214 -0.1713  0.2819
 4648TIP3   OH235434   0.984   5.990   3.763 -0.0984 -0.1044 -0.8680
 4648TIP3    H135435   0.989   5.959   3.672 -1.5834 -1.0557 -0.6620
 4648TIP3    H235436   0.994   5.910   3.815 -0.4761  0.2638 -0.2274
 4649TIP3   OH235437   5.043   3.250  16.725 -0.6365  0.5769  0.4674
 4649TIP3    H135438   4.952   3.223  16.714 -0.4933  0.1262  0.3772
 4649TIP3    H235439   5.082   3.181  16.779 -0.4409  0.9584  0.8192
 4650TIP3   OH235440   2.998   1.489   4.197  0.0769 -0.6114 -0.1501
 4650TIP3    H135441   2.903   1.479   4.201  0.2245 -1.9105  0.7342
 4650TIP3    H235442   3.023   1.448   4.114 -0.0794 -0.7975 -0.1047
 4651TIP3   OH235443   5.926   1.627   0.058  0.0355 -0.1708  0.9012
 4651TIP3    H135444   5.959   1.716   0.065 -3.4723  1.2187  1.4438
 4651TIP3    H235445   5.950   1.600  -0.031  0.6774  1.5156  0.5318
 4652TIP3   OH235446   0.425   1.655  16.668  0.3330 -0.5315 -0.6483
 4652TIP3    H135447   0.434   1.635  16.761  2.6660 -0.7877 -0.8773
 4652TIP3    H235448   0.410   1.570  16.626  1.7557 -0.7537 -0.7389
 4653TIP3   OH235449   2.000   2.132   1.838  0.4301 -0.6502 -0.5118
 4653TIP3    H135450   1.970   2.221   1.822 -1.0338 -0.9496  0.3856
 4653TIP3    H235451   1.962   2.081   1.766  1.0807 -0.6127 -0.8968
 4654TIP3   OH235452   5.883   3.784  16.610 -0.0627  0.3672 -0.4304
 4654TIP3    H135453   5.865   3.832  16.529 -0.1517  0.6664 -0.2343
 4654TIP3    H235454   5.974   3.757  16.602  0.7359  2.5468  0.4502
 4655TIP3   OH235455   2.258   6.550  14.109 -0.4071  0.0383 -0.3522
 4655TIP3    H135456   2.324   6.614  14.082 -1.1522  0.4315 -1.3116
 4655TIP3    H235457   2.300   6.465  14.096  0.7466  0.3028  1.3378
 4656TIP3   OH235458   5.854   0.445   0.001 -0.0141 -0.4075  0.0288
 4656TIP3    H135459   5.902   0.519  -0.036 -0.4616 -0.7298 -1.2524
 4656TIP3    H235460   5.919   0.398   0.054  0.3371  0.7370  0.6368
 4657TIP3   OH235461   1.838   1.299  15.923 -0.0156  0.1602  0.0673
 4657TIP3    H135462   1.921   1.291  15.877  0.6059 -1.6888  1.4152
 4657TIP3    H235463   1.850   1.252  16.005 -2.7520 -1.2827 -0.2149
 4658TIP3   OH235464   5.698   0.408  15.912 -0.3437  0.3643  0.6265
 4658TIP3    H135465   5.673   0.405  16.005 -0.0865 -1.0030  0.6749
 4658TIP3    H235466   5.734   0.321  15.894  1.2640  1.1656 -0.3099
 4659TIP3   OH235467   2.339   0.024   5.719 -0.4746 -0.4636  0.0166
 4659TIP3    H135468   2.351  -0.046   5.782 -0.6283  0.3880  1.0127
 4659TIP3    H235469   2.428   0.058   5.703 -0.7238  2.2552  3.2508
 4660TIP3   OH235470   0.951   1.702   1.115 -0.1226 -0.5167 -0.8364
 4660TIP3    H135471   0.954   1.624   1.059 -0.2235 -1.2464  0.1294
 4660TIP3    H235472   0.889   1.761   1.072 -1.3475 -1.6817 -0.7581
 4661TIP3   OH235473   6.638   1.245   0.811 -0.8431  0.3527 -0.1804
 4661TIP3    H135474   6.654   1.168   0.864  2.1223  1.0761  0.1400
 4661TIP3    H235475   6.609   1.211   0.726  0.1433 -1.1116  0.0430
 4662TIP3   OH235476   2.957   3.309  13.376  0.1495  0.4329  0.2415
 4662TIP3    H135477   3.012   3.240  13.338 -0.7450 -0.2235  0.1090
 4662TIP3    H235478   3.014   3.354  13.438  0.9452  0.0163 -0.1751
 4663TIP3   OH235479   0.848   3.738   2.306 -0.2203  0.4087  0.5686
 4663TIP3    H135480   0.834   3.703   2.395  1.5378  1.2400  1.2025
 4663TIP3    H235481   0.882   3.663   2.257 -0.2813  0.1905  0.8522
 4664TIP3   OH235482   6.340   6.277   3.255 -0.2198  0.3557  0.0199
 4664TIP3    H135483   6.425   6.314   3.277  0.6591 -1.2174 -0.5169
 4664TIP3    H235484   6.339   6.192   3.299 -0.9401 -0.2123 -1.0386
 4665TIP3   OH235485   2.968   6.576  11.918 -0.2199 -0.2246 -0.0338
 4665TIP3    H135486   3.008   6.490  11.928 -1.1502 -0.9865 -2.2884
 4665TIP3    H235487   3.032   6.627  11.868 -1.1180 -0.8002 -1.8534
 4666TIP3   OH235488   4.643   6.241  16.926  0.2275 -0.3850 -0.4737
 4666TIP3    H135489   4.608   6.321  16.966  1.2899  0.5718 -1.3989
 4666TIP3    H235490   4.711   6.272  16.866 -1.0678 -1.7721 -2.8003
 4667TIP3   OH235491   1.761   0.117   2.108  0.2056  0.3411 -0.2952
 4667TIP3    H135492   1.768   0.058   2.183 -1.6656  1.0501  0.4673
 4667TIP3    H235493   1.669   0.116   2.084  0.7018  0.3717 -2.4243
 4668TIP3   OH235494   4.990   0.414  11.255 -0.4285 -0.2021  0.0953
 4668TIP3    H135495   4.958   0.490  11.207 -2.2182 -0.9077  0.0969
 4668TIP3    H235496   4.976   0.436  11.347  2.8814  1.0994  0.4233
 4669TIP3   OH235497   6.068   1.564   3.349 -0.3595 -0.3459 -0.0797
 4669TIP3    H135498   6.013   1.635   3.314 -0.8948 -0.1345  1.1133
 4669TIP3    H235499   6.129   1.609   3.408  0.0357 -0.7656 -0.1691
 4670TIP3   OH235500   6.141   5.018  12.905 -0.0547  0.4633  0.0961
 4670TIP3    H135501   6.213   4.955  12.905 -0.4266  0.0228 -0.7814
 4670TIP3    H235502   6.165   5.082  12.839 -0.8502 -0.1556 -0.8156
 4671TIP3   OH235503   0.875   3.040  14.510 -0.4028  0.5103  0.5142
 4671TIP3    H135504   0.930   3.116  14.494 -3.6798  2.7222 -1.4947
 4671TIP3    H235505   0.835   3.057  14.595 -1.8152  1.6030 -0.3275
 4672TIP3   OH235506   6.483   0.746   0.290 -0.0195 -0.1439  0.4595
 4672TIP3    H135507   6.510   0.701   0.371 -1.0716 -0.7779  0.4754
 4672TIP3    H235508   6.492   0.679   0.222 -2.8198 -0.8754  0.6764
 4673TIP3   OH235509   2.704   5.018   1.060 -0.5401 -1.0040 -0.1939
 4673TIP3    H135510   2.650   5.075   1.006  1.1107 -0.2262 -1.0823
 4673TIP3    H235511   2.692   4.931   1.022 -1.5755 -0.9414 -0.0315
 4674TIP3   OH235512   3.074   4.444  12.091  0.1808  0.4000  0.3960
 4674TIP3    H135513   3.063   4.483  12.004  1.5957  2.1238  0.9331
 4674TIP3    H235514   3.163   4.468  12.117 -0.4852  0.6374  2.6487
 4675TIP3   OH235515   0.602   5.600  12.645 -0.4046  0.2753  0.0539
 4675TIP3    H135516   0.650   5.669  12.598 -2.6902  1.1481 -1.1407
 4675TIP3    H235517   0.655   5.522  12.632  1.9138  1.6135  0.8507
 4676TIP3   OH235518   0.360   1.268   1.613 -0.1176  0.1044  0.4040
 4676TIP3    H135519   0.433   1.273   1.551 -0.6386 -0.9500 -0.3186
 4676TIP3    H235520   0.401   1.267   1.699  0.6329  1.2720  0.0771
 4677TIP3   OH235521   0.599   2.284  17.179 -0.5098  0.4084 -0.1150
 4677TIP3    H135522   0.550   2.325  17.108 -0.9240  0.4764  0.2023
 4677TIP3    H235523   0.571   2.193  17.179  0.5877  0.0439 -0.9747
 4678TIP3   OH235524   1.733   5.507  15.057 -0.0573 -0.1836  0.0976
 4678TIP3    H135525   1.655   5.533  15.106  0.5541  0.0531  0.9740
 4678TIP3    H235526   1.747   5.415  15.081  0.1927 -0.0929  0.3035
 4679TIP3   OH235527   4.691   5.740  11.304 -0.3521 -0.1810 -0.7562
 4679TIP3    H135528   4.693   5.719  11.211  2.0475 -1.0610 -0.5755
 4679TIP3    H235529   4.756   5.682  11.344 -1.1186  0.3466  1.4501
 4680TIP3   OH235530   2.841   4.407   3.410 -0.3333  0.5559  0.2437
 4680TIP3    H135531   2.771   4.399   3.475 -1.2622  0.2622 -0.7541
 4680TIP3    H235532   2.917   4.437   3.460 -1.0147  0.3453  1.4527
 4681TIP3   OH235533   6.210   5.057  16.607 -0.1995  0.0972  0.3303
 4681TIP3    H135534   6.181   5.000  16.678  0.7389 -1.5997 -0.5906
 4681TIP3    H235535   6.300   5.080  16.631  0.3974 -1.1131 -0.6319
 4682TIP3   OH235536   1.523   1.143  12.841 -0.1256  0.4750 -0.0687
 4682TIP3    H135537   1.573   1.064  12.822 -0.7734 -0.5057  2.0534
 4682TIP3    H235538   1.549   1.167  12.930 -1.4067  1.5069  0.0579
 4683TIP3   OH235539   4.816   3.953   1.383  0.5955  0.2954 -0.4818
 4683TIP3    H135540   4.873   3.956   1.306  0.4827  1.2266 -0.5413
 4683TIP3    H235541   4.747   4.017   1.364 -0.0067 -0.2109 -0.0462
 4684TIP3   OH235542   3.462   0.938   0.166  0.1135 -0.4279 -0.3024
 4684TIP3    H135543   3.517   0.933   0.245 -0.7868  3.8052  0.8130
 4684TIP3    H235544   3.374   0.919   0.198 -0.3022  1.6145 -0.0935
 4685TIP3   OH235545   0.022   3.489   5.771  0.0016 -0.0032  0.4763
 4685TIP3    H135546  -0.049   3.491   5.707 -1.2133  0.0347  1.7893
 4685TIP3    H235547   0.039   3.396   5.787  0.8615 -0.0284 -0.4579
 4686TIP3   OH235548   0.670   6.820  15.769 -0.5351 -0.3240  0.5168
 4686TIP3    H135549   0.642   6.830  15.678  1.5662  1.7490 -0.0027
 4686TIP3    H235550   0.600   6.861  15.820 -1.1860 -0.4347 -0.2664
 4687TIP3   OH235551   0.791   6.730   5.956 -0.3125  0.0930  0.0340
 4687TIP3    H135552   0.741   6.698   6.031 -0.5596 -0.3363 -0.3089
 4687TIP3    H235553   0.763   6.675   5.883  1.1990 -0.6455 -0.0154
 4688TIP3   OH235554   1.454   1.958   0.330 -1.0229  0.0384  0.0904
 4688TIP3    H135555   1.539   1.999   0.343 -1.2283  1.4005 -2.2352
 4688TIP3    H235556   1.391   2.031   0.333 -1.9546 -0.7496  0.4222
 4689TIP3   OH235557   4.825   0.455   3.957 -0.1436  0.0502 -0.0962
 4689TIP3    H135558   4.894   0.389   3.954 -0.4190 -0.2368 -0.2522
 4689TIP3    H235559   4.853   0.524   3.897 -0.7988 -0.8723 -1.5096
 4690TIP3   OH235560   4.474   3.830   1.265 -0.0148  0.0184  0.1102
 4690TIP3    H135561   4.566   3.818   1.242 -0.0963  0.1277 -0.2798
 4690TIP3    H235562   4.447   3.746   1.302  0.4602  0.2409  0.9978
 4691TIP3   OH235563   0.177   5.128   4.268 -0.2474  0.2055  0.5832
 4691TIP3    H135564   0.121   5.149   4.194  0.4223 -0.3427 -0.1079
 4691TIP3    H235565   0.122   5.076   4.326 -0.6093  0.1055  0.1598
 4692TIP3   OH235566   5.878   5.699   5.155 -0.0946 -0.2209 -0.1577
 4692TIP3    H135567   5.876   5.786   5.193  0.7076  0.4331 -1.5540
 4692TIP3    H235568   5.937   5.649   5.212 -0.0992  0.2964  0.3112
 4693TIP3   OH235569   3.482   4.738  14.755 -0.9375 -0.6522  0.2153
 4693TIP3    H135570   3.455   4.742  14.664 -1.4928 -0.7502  0.3696
 4693TIP3    H235571   3.559   4.795  14.760 -0.7133 -0.8943 -0.3753
 4694TIP3   OH235572   1.744   4.905  17.227 -0.1473 -0.1868  0.1223
 4694TIP3    H135573   1.771   4.960  17.301 -2.5106  2.0610 -0.5149
 4694TIP3    H235574   1.680   4.844  17.264  1.3802 -1.5882  0.5501
 4695TIP3   OH235575   3.802   0.448   0.102 -0.0256 -0.1215 -0.1146
 4695TIP3    H135576   3.768   0.382   0.162 -0.0924 -1.0052 -1.1118
 4695TIP3    H235577   3.848   0.399   0.035 -0.2279  0.8315 -0.9807
 4696TIP3   OH235578   1.002   0.158  14.249 -0.4653 -0.2760 -0.1614
 4696TIP3    H135579   0.934   0.092  14.236 -0.4156 -0.1532 -1.0628
 4696TIP3    H235580   0.991   0.220  14.178  0.4683 -0.1467 -0.2130
 4697TIP3   OH235581   1.104   0.445  14.438  0.2204  0.0175 -0.1178
 4697TIP3    H135582   1.172   0.494  14.484 -0.2268  2.0811 -1.5270
 4697TIP3    H235583   1.145   0.418  14.356 -0.1853 -0.0674 -0.2939
 4698TIP3   OH235584   6.527   5.056   2.898  0.9873 -0.6140  0.6708
 4698TIP3    H135585   6.485   5.011   2.971 -0.7280 -0.1465  0.0093
 4698TIP3    H235586   6.555   5.140   2.934  0.0190 -0.3290  0.7714
 4699TIP3   OH235587   5.973   4.958  16.776  0.3804  0.1524 -0.5088
 4699TIP3    H135588   5.905   4.963  16.842  0.5469  0.9640 -0.3938
 4699TIP3    H235589   6.052   4.987  16.820  1.1780 -2.2495 -0.1850
 4700TIP3   OH235590   4.195   2.626   4.585  0.4911  0.0398  0.3721
 4700TIP3    H135591   4.173   2.714   4.613  0.1362  0.5934 -1.4991
 4700TIP3    H235592   4.149   2.615   4.502 -1.0570 -2.6427  1.4789
 4701TIP3   OH235593   4.889   4.428   4.598 -0.0328 -0.0755  0.1946
 4701TIP3    H135594   4.911   4.521   4.597 -1.5536  0.3269  0.7944
 4701TIP3    H235595   4.793   4.426   4.595 -0.0532 -1.5941  0.8272
 4702TIP3   OH235596   1.198   1.667   0.141  0.5139 -0.2526 -0.1916
 4702TIP3    H135597   1.181   1.612   0.218 -2.1363  0.3923 -0.2160
 4702TIP3    H235598   1.208   1.606   0.069 -0.3350 -0.7772  0.1245
 4703TIP3   OH235599   6.225   3.949   0.035 -0.2065  0.7725  0.2797
 4703TIP3    H135600   6.267   3.981   0.115  0.1256 -0.4467  0.6112
 4703TIP3    H235601   6.295   3.902  -0.011 -0.8624 -0.1162  0.1724
 4704TIP3   OH235602   6.245   6.373   4.294 -0.2662 -0.5178 -0.1521
 4704TIP3    H135603   6.225   6.466   4.292 -0.5170 -0.5472  0.7997
 4704TIP3    H235604   6.319   6.364   4.233  2.8532  1.0939  3.0298
 4705TIP3   OH235605   2.964   2.725  12.893 -0.1647 -0.5637  0.2827
 4705TIP3    H135606   3.004   2.777  12.822 -1.2616 -1.2842 -0.8995
 4705TIP3    H235607   3.037   2.673  12.927  0.3705 -0.2626 -0.3603
 4706TIP3   OH235608   0.077   1.493  10.881  0.2333 -0.4460  0.5597
 4706TIP3    H135609   0.047   1.404  10.863 -1.7054  0.1367  0.7043
 4706TIP3    H235610   0.110   1.525  10.797 -1.1571 -0.5479 -0.0467
 4707TIP3   OH235611   0.099   4.992  15.511 -0.1073  0.2618  0.3189
 4707TIP3    H135612   0.012   4.953  15.525  0.3368 -1.8817 -2.1245
 4707TIP3    H235613   0.151   4.962  15.585 -0.6876 -1.1225  0.2095
 4708TIP3   OH235614   4.347   1.233  12.739 -0.0551 -0.3034 -0.5973
 4708TIP3    H135615   4.318   1.324  12.732  0.7809  0.3104  2.3314
 4708TIP3    H235616   4.410   1.222  12.668  0.8235  1.8771 -0.2598
 4709TIP3   OH235617   3.069   5.452  15.278 -0.5284 -0.3358 -0.3340
 4709TIP3    H135618   3.022   5.375  15.245 -0.3566  0.2740 -2.1053
 4709TIP3    H235619   3.161   5.429  15.269 -0.4276 -0.9289  1.6875
 4710TIP3   OH235620   1.022   5.303  16.847 -0.0474 -0.0600  0.3246
 4710TIP3    H135621   1.106   5.271  16.880  0.0420 -1.3754 -1.0833
 4710TIP3    H235622   1.001   5.378  16.903  2.9169  1.4339 -0.3482
 4711TIP3   OH235623   6.164   3.491  16.175 -0.1153  0.0971  0.3349
 4711TIP3    H135624   6.146   3.549  16.249 -1.1278 -0.0442  0.2132
 4711TIP3    H235625   6.259   3.492  16.167 -0.1232  2.3086 -0.1244
 4712TIP3   OH235626   3.345   0.639  13.766 -0.1729 -0.2640  0.9102
 4712TIP3    H135627   3.254   0.663  13.750 -0.4456 -0.0901  2.5132
 4712TIP3    H235628   3.343   0.546  13.786  0.5586 -1.2112 -2.7953
 4713TIP3   OH235629   5.333   6.062   2.423  0.4535  0.2384 -0.2050
 4713TIP3    H135630   5.244   6.085   2.398  0.2345  1.1353  1.3032
 4713TIP3    H235631   5.387   6.132   2.385  0.6081 -0.5524 -1.5184
 4714TIP3   OH235632   1.921   3.669  16.980  0.8285 -0.0763  0.5949
 4714TIP3    H135633   1.981   3.607  17.022 -0.1481 -1.3736  0.1516
 4714TIP3    H235634   1.901   3.628  16.896 -0.7045  0.3175  0.7504
 4715TIP3   OH235635   1.392   5.282   4.752 -0.1048  0.1975  0.3345
 4715TIP3    H135636   1.480   5.272   4.715 -1.0000  0.4057 -2.0312
 4715TIP3    H235637   1.371   5.375   4.741 -0.3611  0.3043  1.5734
 4716TIP3   OH235638   2.310   3.791   4.772 -0.2939 -0.4293  0.4746
 4716TIP3    H135639   2.356   3.846   4.708  1.0654  0.0952  1.8450
 4716TIP3    H235640   2.233   3.842   4.797 -0.2386 -0.1515  0.0852
 4717TIP3   OH235641   1.065   1.074   1.055 -0.0156  0.0256  0.5277
 4717TIP3    H135642   1.059   1.096   0.962 -0.5726 -1.4677  0.1695
 4717TIP3    H235643   1.024   1.148   1.100 -0.1155  0.5844 -0.4471
 4718TIP3   OH235644   2.031   1.482  10.513  0.0282 -0.1874  0.0630
 4718TIP3    H135645   2.126   1.495  10.511  0.4261 -2.2720 -3.1601
 4718TIP3    H235646   2.020   1.390  10.537 -1.2127  0.0521  0.5063
 4719TIP3   OH235647   1.129   3.253   3.052  0.2366 -0.6377  0.4390
 4719TIP3    H135648   1.044   3.210   3.041  0.1826 -0.2859 -0.6629
 4719TIP3    H235649   1.113   3.322   3.117  0.0145 -1.4221  1.2339
 4720TIP3   OH235650   5.404   0.486   2.113  0.0541  0.2009  0.6516
 4720TIP3    H135651   5.361   0.555   2.163 -0.1311  0.2705  0.4006
 4720TIP3    H235652   5.350   0.408   2.129  1.1254 -0.2776  2.1836
 4721TIP3   OH235653   0.353   1.421   3.043 -1.1062  0.3871 -0.0614
 4721TIP3    H135654   0.302   1.477   3.103 -1.5280  0.8007 -0.7938
 4721TIP3    H235655   0.339   1.460   2.957 -0.8042 -0.4239 -0.4808
 4722TIP3   OH235656   4.275   5.799  14.097 -0.1678  0.2795  0.3002
 4722TIP3    H135657   4.261   5.829  14.007 -0.9945  0.7253  0.5652
 4722TIP3    H235658   4.187   5.777  14.129 -0.0656  1.4302  1.4535
 4723TIP3   OH235659   4.024   0.016   0.522 -0.4384 -0.1376 -0.0058
 4723TIP3    H135660   3.999  -0.051   0.458 -0.2812  0.8241 -1.1217
 4723TIP3    H235661   4.117   0.031   0.506 -0.4708  0.3424  0.2171
 4724TIP3   OH235662   3.223   2.436  14.653 -0.0984 -0.1511 -0.0600
 4724TIP3    H135663   3.304   2.481  14.627 -0.9160  1.0699 -0.5671
 4724TIP3    H235664   3.176   2.500  14.706  0.0203 -1.4517  1.6912
 4725TIP3   OH235665   4.289   6.546  12.732  0.6524  0.4795  0.1082
 4725TIP3    H135666   4.240   6.538  12.650  0.6330  1.0233  0.0633
 4725TIP3    H235667   4.379   6.522  12.708  1.1886  3.0060 -0.6636
 4726TIP3   OH235668   1.895   6.723   0.030  0.1010 -0.0940 -0.5237
 4726TIP3    H135669   1.828   6.660   0.003 -0.5201  0.6399 -0.7242
 4726TIP3    H235670   1.968   6.708  -0.030 -0.1053 -0.5121 -0.6679
 4727TIP3   OH235671   4.802   5.730  16.809  0.0479 -0.2797  0.6086
 4727TIP3    H135672   4.734   5.750  16.873 -0.5589  0.2764 -0.2015
 4727TIP3    H235673   4.842   5.649  16.842 -0.9734 -0.5921  1.1081
 4728TIP3   OH235674   5.271   4.193  16.818 -0.4568 -0.1175  0.3035
 4728TIP3    H135675   5.280   4.222  16.727 -1.6241 -1.1478 -0.1575
 4728TIP3    H235676   5.360   4.203  16.854 -0.5380  2.9734 -0.0874
 4729TIP3   OH235677   2.401   4.401   5.912  0.4409  0.2205  1.0879
 4729TIP3    H135678   2.427   4.406   6.004  0.5421  0.1911  1.0620
 4729TIP3    H235679   2.339   4.472   5.900  0.2928  0.1134  1.2231
 4730TIP3   OH235680   6.570   4.526   2.226  0.6396  0.0729 -0.3322
 4730TIP3    H135681   6.527   4.481   2.299  1.3692 -0.0898  0.0012
 4730TIP3    H235682   6.546   4.618   2.237  0.7321  0.0446  0.0993
 4731TIP3   OH235683   1.838   5.551  14.184 -0.1350  0.2291  0.6005
 4731TIP3    H135684   1.825   5.473  14.132  1.2716 -0.8278  1.7514
 4731TIP3    H235685   1.776   5.614  14.149 -0.8540 -1.1857 -0.7738
 4732TIP3   OH235686   4.270   6.029   5.668  0.6267 -0.3752 -0.0599
 4732TIP3    H135687   4.209   5.982   5.725  0.9135  1.1880  1.6398
 4732TIP3    H235688   4.340   6.058   5.726  1.3686  0.5853 -1.3631
 4733TIP3   OH235689   1.811   4.055   3.298 -0.6530 -0.0917  0.7231
 4733TIP3    H135690   1.813   4.147   3.326 -0.6071  0.2762 -0.4585
 4733TIP3    H235691   1.887   4.016   3.342  1.4725  1.2647 -1.4330
 4734TIP3   OH235692   1.261   0.934  14.187  0.2302 -0.1589 -0.1220
 4734TIP3    H135693   1.291   0.944  14.096  1.1323  0.1058  0.1954
 4734TIP3    H235694   1.283   1.017  14.229  0.3216 -0.4844  0.4854
 4735TIP3   OH235695   4.710   0.578   4.185 -0.3511  0.1997 -0.3337
 4735TIP3    H135696   4.625   0.598   4.145  0.3349  0.7391 -1.5565
 4735TIP3    H235697   4.758   0.531   4.117  0.3692 -0.0344  0.3197
 4736TIP3   OH235698   5.176   6.163   3.314 -0.1184 -0.0541  0.1055
 4736TIP3    H135699   5.234   6.141   3.387 -0.3733  0.5422  0.4958
 4736TIP3    H235700   5.174   6.259   3.313 -1.0984 -0.0635  0.1041
 4737TIP3   OH235701   0.458   2.331   4.802 -0.2108 -0.2476 -0.1414
 4737TIP3    H135702   0.479   2.354   4.711  1.0870 -1.3345 -0.1431
 4737TIP3    H235703   0.403   2.253   4.794  2.7430 -2.4844  0.0126
 4738TIP3   OH235704   4.287   6.083  16.341 -0.6169  0.0366  0.4854
 4738TIP3    H135705   4.288   6.001  16.390 -1.0966 -0.1857  0.1368
 4738TIP3    H235706   4.320   6.059  16.254  0.4902  0.4817  0.7752
 4739TIP3   OH235707   5.012   3.205  15.322  0.3493 -0.2388  0.1498
 4739TIP3    H135708   4.990   3.114  15.302 -2.0349  0.0062  1.3508
 4739TIP3    H235709   5.003   3.211  15.417 -1.1792  1.6313 -0.0674
 4740TIP3   OH235710   2.875   3.284   5.071 -0.3112  0.2578  0.0757
 4740TIP3    H135711   2.846   3.312   5.158 -1.8099  0.8008 -0.5651
 4740TIP3    H235712   2.825   3.205   5.053 -0.0492  0.1787 -0.3170
 4741TIP3   OH235713   6.487   6.483   3.385 -0.1148 -0.1843  0.4538
 4741TIP3    H135714   6.469   6.461   3.476 -1.2211  1.6531  0.7270
 4741TIP3    H235715   6.576   6.517   3.386  0.2959 -1.2071  0.6179
 4742TIP3   OH235716   0.191   5.975  17.109  0.1351  0.0331  0.5566
 4742TIP3    H135717   0.137   5.898  17.090 -0.0697 -0.0305  1.3600
 4742TIP3    H235718   0.281   5.942  17.108  0.0691 -0.1475  0.5702
 4743TIP3   OH235719   2.106   0.103   1.216 -0.2934  0.2631 -0.1547
 4743TIP3    H135720   2.181   0.077   1.163 -0.1347  0.9245 -0.2621
 4743TIP3    H235721   2.138   0.174   1.271 -1.0903  1.2228 -0.8937
 4744TIP3   OH235722   3.642   5.232  10.849  0.2732 -0.4681  0.2923
 4744TIP3    H135723   3.625   5.234  10.755 -1.6298  2.5799  0.5554
 4744TIP3    H235724   3.563   5.194  10.887 -1.2411  2.7966  0.8057
 4745TIP3   OH235725   4.076   2.806   3.463 -0.2577 -0.4245  0.2591
 4745TIP3    H135726   4.156   2.760   3.435  0.0311 -0.0395  0.4583
 4745TIP3    H235727   4.105   2.894   3.486 -0.7086 -0.3437  0.5304
 4746TIP3   OH235728   5.346   5.357  13.024 -0.5594  0.4104 -0.1595
 4746TIP3    H135729   5.319   5.407  12.946 -2.4066 -1.0289 -0.5355
 4746TIP3    H235730   5.282   5.380  13.091  0.4391  0.8870  0.6598
 4747TIP3   OH235731   5.758   1.753  15.319  0.5140  0.5834 -0.5230
 4747TIP3    H135732   5.760   1.669  15.365 -0.0990 -0.6921 -2.6924
 4747TIP3    H235733   5.720   1.814  15.382  2.7447 -0.2316  1.8153
 4748TIP3   OH235734   3.328   1.953   1.174 -0.3295 -0.0857 -0.6093
 4748TIP3    H135735   3.382   1.972   1.251 -1.8003 -1.8181  0.9261
 4748TIP3    H235736   3.390   1.956   1.101  1.1253  1.6092  0.5956
 4749TIP3   OH235737   5.805   1.437  16.588  0.0686 -0.1113  0.0226
 4749TIP3    H135738   5.787   1.437  16.494  1.0780  2.0495 -0.2313
 4749TIP3    H235739   5.891   1.396  16.596  0.3922  0.5313 -0.1135
 4750TIP3   OH235740   4.975   4.089  12.155 -0.6769 -0.2888 -0.1723
 4750TIP3    H135741   4.905   4.028  12.176 -2.9790  1.6930 -1.5763
 4750TIP3    H235742   4.932   4.175  12.154  2.4194  1.4978  2.0079
 4751TIP3   OH235743   1.072   3.407   5.033 -0.2876 -0.1750  0.2205
 4751TIP3    H135744   1.043   3.450   5.114 -1.4120 -1.9293  0.8316
 4751TIP3    H235745   0.999   3.348   5.011  1.0311 -1.5349 -0.6752
 4752TIP3   OH235746   0.415   2.880  11.936  0.4074  0.2277  0.0783
 4752TIP3    H135747   0.391   2.827  11.860  2.0468  3.0492 -2.6932
 4752TIP3    H235748   0.332   2.900  11.979 -0.5922 -1.4678 -0.9624
 4753TIP3   OH235749   6.131   2.757   5.057 -0.1770  0.0304  0.2017
 4753TIP3    H135750   6.142   2.755   5.152  1.1300 -2.4203  0.0851
 4753TIP3    H235751   6.069   2.686   5.039  1.4776 -1.2133 -0.8992
 4754TIP3   OH235752   6.621   0.328  10.949  0.1603 -0.3952  0.1340
 4754TIP3    H135753   6.581   0.254  10.903 -1.4637  0.3101  0.3705
 4754TIP3    H235754   6.713   0.302  10.959 -0.0249 -1.7015 -1.1540
 4755TIP3   OH235755   2.703   5.992   5.995 -0.2753  0.9213  0.2314
 4755TIP3    H135756   2.771   6.055   5.972 -0.4039  1.4295  1.2052
 4755TIP3    H235757   2.624   6.045   6.004 -0.1344  0.8406  2.2906
 4756TIP3   OH235758   6.274   0.738   1.248  0.1218  0.0449 -0.6208
 4756TIP3    H135759   6.224   0.718   1.169  1.9318  0.1427 -1.8394
 4756TIP3    H235760   6.347   0.792   1.217  1.5316 -0.8851  0.9280
 4757TIP3   OH235761   1.058   3.812   2.151  0.1180 -0.1208 -0.0367
 4757TIP3    H135762   0.994   3.805   2.221 -0.1433  1.3153 -0.1189
 4757TIP3    H235763   1.092   3.901   2.158 -0.6438  0.4126 -2.3512
 4758TIP3   OH235764   4.795   6.320  11.031 -0.5274  0.0873 -0.4472
 4758TIP3    H135765   4.756   6.270  10.960 -2.6091  0.9643  0.0153
 4758TIP3    H235766   4.778   6.412  11.009 -0.3706  0.4096  0.7028
 4759TIP3   OH235767   5.905   6.272   5.682  0.0054  0.3497 -0.3396
 4759TIP3    H135768   5.891   6.177   5.677 -2.8348  0.5784  1.1921
 4759TIP3    H235769   5.924   6.289   5.774  1.7108  1.2050 -0.8057
 4760TIP3   OH235770   1.768   3.253  15.348  0.4772  0.9674  0.2132
 4760TIP3    H135771   1.855   3.293  15.353  1.6503 -1.4460  0.4600
 4760TIP3    H235772   1.759   3.206  15.431 -0.7389  0.5384 -0.1489
 4761TIP3   OH235773   0.542   5.439  17.231 -0.3825  0.1368 -0.0772
 4761TIP3    H135774   0.592   5.365  17.197 -1.0858  0.0341 -0.9304
 4761TIP3    H235775   0.454   5.426  17.195 -0.1196  2.2717 -1.6157
 4762TIP3   OH235776   4.058   2.537   1.020  0.3599 -0.7250 -0.3806
 4762TIP3    H135777   4.029   2.530   1.110  0.9378  1.0986 -0.0135
 4762TIP3    H235778   4.127   2.603   1.021 -0.2838  0.0837 -2.2818
 4763TIP3   OH235779   6.150   0.753   4.460  0.5230  0.1403 -0.3077
 4763TIP3    H135780   6.066   0.719   4.491  0.8367 -1.7754 -1.3724
 4763TIP3    H235781   6.216   0.695   4.499  1.3701  1.5949  0.4903
 4764TIP3   OH235782   4.207   1.024  12.353 -0.6551 -0.4201  0.4715
 4764TIP3    H135783   4.114   1.017  12.333 -0.2785  1.2494 -2.5046
 4764TIP3    H235784   4.251   0.989  12.276  1.1706 -0.0904  1.3074
 4765TIP3   OH235785   5.468   1.859  15.174  0.5561  0.4501 -0.3594
 4765TIP3    H135786   5.405   1.788  15.172  0.7769  0.2542 -0.3951
 4765TIP3    H235787   5.420   1.936  15.144  0.2022  0.4043  0.0810
 4766TIP3   OH235788   5.235   5.700   1.271  0.0130  0.6505 -0.8861
 4766TIP3    H135789   5.197   5.729   1.354 -0.7139  0.3680 -1.1215
 4766TIP3    H235790   5.303   5.765   1.252 -0.6054  1.3725 -0.6616
 4767TIP3   OH235791   4.940   4.269   0.452  0.0064 -0.0163  0.6521
 4767TIP3    H135792   4.848   4.297   0.449  0.1316  0.3818  0.5656
 4767TIP3    H235793   4.967   4.265   0.360 -0.1990 -1.0584  0.6181
 4768TIP3   OH235794   6.331   3.201  15.383 -0.6768 -0.3087 -0.0943
 4768TIP3    H135795   6.399   3.268  15.377 -0.6889 -0.2638  0.2351
 4768TIP3    H235796   6.285   3.205  15.299  1.1135 -1.8229 -1.2399
 4769TIP3   OH235797   6.125   5.442  13.496 -0.3380 -0.3421 -0.3196
 4769TIP3    H135798   6.106   5.353  13.468  0.7952 -0.6790 -0.0425
 4769TIP3    H235799   6.182   5.432  13.571 -0.0623  0.6235 -0.3904
 4770TIP3   OH235800   2.336   3.983  15.094 -0.5118  0.1964  0.2219
 4770TIP3    H135801   2.325   4.057  15.154 -1.1879  0.9339 -0.8001
 4770TIP3    H235802   2.333   4.021  15.007 -0.8508 -1.0341 -0.3288
 4771TIP3   OH235803   4.639   3.201   0.097  0.5869  0.3888  0.1106
 4771TIP3    H135804   4.558   3.189   0.048  1.0554 -2.4024 -0.1471
 4771TIP3    H235805   4.702   3.234   0.032  0.8108 -1.8673 -0.9075
 4772TIP3   OH235806   0.131   4.939   3.941  0.4858  0.2110 -0.3188
 4772TIP3    H135807   0.131   4.850   3.907  0.7394  0.3655 -0.7230
 4772TIP3    H235808   0.217   4.974   3.918  1.1029 -0.0373  1.4223
 4773TIP3   OH235809   1.689   1.354  10.475 -0.0499 -0.3269  0.4039
 4773TIP3    H135810   1.741   1.394  10.405  0.4143  0.2336  1.0613
 4773TIP3    H235811   1.598   1.363  10.445  0.0165  1.5298  0.6853
 4774TIP3   OH235812   5.003   5.208  11.685  0.4474  0.3887  0.1215
 4774TIP3    H135813   5.061   5.187  11.612 -1.2109  0.5450 -1.3019
 4774TIP3    H235814   5.030   5.149  11.755  1.3394 -0.5719 -0.9926
 4775TIP3   OH235815   4.537   4.642   3.748 -0.5099 -0.0001  0.0499
 4775TIP3    H135816   4.472   4.610   3.811  0.8399  0.7255  1.9145
 4775TIP3    H235817   4.621   4.632   3.793  0.6273 -0.2495 -2.0041
 4776TIP3   OH235818   4.897   1.067  15.983  0.6810 -0.3029  0.1269
 4776TIP3    H135819   4.951   1.018  16.045  1.7044 -0.0156 -0.5155
 4776TIP3    H235820   4.811   1.027  15.990  0.8570 -0.5045  1.4805
 4777TIP3   OH235821   6.102   2.557  15.793  0.1355  0.2695 -0.2191
 4777TIP3    H135822   6.187   2.512  15.791  0.6918  0.6869  4.2553
 4777TIP3    H235823   6.038   2.487  15.806  0.2319  0.2556  0.1775
 4778TIP3   OH235824   2.721   0.053  14.025 -0.2726 -0.2371 -0.0645
 4778TIP3    H135825   2.773   0.014  13.954  0.1975 -0.2769  0.2945
 4778TIP3    H235826   2.765   0.136  14.044  0.6857 -1.0215  1.3710
 4779TIP3   OH235827   2.755   5.945  12.972 -0.1438  0.1446  0.3592
 4779TIP3    H135828   2.707   5.989  13.042 -0.1508  0.7821 -0.0414
 4779TIP3    H235829   2.839   5.990  12.967 -0.3455  0.4481 -0.3926
 4780TIP3   OH235830   3.646   2.002  13.533 -0.3027 -0.0255  0.3172
 4780TIP3    H135831   3.671   2.060  13.461  0.6409 -0.5003  0.2539
 4780TIP3    H235832   3.559   1.970  13.508 -0.7944  1.2570  0.3015
 4781TIP3   OH235833   5.629   2.892   0.292  0.7206  0.4925  0.2254
 4781TIP3    H135834   5.690   2.966   0.284 -2.5745  3.4177 -0.5397
 4781TIP3    H235835   5.626   2.854   0.205 -0.3461  2.0206 -0.4556
 4782TIP3   OH235836   2.845   3.238  16.636 -0.4689  0.2896  0.3221
 4782TIP3    H135837   2.902   3.195  16.573  0.4049  0.6177  0.8723
 4782TIP3    H235838   2.879   3.327  16.644 -0.3669  0.1626  1.4762
 4783TIP3   OH235839   3.182   4.209  10.972  0.3313 -0.2307 -0.0494
 4783TIP3    H135840   3.153   4.158  10.897  1.9708 -0.3243 -0.6526
 4783TIP3    H235841   3.274   4.229  10.954 -0.6469  4.7966 -0.9477
 4784TIP3   OH235842   6.019   6.742   3.999  0.8059  0.2993  0.4166
 4784TIP3    H135843   6.031   6.652   3.968 -2.1935  0.3683 -1.3310
 4784TIP3    H235844   6.027   6.795   3.920  1.1623  1.4460  1.2007
 4785TIP3   OH235845   6.380   1.273  11.008 -0.0084 -0.2671  0.5956
 4785TIP3    H135846   6.351   1.253  10.919 -0.8822  1.3276  0.4652
 4785TIP3    H235847   6.300   1.304  11.052  0.3720 -1.2290  2.0053
 4786TIP3   OH235848   5.574   5.858   4.965 -0.5665 -0.5013 -0.0028
 4786TIP3    H135849   5.650   5.912   4.984 -0.8397 -0.7826  2.2256
 4786TIP3    H235850   5.501   5.919   4.961 -0.2617 -0.2265 -2.1863
 4787TIP3   OH235851   2.381   1.418   3.702  0.3161  0.0962  0.3424
 4787TIP3    H135852   2.340   1.447   3.783  0.0437 -0.5406  0.4353
 4787TIP3    H235853   2.453   1.361   3.729  0.1780 -0.1794  0.1356
 4788TIP3   OH235854   0.938   0.011  11.595  0.2011  0.0749  0.3907
 4788TIP3    H135855   0.852   0.021  11.553 -0.3104  1.5372  1.6635
 4788TIP3    H235856   0.918  -0.014  11.685  0.9826  2.0420  1.1679
 4789TIP3   OH235857   2.718   3.244   3.248 -0.5845 -0.0103  0.0634
 4789TIP3    H135858   2.765   3.161   3.249 -2.0007 -0.8382 -0.1755
 4789TIP3    H235859   2.640   3.229   3.302 -0.3281  1.5035  0.9266
 4790TIP3   OH235860   3.046   6.685  13.949  0.1576 -0.5075 -0.3575
 4790TIP3    H135861   3.071   6.734  14.027 -1.4866  0.6744 -0.5328
 4790TIP3    H235862   3.017   6.751  13.886  0.9260 -1.4746 -1.8018
 4791TIP3   OH235863   5.879   3.460  11.319 -0.3801  0.7363  0.0281
 4791TIP3    H135864   5.874   3.540  11.266 -0.0116  0.5356 -0.3119
 4791TIP3    H235865   5.958   3.472  11.372  0.0726  0.2839 -0.5394
 4792TIP3   OH235866   6.629   4.007  12.822  0.2096  0.0986 -0.6380
 4792TIP3    H135867   6.569   3.995  12.748  0.6645  0.1140 -1.0150
 4792TIP3    H235868   6.714   3.979  12.788  0.1330 -1.4669  0.3785
 4793TIP3   OH235869   2.936   6.823   6.126  0.1936 -0.8553  0.3907
 4793TIP3    H135870   2.907   6.897   6.179 -0.0202 -0.6173 -0.0477
 4793TIP3    H235871   2.898   6.747   6.168 -1.9329 -0.4791 -0.6967
 4794TIP3   OH235872   1.224   4.166  14.044 -0.4562 -0.7680 -0.0634
 4794TIP3    H135873   1.200   4.258  14.053 -1.9238 -1.1569  0.4594
 4794TIP3    H235874   1.237   4.136  14.134  1.1554 -0.8242 -0.2901
 4795TIP3   OH235875   1.557   5.120   3.878 -0.5614 -0.2686  0.0470
 4795TIP3    H135876   1.643   5.130   3.839 -0.8052  1.2675 -0.1556
 4795TIP3    H235877   1.504   5.077   3.811 -0.5958  1.0447 -0.7852
 4796TIP3   OH235878   5.848   6.408   5.965 -0.0009 -0.1068  0.4189
 4796TIP3    H135879   5.826   6.486   5.914 -1.0557 -1.4408 -1.2550
 4796TIP3    H235880   5.848   6.439   6.056 -0.9750  1.7076 -0.1429
 4797TIP3   OH235881   4.286   3.126  14.185 -0.1575  0.0829  0.5272
 4797TIP3    H135882   4.320   3.133  14.274 -0.4041 -2.0709  0.8468
 4797TIP3    H235883   4.236   3.045  14.185  0.3527 -0.2975 -1.7507
 4798TIP3   OH235884   3.631   0.359  15.219  0.2208  0.3940  0.5863
 4798TIP3    H135885   3.591   0.273  15.232 -0.1687 -0.2094 -3.3532
 4798TIP3    H235886   3.564   0.420  15.250 -0.0133 -0.6470  2.2818
 4799TIP3   OH235887   1.447   0.386  16.453 -0.0498  0.2564 -0.3988
 4799TIP3    H135888   1.367   0.363  16.499 -0.4782  2.4475  0.0513
 4799TIP3    H235889   1.514   0.392  16.522  0.0448  0.4018 -0.5025
 4800TIP3   OH235890   0.524   0.229  13.278  0.0580  0.1867  0.2455
 4800TIP3    H135891   0.428   0.234  13.272  0.0543  0.6515  0.7374
 4800TIP3    H235892   0.552   0.212  13.188 -0.4971 -0.1062  0.1242
 4801TIP3   OH235893   1.501   4.630   6.048  0.9471  0.7771  0.1567
 4801TIP3    H135894   1.567   4.646   6.116 -0.1348  0.3745  1.3610
 4801TIP3    H235895   1.456   4.551   6.078 -0.2158  1.1720 -0.5202
 4802TIP3   OH235896   6.181   5.445  16.334  0.6419  0.0333  0.1795
 4802TIP3    H135897   6.128   5.379  16.377 -0.4751  0.8243  0.0789
 4802TIP3    H235898   6.152   5.443  16.242  1.2955 -0.0145 -0.0283
 4803TIP3   OH235899   6.305   2.198   0.333  0.9653 -0.3795  0.3622
 4803TIP3    H135900   6.294   2.194   0.428  1.6751 -0.0618  0.4618
 4803TIP3    H235901   6.390   2.156   0.317  0.4355 -1.2717 -0.2236
 4804TIP3   OH235902   1.090   5.228  15.935 -0.3569 -0.3151 -0.0858
 4804TIP3    H135903   1.077   5.321  15.916 -0.8053 -0.5481 -1.0069
 4804TIP3    H235904   1.070   5.219  16.028  0.2040  0.5959  0.1318
 4805TIP3   OH235905   4.532   0.119   3.047 -0.1409 -0.3224  0.3387
 4805TIP3    H135906   4.560   0.193   3.101 -1.7651 -0.5085  1.5163
 4805TIP3    H235907   4.450   0.149   3.007  1.7732  0.4835 -3.5665
 4806TIP3   OH235908   3.603   2.399  16.832  0.2613 -0.5308 -0.3251
 4806TIP3    H135909   3.635   2.380  16.745  0.4418  0.6608 -0.5408
 4806TIP3    H235910   3.522   2.449  16.818 -0.1858 -1.0844  0.1987
 4807TIP3   OH235911   2.288   4.009  16.014  0.8168 -0.0017 -0.2928
 4807TIP3    H135912   2.303   3.919  15.983  0.2360 -0.3121  0.3027
 4807TIP3    H235913   2.341   4.016  16.093  1.1657  0.3122 -0.5532
 4808TIP3   OH235914   5.694   6.740   2.692  0.1818  0.4197 -0.0118
 4808TIP3    H135915   5.729   6.712   2.776  1.2022  1.5862 -0.0260
 4808TIP3    H235916   5.726   6.675   2.630 -1.6096 -1.1728  0.6189
 4809TIP3   OH235917   1.925   3.875  16.359  0.0973 -0.3700  0.2857
 4809TIP3    H135918   1.872   3.894  16.281 -0.7260  2.1753  1.3361
 4809TIP3    H235919   2.002   3.932  16.350 -0.0915  0.0928  1.3551
 4810TIP3   OH235920   5.875   5.475  15.857  0.2713  0.6873  0.3998
 4810TIP3    H135921   5.848   5.384  15.842  2.1738  0.2691 -0.8740
 4810TIP3    H235922   5.793   5.521  15.875 -1.0102 -0.8951 -0.9823
 4811TIP3   OH235923   6.131   4.185   2.242  0.3200  0.9368 -0.6034
 4811TIP3    H135924   6.216   4.150   2.269  1.5412  3.0579 -1.4344
 4811TIP3    H235925   6.121   4.158   2.150 -0.0919  0.3762 -0.3977
 4812TIP3   OH235926   6.003   1.681   0.716 -0.6675  0.2013  0.2208
 4812TIP3    H135927   5.955   1.647   0.640 -0.9639 -0.2486  0.6013
 4812TIP3    H235928   5.944   1.746   0.753 -1.7189 -1.4220  1.5869
 4813TIP3   OH235929   4.750   5.875  11.536 -0.5252 -0.0387  0.2442
 4813TIP3    H135930   4.811   5.826  11.591  1.3066  0.8298 -0.9107
 4813TIP3    H235931   4.715   5.811  11.475  0.5640 -0.2425 -0.1773
 4814TIP3   OH235932   2.090   5.418  12.733 -0.0246 -0.1269  0.1877
 4814TIP3    H135933   2.009   5.435  12.686  0.5078  1.8124 -0.1119
 4814TIP3    H235934   2.144   5.368  12.671 -0.2661  0.2696 -0.3535
 4815TIP3   OH235935   6.664   5.344  16.225  0.5588 -0.3238  0.5333
 4815TIP3    H135936   6.578   5.373  16.254  0.3744 -1.2656  0.9614
 4815TIP3    H235937   6.646   5.283  16.153  0.7359 -1.9567  1.7965
 4816TIP3   OH235938   0.845   3.316  12.375  0.6601 -0.4565  1.0950
 4816TIP3    H135939   0.800   3.240  12.412  0.2719 -0.5307  0.4846
 4816TIP3    H235940   0.897   3.280  12.303  0.4962 -0.1553  0.8214
 4817TIP3   OH235941   4.821   6.345   0.192 -0.4370 -0.1528 -0.3334
 4817TIP3    H135942   4.912   6.372   0.185 -0.3824 -0.6776 -2.3553
 4817TIP3    H235943   4.818   6.258   0.152 -1.2429 -1.7330  2.8071
 4818TIP3   OH235944   0.515   1.707   3.442  0.6371 -0.1964 -0.1896
 4818TIP3    H135945   0.537   1.628   3.392 -1.0199 -0.2940 -0.8273
 4818TIP3    H235946   0.542   1.686   3.532 -0.7218 -1.9367 -0.1287
 4819TIP3   OH235947   5.281   2.567   2.280 -0.2527 -0.6937  0.0452
 4819TIP3    H135948   5.306   2.539   2.368  1.1827  0.9909  0.2378
 4819TIP3    H235949   5.200   2.520   2.261  0.5910 -2.8048  1.3532
 4820TIP3   OH235950   4.192   3.491  16.132  0.2172 -0.1208  0.3108
 4820TIP3    H135951   4.118   3.535  16.174  1.4524  0.5627  1.8575
 4820TIP3    H235952   4.151   3.433  16.066 -1.6569  0.3695  0.9813
 4821TIP3   OH235953   1.716   4.638  12.970  0.3059  0.0340 -0.4081
 4821TIP3    H135954   1.778   4.672  13.036 -0.4146  0.8235 -0.1217
 4821TIP3    H235955   1.721   4.701  12.898 -0.4505  0.3187 -0.2168
 4822TIP3   OH235956   3.172   3.186   5.455 -0.2078 -0.1325 -0.4390
 4822TIP3    H135957   3.179   3.229   5.369 -0.6474 -0.8727 -0.8561
 4822TIP3    H235958   3.237   3.232   5.509  0.7080 -0.2202 -1.4130
 4823TIP3   OH235959   1.937   2.514   3.283  0.2313  0.2259  0.1727
 4823TIP3    H135960   1.901   2.428   3.304 -2.3994  0.9494 -1.0001
 4823TIP3    H235961   1.922   2.566   3.362 -3.4040  1.0642 -0.8919
 4824TIP3   OH235962   5.368   2.256   0.713 -0.3443 -0.1183 -0.4977
 4824TIP3    H135963   5.408   2.298   0.637 -2.2830  0.9086 -1.0076
 4824TIP3    H235964   5.363   2.326   0.779 -0.8133 -0.3763 -0.2573
 4825TIP3   OH235965   5.780   1.815   0.835  0.2244 -0.3098 -0.1899
 4825TIP3    H135966   5.725   1.879   0.789  1.0828  1.1203  0.7229
 4825TIP3    H235967   5.836   1.867   0.892  1.4992 -1.8376  0.0249
 4826TIP3   OH235968   6.597   1.026   2.993 -0.0093 -0.3712 -0.1046
 4826TIP3    H135969   6.673   0.983   3.033  0.8584 -1.5207 -2.7841
 4826TIP3    H235970   6.524   0.968   3.014  0.3841 -0.8385  0.0177
 4827TIP3   OH235971   1.714   3.896  15.329  0.7088  0.0380 -0.2496
 4827TIP3    H135972   1.718   3.801  15.332 -1.8440 -0.1627  2.5048
 4827TIP3    H235973   1.792   3.926  15.375  1.1103 -0.7565 -0.4104
 4828TIP3   OH235974   5.243   4.487   4.498  0.5122 -0.3880  0.2580
 4828TIP3    H135975   5.162   4.505   4.547  0.9389 -0.3081  0.9442
 4828TIP3    H235976   5.303   4.450   4.563  1.4437  0.6821  0.0353
 4829TIP3   OH235977   2.879   0.749   1.457  0.0321 -0.0925 -0.5083
 4829TIP3    H135978   2.969   0.781   1.463 -0.3782  0.9685  0.1359
 4829TIP3    H235979   2.824   0.825   1.475 -1.0411 -0.4605 -1.9726
 4830TIP3   OH235980   2.922   3.564  10.453 -0.6623  0.1340  0.2837
 4830TIP3    H135981   2.985   3.603  10.393 -0.2807  0.9306  1.1799
 4830TIP3    H235982   2.957   3.476  10.470  0.0740  0.4679  0.5526
 4831TIP3   OH235983   2.252   6.573  12.579 -0.3543  0.0404 -0.5134
 4831TIP3    H135984   2.317   6.643  12.589 -0.2059 -0.1471 -0.1422
 4831TIP3    H235985   2.192   6.586  12.653 -0.5613  0.0246 -0.6793
 4832TIP3   OH235986   6.256   4.146   5.373  0.7681 -0.5791  0.4319
 4832TIP3    H135987   6.280   4.095   5.450 -0.8693 -0.4632  1.0470
 4832TIP3    H235988   6.172   4.110   5.344  0.1117  1.0113  0.2242
 4833TIP3   OH235989   6.578   1.217   0.532 -0.2252 -0.4978  0.3903
 4833TIP3    H135990   6.506   1.254   0.481 -0.4008  1.9759  2.2709
 4833TIP3    H235991   6.558   1.123   0.537 -1.3340 -0.4775 -2.1219
 4834TIP3   OH235992   5.816   0.012  11.401 -0.1846 -0.5769  0.1831
 4834TIP3    H135993   5.855   0.096  11.377 -0.2341 -0.6905 -0.3065
 4834TIP3    H235994   5.868  -0.052  11.353 -0.9779 -0.7324 -0.4785
 4835TIP3   OH235995   0.190   1.023  15.172 -0.2786  0.3016 -1.0003
 4835TIP3    H135996   0.238   1.010  15.089 -0.2613 -1.5926 -0.7386
 4835TIP3    H235997   0.145   1.106  15.160  2.8356  2.1149 -1.3738
 4836TIP3   OH235998   2.583   1.533   0.031 -0.4798 -0.0013 -0.5726
 4836TIP3    H135999   2.652   1.504  -0.028  1.0797  1.2103  0.5800
 4836TIP3    H236000   2.573   1.626   0.014  0.3948  0.5095  1.3665
 4837TIP3   OH236001   5.924   5.651   0.217  0.1846 -0.5443  0.8835
 4837TIP3    H136002   5.936   5.597   0.139 -0.9459 -1.7882  1.5492
 4837TIP3    H236003   5.830   5.654   0.230  0.3547 -0.2560  2.1395
 4838TIP3   OH236004   4.106   4.789   5.726 -0.5916 -0.1075 -0.1305
 4838TIP3    H136005   4.084   4.703   5.692 -1.8095 -0.3452  1.1533
 4838TIP3    H236006   4.128   4.841   5.649 -1.2627 -1.1704 -1.0601
 4839TIP3   OH236007   4.640   2.396   0.049 -0.3925  0.2874  0.0444
 4839TIP3    H136008   4.571   2.439  -0.002 -0.5017  2.6536  2.0334
 4839TIP3    H236009   4.609   2.399   0.139  1.6406  0.0171  0.7974
 4840TIP3   OH236010   0.708   1.087   4.861  0.3111 -0.1423  0.1549
 4840TIP3    H136011   0.749   1.010   4.822 -0.9313 -0.2671 -0.9673
 4840TIP3    H236012   0.622   1.057   4.890  0.5104  0.3997  1.3542
 4841TIP3   OH236013   0.910   5.215   5.628  0.3977 -0.0955 -0.0129
 4841TIP3    H136014   1.001   5.196   5.604  0.1359 -0.2530 -0.9155
 4841TIP3    H236015   0.882   5.139   5.678  0.1678 -0.9371 -1.3845
 4842TIP3   OH236016   3.744   5.203  17.176 -0.1429 -0.1784 -0.1680
 4842TIP3    H136017   3.773   5.122  17.216  0.8610  0.5516  0.6430
 4842TIP3    H236018   3.690   5.246  17.243  0.3537  0.3881 -0.1238
 4843TIP3   OH236019   0.388   4.151  10.729  0.1624 -0.5440  0.1257
 4843TIP3    H136020   0.340   4.070  10.710  0.6933 -1.0072  0.6958
 4843TIP3    H236021   0.480   4.123  10.737  0.4609  0.2423 -0.4303
 4844TIP3   OH236022   3.959   5.637  11.124 -0.2851 -0.1645  0.3887
 4844TIP3    H136023   3.976   5.552  11.084 -0.4274 -1.5381  2.9746
 4844TIP3    H236024   4.046   5.675  11.137 -0.1309 -0.5019  0.3535
 4845TIP3   OH236025   5.563   3.176  17.094 -0.3326 -0.8222 -0.0511
 4845TIP3    H136026   5.522   3.093  17.116  0.9310 -2.1016 -2.2178
 4845TIP3    H236027   5.543   3.189  17.002 -1.5287  1.9661  0.4954
 4846TIP3   OH236028   2.763   6.253  13.633 -0.6408  0.6127  0.3197
 4846TIP3    H136029   2.846   6.301  13.629 -2.1051  3.3657  0.3538
 4846TIP3    H236030   2.769   6.190  13.562  1.6764  0.3144  0.6716
 4847TIP3   OH236031   1.009   0.261  11.886 -0.1509 -0.1579  0.0028
 4847TIP3    H136032   0.951   0.289  11.957 -1.7352 -0.4992 -1.0778
 4847TIP3    H236033   1.005   0.166  11.888  0.4564 -0.1821 -0.0176
 4848TIP3   OH236034   5.208   4.108  15.181 -0.6497 -0.4475 -0.3785
 4848TIP3    H136035   5.269   4.036  15.194 -0.9896 -1.0247 -1.7820
 4848TIP3    H236036   5.122   4.066  15.173 -1.0281  0.2260  0.0324
 4849TIP3   OH236037   3.135   4.902  10.611  0.3566 -0.0528  0.3708
 4849TIP3    H136038   3.213   4.957  10.618  1.1478 -0.9663 -0.8189
 4849TIP3    H236039   3.137   4.869  10.521 -1.0572 -0.6133  0.5174
 4850TIP3   OH236040   3.897   1.568   1.418  0.5134  0.3552 -0.6658
 4850TIP3    H136041   3.856   1.483   1.406  0.0681  0.2854  1.0568
 4850TIP3    H236042   3.831   1.631   1.389 -0.4627  0.1989  1.0379
 4851TIP3   OH236043   1.817   6.234   6.352 -0.5420  0.5111  0.2756
 4851TIP3    H136044   1.775   6.166   6.300 -0.1651  0.0988  0.5081
 4851TIP3    H236045   1.746   6.294   6.375 -0.9482 -0.0232  0.4185
 4852TIP3   OH236046   5.777   4.015   3.064 -0.1324 -0.2914 -0.0331
 4852TIP3    H136047   5.850   4.061   3.023  0.0988 -0.3790  0.2714
 4852TIP3    H236048   5.770   3.933   3.014 -0.1784 -0.1733 -0.2182
 4853TIP3   OH236049   0.321   4.415   5.920 -0.1483 -0.0480  0.5505
 4853TIP3    H136050   0.344   4.476   5.990 -0.0221 -0.6282  1.0206
 4853TIP3    H236051   0.372   4.444   5.845 -1.2113  1.3417  0.3159
 4854TIP3   OH236052   1.812   1.440   5.197  0.1920 -0.8091 -0.0753
 4854TIP3    H136053   1.872   1.429   5.123  1.2125 -0.7238  0.7258
 4854TIP3    H236054   1.743   1.497   5.162  2.4618  2.2326 -0.0198
 4855TIP3   OH236055   6.232   6.809   4.169 -0.1551  0.0024 -0.3447
 4855TIP3    H136056   6.156   6.797   4.112 -0.3036 -1.2996  0.0887
 4855TIP3    H236057   6.306   6.776   4.116  0.1630  1.4096 -0.8268
 4856TIP3   OH236058   6.139   1.570  12.667  0.3221  0.0514 -0.5906
 4856TIP3    H136059   6.051   1.597  12.640 -0.2516 -1.3683 -0.2778
 4856TIP3    H236060   6.181   1.650  12.696 -1.0982  0.6781 -0.1626
 4857TIP3   OH236061   5.781   2.669   2.953 -0.1084 -0.6601 -0.0033
 4857TIP3    H136062   5.844   2.639   2.888 -0.3113 -0.8240 -0.1282
 4857TIP3    H236063   5.757   2.757   2.925 -1.2115 -1.2168 -0.9388
 4858TIP3   OH236064   0.155   5.304  14.800 -0.6739 -0.2355 -0.5820
 4858TIP3    H136065   0.107   5.255  14.867 -0.3111 -0.2710 -0.3437
 4858TIP3    H236066   0.129   5.263  14.717 -0.9998 -0.2989 -0.4506
 4859TIP3   OH236067   2.321   0.559  15.893  0.1826 -0.0528  0.4239
 4859TIP3    H136068   2.404   0.586  15.852 -0.5218  0.8195 -0.5052
 4859TIP3    H236069   2.311   0.619  15.966 -0.5650  1.1846 -0.6467
 4860TIP3   OH236070   1.928   0.033   0.525 -0.2167  0.5826 -0.2465
 4860TIP3    H136071   1.943   0.116   0.480  0.2132  0.3324 -0.5696
 4860TIP3    H236072   1.832   0.024   0.527 -0.2487  0.7109 -0.9049
 4861TIP3   OH236073   2.499   4.727  11.189 -0.3148  0.3044  0.0993
 4861TIP3    H136074   2.556   4.709  11.114  0.1636  1.6623  0.1201
 4861TIP3    H236075   2.511   4.820  11.207 -0.7908  0.1019  1.5737
 4862TIP3   OH236076   3.457   1.658   6.553  0.6059 -0.5268 -0.4495
 4862TIP3    H136077   3.474   1.585   6.613  0.4775 -0.3392 -0.1822
 4862TIP3    H236078   3.460   1.618   6.466  1.7261 -0.6227 -0.3791
 4863TIP3   OH236079   5.382   2.540  14.578 -0.5645 -0.4246  0.1324
 4863TIP3    H136080   5.292   2.520  14.552 -0.9760  0.1331  1.0776
 4863TIP3    H236081   5.380   2.631  14.607 -0.0479 -0.8305  1.5797
 4864TIP3   OH236082   5.043   4.750  16.411  0.7819  0.0465  0.4383
 4864TIP3    H136083   4.987   4.734  16.487  1.1702 -1.3000  0.4686
 4864TIP3    H236084   4.996   4.709  16.338  2.1244 -1.9247  0.6251
 4865TIP3   OH236085   5.184   2.706  14.838  0.3688  0.1036  0.3190
 4865TIP3    H136086   5.211   2.758  14.762  1.6882 -0.9713  0.0271
 4865TIP3    H236087   5.114   2.650  14.804  1.1840 -0.6143 -0.2131
 4866TIP3   OH236088   1.643   3.859  13.443 -0.1232  0.3805 -0.1434
 4866TIP3    H136089   1.679   3.810  13.370 -0.2489  0.7972 -0.4882
 4866TIP3    H236090   1.550   3.869  13.423 -0.1426  0.5694  0.0326
 4867TIP3   OH236091   2.938   1.602   4.509 -0.1459  0.3932 -0.4036
 4867TIP3    H136092   2.932   1.625   4.602 -1.1250 -1.1479 -0.0490
 4867TIP3    H236093   2.862   1.643   4.469  0.7192  1.7568 -0.7196
 4868TIP3   OH236094   4.896   3.576  15.462 -0.3318 -0.1130 -0.0943
 4868TIP3    H136095   4.939   3.600  15.543  1.7480  1.0816 -1.4734
 4868TIP3    H236096   4.965   3.576  15.396 -2.1977  0.5713 -2.1934
 4869TIP3   OH236097   4.473   0.215   1.725  0.4913  0.1240 -0.2598
 4869TIP3    H136098   4.530   0.179   1.657  1.5995 -0.9768  1.1794
 4869TIP3    H236099   4.385   0.204   1.690  0.9103 -2.2032 -0.7790
 4870TIP3   OH236100   1.690   1.092  16.698  0.6768 -0.0052  0.0642
 4870TIP3    H136101   1.667   1.004  16.670  2.5092 -0.0883 -1.3851
 4870TIP3    H236102   1.765   1.079  16.757  0.0552  0.5215  1.0081
 4871TIP3   OH236103   5.927   3.143  12.984 -0.3240 -0.7956 -0.1805
 4871TIP3    H136104   5.979   3.220  12.960 -0.4674 -1.1076 -1.6258
 4871TIP3    H236105   5.982   3.093  13.043 -0.7056  1.0151  1.8076
 4872TIP3   OH236106   4.322   3.683  14.593 -0.0591  0.1932  0.4896
 4872TIP3    H136107   4.363   3.596  14.593  0.8091  0.5970  0.9605
 4872TIP3    H236108   4.373   3.733  14.529 -0.5868  0.3542  0.1862
 4873TIP3   OH236109   4.804   5.636  13.556 -0.2666 -0.0358 -0.1365
 4873TIP3    H136110   4.889   5.621  13.598 -0.8524 -0.3255  1.0001
 4873TIP3    H236111   4.783   5.727  13.577 -0.7444 -0.2989  0.5787
 4874TIP3   OH236112   4.587   2.812   1.490  0.6186  0.2742 -0.7010
 4874TIP3    H136113   4.494   2.834   1.491  0.5283 -0.0847 -1.3489
 4874TIP3    H236114   4.628   2.887   1.447  0.4270 -0.3346 -1.9744
 4875TIP3   OH236115   5.454   0.901   0.545  0.2311 -0.4159 -0.2005
 4875TIP3    H136116   5.420   0.834   0.486 -0.8236  0.3922 -0.5353
 4875TIP3    H236117   5.477   0.853   0.625 -1.9968 -0.9974  0.1563
 4876TIP3   OH236118   2.979   0.121   3.644 -0.3664 -0.1379 -0.0755
 4876TIP3    H136119   3.037   0.049   3.669  1.0204  0.8713 -0.2501
 4876TIP3    H236120   2.991   0.130   3.550  1.7363  2.1235  0.3013
 4877TIP3   OH236121   1.568   2.101  10.907 -0.0385  0.5992  0.6222
 4877TIP3    H136122   1.641   2.053  10.869  0.6565  2.6756 -0.8565
 4877TIP3    H236123   1.521   2.137  10.832 -0.7731  1.7998  1.6172
 4878TIP3   OH236124   3.538   4.904   0.451 -0.4037  0.4077 -0.2008
 4878TIP3    H136125   3.475   4.844   0.411 -1.4637  1.5220 -0.2732
 4878TIP3    H236126   3.555   4.867   0.537  2.3871 -2.3749 -1.7716
 4879TIP3   OH236127   4.106   2.443  11.681 -0.1515 -1.0109 -0.1418
 4879TIP3    H136128   4.039   2.501  11.644 -0.0198 -1.3473 -0.9408
 4879TIP3    H236129   4.163   2.423  11.607  0.8064 -0.7703  0.5220
 4880TIP3   OH236130   4.706   5.987   5.067 -0.4086  0.0693 -0.8668
 4880TIP3    H136131   4.659   5.938   5.135  1.8169 -0.8394  0.1226
 4880TIP3    H236132   4.707   6.077   5.099 -1.3915  0.0853 -0.8684
 4881TIP3   OH236133   0.020   2.773  14.981 -0.1506  0.8446  0.0409
 4881TIP3    H136134  -0.045   2.777  14.911 -0.3699 -0.0462  0.1866
 4881TIP3    H236135  -0.006   2.699  15.035 -0.0772  1.6143  1.1738
 4882TIP3   OH236136   4.301   5.024  11.815 -0.1049 -0.0274 -0.3896
 4882TIP3    H136137   4.388   5.061  11.834 -0.1272 -0.2048  0.0693
 4882TIP3    H236138   4.258   5.091  11.762  0.2538  0.1360 -0.4789
 4883TIP3   OH236139   3.934   6.476   1.433 -0.2682 -0.0423  0.0100
 4883TIP3    H136140   3.898   6.517   1.512  0.8645  1.2184 -0.0965
 4883TIP3    H236141   3.912   6.536   1.362  1.4302  0.4313 -0.1532
 4884TIP3   OH236142   3.873   2.576   0.436 -0.4362 -0.0216  0.3045
 4884TIP3    H136143   3.921   2.527   0.368  1.9850 -0.4796  2.1741
 4884TIP3    H236144   3.843   2.508   0.497  0.9212  0.5585  1.7040
 4885TIP3   OH236145   6.078   2.417  13.932 -0.0728  0.1122 -0.0238
 4885TIP3    H136146   6.173   2.412  13.929 -0.0388  0.6334  0.0460
 4885TIP3    H236147   6.048   2.328  13.915  0.4180  0.0333 -0.4683
 4886TIP3   OH236148   3.143   4.512   3.704 -0.0337  0.2454  0.2855
 4886TIP3    H136149   3.182   4.458   3.635  2.1457 -0.8933  2.2638
 4886TIP3    H236150   3.183   4.481   3.785 -2.4661  1.5220  2.1259
 4887TIP3   OH236151   1.672   1.364  14.780  0.2361 -0.3367 -0.1947
 4887TIP3    H136152   1.683   1.451  14.740  0.6095  0.2517  1.1363
 4887TIP3    H236153   1.694   1.303  14.710 -0.2962  0.6272 -1.2403
 4888TIP3   OH236154   0.982   3.131  10.364  0.2130  0.1718  0.2492
 4888TIP3    H136155   1.001   3.169  10.450 -1.6292  0.0301  0.7788
 4888TIP3    H236156   1.065   3.093  10.335  0.6011 -0.9058  2.5611
 4889TIP3   OH236157   4.464   2.841  13.828  0.2050 -0.1211 -0.0626
 4889TIP3    H136158   4.415   2.833  13.910  0.2425  0.2045 -0.0102
 4889TIP3    H236159   4.529   2.909  13.845 -0.8418  1.1063 -0.8860
 4890TIP3   OH236160   0.770   4.429  14.126 -0.1662 -0.3319  0.3911
 4890TIP3    H136161   0.780   4.505  14.069 -1.4647 -1.9120 -2.1534
 4890TIP3    H236162   0.749   4.465  14.212 -0.8029  2.1847 -0.7372
 4891TIP3   OH236163   1.569   1.554   1.163  0.1019 -0.3763 -0.3181
 4891TIP3    H136164   1.498   1.618   1.169  0.7498  0.5757 -1.9658
 4891TIP3    H236165   1.645   1.606   1.137  0.9213 -1.6839 -0.6302
 4892TIP3   OH236166   5.921   4.761  11.637  0.4150  0.5361 -0.1134
 4892TIP3    H136167   5.844   4.712  11.609  1.1540 -0.2367 -0.8444
 4892TIP3    H236168   5.966   4.703  11.698  0.3547  1.0479  0.4365
 4893TIP3   OH236169   5.024   3.744  16.881  0.0812 -0.8758 -0.0671
 4893TIP3    H136170   5.104   3.702  16.849  1.1162  0.9239 -0.0013
 4893TIP3    H236171   5.000   3.694  16.959  1.7663 -0.8099  0.5342
 4894TIP3   OH236172   2.438   4.675   4.622 -0.0476  0.6549 -0.3356
 4894TIP3    H136173   2.488   4.720   4.555  0.0761 -1.2595 -1.5995
 4894TIP3    H236174   2.495   4.604   4.652 -1.7510 -1.3284 -1.5244
 4895TIP3   OH236175   2.072   4.349  14.472  0.6521 -0.5217  0.4827
 4895TIP3    H136176   2.043   4.438  14.496  0.1248 -0.0261 -1.8003
 4895TIP3    H236177   2.028   4.331  14.389 -0.5954 -3.6270  1.6572
 4896TIP3   OH236178   6.687   4.321   3.545 -0.0536  0.3374  0.2547
 4896TIP3    H136179   6.741   4.356   3.616  1.0131 -0.8902  0.0760
 4896TIP3    H236180   6.602   4.304   3.586  0.9149 -1.5621  1.6057
 4897TIP3   OH236181   6.057   1.211   1.630  0.2184 -0.1309 -0.1163
 4897TIP3    H136182   6.011   1.135   1.666  0.3223 -0.0712  0.1504
 4897TIP3    H236183   6.075   1.266   1.707 -0.7751  0.6619 -0.4341
 4898TIP3   OH236184   1.538   4.882   4.769  0.3048 -0.4992  0.1406
 4898TIP3    H136185   1.465   4.934   4.803  1.1292  1.3221 -0.6948
 4898TIP3    H236186   1.566   4.929   4.690  1.6665 -1.7644 -0.1833
 4899TIP3   OH236187   1.792   2.486  10.314  0.2368  0.4663 -0.3318
 4899TIP3    H136188   1.871   2.455  10.358 -0.2795  0.9672  0.9859
 4899TIP3    H236189   1.820   2.501  10.223  1.9112  1.6032  0.3251
 4900TIP3   OH236190   2.965   4.167   2.170 -0.1843 -0.6458  0.1729
 4900TIP3    H136191   2.943   4.120   2.250  0.5341 -0.9978  0.1719
 4900TIP3    H236192   3.055   4.196   2.183 -0.4648  0.3467 -0.0138
 4901TIP3   OH236193   2.171   1.266   4.876  0.4767 -0.2103 -0.1031
 4901TIP3    H136194   2.182   1.171   4.873  2.4181 -0.0366  0.1373
 4901TIP3    H236195   2.250   1.300   4.835  0.0994  1.3189  0.3886
 4902TIP3   OH236196   3.746   6.193   4.559  0.0397  0.2911  0.0757
 4902TIP3    H136197   3.747   6.233   4.472  0.4338  1.5910  0.6479
 4902TIP3    H236198   3.725   6.101   4.543 -0.5660  0.6446 -1.3301
 4903TIP3   OH236199   2.693   5.532  16.649 -0.0408 -0.3918 -0.0511
 4903TIP3    H136200   2.728   5.546  16.737 -1.1209 -0.6878  0.4414
 4903TIP3    H236201   2.616   5.589  16.644 -0.6876 -1.2736 -0.3572
 4904TIP3   OH236202   4.797   3.957   2.281 -0.3962  0.0470  0.3978
 4904TIP3    H136203   4.864   4.019   2.253 -0.4447  0.7296  1.7288
 4904TIP3    H236204   4.746   3.939   2.202  0.9344  0.0317 -0.4755
 4905TIP3   OH236205   1.405   1.156  11.008  0.1828 -0.2795  0.2714
 4905TIP3    H136206   1.442   1.072  10.981 -0.7799 -1.0863  1.3338
 4905TIP3    H236207   1.353   1.184  10.933  1.5083  0.0100 -0.5666
 4906TIP3   OH236208   0.089   5.810   4.561 -0.1175  0.5042 -0.3719
 4906TIP3    H136209   0.137   5.802   4.479 -0.2433 -1.8989 -0.2664
 4906TIP3    H236210   0.084   5.905   4.576 -0.7218  1.0664 -3.4664
 4907TIP3   OH236211   6.494   5.604   2.041 -0.7753 -0.0180 -0.3710
 4907TIP3    H136212   6.421   5.664   2.027 -1.6928 -0.9618  0.2410
 4907TIP3    H236213   6.484   5.573   2.131  1.8921  1.7897  0.6840
 4908TIP3   OH236214   3.374   4.679   2.271 -0.4337  0.3030  0.0661
 4908TIP3    H136215   3.423   4.753   2.235 -1.4961  1.6113  1.1682
 4908TIP3    H236216   3.326   4.716   2.345 -3.2642 -0.8138 -1.0645
 4909TIP3   OH236217   2.108   3.437  16.928  0.5645  0.6041  0.0908
 4909TIP3    H136218   2.186   3.471  16.884  0.4243  0.4579 -0.2704
 4909TIP3    H236219   2.039   3.442  16.863  0.9270 -2.0359 -0.5858
 4910TIP3   OH236220   3.986   2.483   5.665  0.0059  0.0599  0.4946
 4910TIP3    H136221   3.915   2.538   5.698 -0.9250 -0.5888 -0.3775
 4910TIP3    H236222   3.942   2.415   5.614  1.3217  0.3702 -1.1261
 4911TIP3   OH236223   1.396   3.334  11.335  0.8055  0.0792  0.3201
 4911TIP3    H136224   1.430   3.386  11.262  0.0091 -0.2830 -0.3322
 4911TIP3    H236225   1.473   3.300  11.380  1.4271 -2.3772 -2.2915
 4912TIP3   OH236226   1.906   4.761  15.591  0.1365  0.6142 -0.3123
 4912TIP3    H136227   1.913   4.773  15.686 -0.2595  0.2944 -0.2370
 4912TIP3    H236228   1.986   4.715  15.566  0.8698  1.8465 -0.3458
 4913TIP3   OH236229   6.366   0.516   3.974  0.1754 -0.1601  0.1760
 4913TIP3    H136230   6.326   0.601   3.991 -0.5079 -0.4736  0.1546
 4913TIP3    H236231   6.436   0.509   4.040 -0.0965  0.2010  0.5083
 4914TIP3   OH236232   6.069   2.566  14.175 -0.0093 -0.2024 -0.0755
 4914TIP3    H136233   6.070   2.498  14.107  2.0452 -0.1466 -0.1371
 4914TIP3    H236234   6.096   2.520  14.255 -0.8795  0.0708  0.3877
 4915TIP3   OH236235   3.381   6.174  13.347 -0.0581 -0.1828 -0.2676
 4915TIP3    H136236   3.467   6.217  13.340 -0.3813  0.6203  0.5541
 4915TIP3    H236237   3.319   6.247  13.348 -0.6111 -0.6528  1.2868
 4916TIP3   OH236238   6.142   3.119  11.552 -0.1977 -0.3905 -0.1430
 4916TIP3    H136239   6.229   3.156  11.569  0.2779 -1.6125  0.2436
 4916TIP3    H236240   6.134   3.119  11.457 -1.4161  3.2686 -0.1889
 4917TIP3   OH236241   1.740   6.815  13.086 -0.4194  0.5773 -0.7132
 4917TIP3    H136242   1.749   6.791  12.994  0.3953  1.6526 -0.9344
 4917TIP3    H236243   1.650   6.846  13.094 -0.9853 -0.9703 -0.7739
 4918TIP3   OH236244   0.927   5.643   5.662  0.0696  0.4389  0.0207
 4918TIP3    H136245   0.938   5.563   5.712  1.7165  1.1822  0.9338
 4918TIP3    H236246   1.011   5.654   5.616 -0.5083  1.0969 -0.9127
 4919TIP3   OH236247   5.558   0.083  12.408  0.1851  0.0130  0.0441
 4919TIP3    H136248   5.625   0.021  12.440 -0.4038 -0.1834  0.9459
 4919TIP3    H236249   5.482   0.028  12.389  0.8645 -0.0629 -2.9678
 4920TIP3   OH236250   6.081   2.985   0.773  0.0702 -0.4490 -0.0787
 4920TIP3    H136251   6.169   2.969   0.738  0.5066  0.3399  0.5962
 4920TIP3    H236252   6.023   2.974   0.698  0.8759  0.2963 -0.8411
 4921TIP3   OH236253   3.726   6.138   2.763  0.3052 -0.3155 -0.3524
 4921TIP3    H136254   3.645   6.106   2.723  0.2652  0.2081 -0.7006
 4921TIP3    H236255   3.711   6.231   2.778  0.5067 -0.3971  0.4331
 4922TIP3   OH236256   2.348   2.337  15.711  0.1325  0.3171 -0.0841
 4922TIP3    H136257   2.360   2.247  15.684 -0.4938  0.0542  0.4810
 4922TIP3    H236258   2.345   2.387  15.630 -0.5624 -0.3041 -0.4491
 4923TIP3   OH236259   4.912   0.795   0.111  0.0707 -0.1280 -0.0676
 4923TIP3    H136260   4.909   0.837   0.025 -0.4386  1.8436  0.8437
 4923TIP3    H236261   4.964   0.854   0.165 -1.5569 -0.0682  1.5638
 4924TIP3   OH236262   1.245   0.726   6.147 -0.0909 -0.6514  0.0729
 4924TIP3    H136263   1.308   0.653   6.146  0.2888 -0.3309 -1.1552
 4924TIP3    H236264   1.208   0.724   6.235  1.3495 -1.1045  0.7037
 4925TIP3   OH236265   1.850   1.299  14.350  0.0414 -0.2832  0.6116
 4925TIP3    H136266   1.812   1.347  14.424 -0.4472 -0.3658  0.4189
 4925TIP3    H236267   1.900   1.365  14.302 -0.3131 -0.0485  0.5614
 4926TIP3   OH236268   5.123   3.579   4.559  0.1573 -0.5756  0.5089
 4926TIP3    H136269   5.159   3.657   4.602  0.5086  0.7014 -1.9009
 4926TIP3    H236270   5.055   3.548   4.619  0.9746  0.7404  2.1980
 4927TIP3   OH236271   4.541   6.110  16.670  0.1556 -0.3634 -0.2615
 4927TIP3    H136272   4.538   6.056  16.748 -2.8574  1.2042  0.8950
 4927TIP3    H236273   4.562   6.198  16.703 -0.0810  0.1170 -1.3500
 4928TIP3   OH236274   4.033   6.210   0.922  0.3480 -0.5862 -0.5834
 4928TIP3    H136275   3.973   6.190   0.994  0.2218  1.9043  0.1020
 4928TIP3    H236276   4.004   6.153   0.851 -2.4300 -0.0135 -0.0585
 4929TIP3   OH236277   0.122   6.590   2.268 -0.3336 -0.6625 -0.0895
 4929TIP3    H136278   0.122   6.653   2.340  0.1344 -0.3907 -0.3261
 4929TIP3    H236279   0.183   6.522   2.296  1.4062  0.4265 -1.0689
 4930TIP3   OH236280   0.132   2.502  13.123 -0.2627 -1.0241 -0.3789
 4930TIP3    H136281   0.147   2.593  13.099 -2.6734 -0.1323  1.0796
 4930TIP3    H236282   0.094   2.462  13.045 -1.8743  0.0548 -0.2053
 4931TIP3   OH236283   3.955   1.852   1.248 -0.2099  1.0209  0.3907
 4931TIP3    H136284   3.863   1.865   1.274 -0.0116  1.4324  0.9022
 4931TIP3    H236285   4.005   1.888   1.321  0.3607  1.0277 -0.0065
 4932TIP3   OH236286   4.588   2.334  16.023  0.0501 -0.3778 -0.1302
 4932TIP3    H136287   4.555   2.326  16.113  0.5401  1.5446  0.2570
 4932TIP3    H236288   4.624   2.247  16.004  1.2631 -0.4525  2.0902
 4933TIP3   OH236289   2.934   0.929  12.226 -0.8682 -1.0089  0.4823
 4933TIP3    H136290   2.984   0.914  12.146  2.1853  0.9720  1.8344
 4933TIP3    H236291   2.918   0.841  12.261 -0.4123 -1.8080 -1.2005
 4934TIP3   OH236292   0.986   1.912  14.684  0.3929  0.1332  0.2779
 4934TIP3    H136293   1.020   2.001  14.672  3.0626 -1.0450 -1.7643
 4934TIP3    H236294   1.023   1.862  14.611 -1.1203 -2.6606  1.2976
 4935TIP3   OH236295   6.197   4.832   0.391 -0.0691 -0.0537 -0.0434
 4935TIP3    H136296   6.239   4.886   0.459 -0.9306 -2.3083  2.4678
 4935TIP3    H236297   6.243   4.855   0.310  1.6179  2.1749  1.4350
 4936TIP3   OH236298   0.450   3.617  11.613  0.0998  0.4863  0.0489
 4936TIP3    H136299   0.474   3.707  11.638  0.2237  0.7110 -0.8249
 4936TIP3    H236300   0.356   3.622  11.594  0.3547  0.7418 -1.2331
 4937TIP3   OH236301   3.548   4.155  14.700 -0.3093 -0.2832  0.0819
 4937TIP3    H136302   3.475   4.137  14.759  0.1000  0.1567  0.7283
 4937TIP3    H236303   3.516   4.126  14.614 -1.7561  1.1135  0.0877
 4938TIP3   OH236304   5.343   2.964  14.951 -0.6027 -0.3018  0.2757
 4938TIP3    H136305   5.345   3.040  15.009  1.2864 -0.4503  0.4558
 4938TIP3    H236306   5.423   2.971  14.899 -0.6401 -1.8970 -0.0546
 4939TIP3   OH236307   6.801   5.457   2.384  0.2363  0.1375  0.2402
 4939TIP3    H136308   6.781   5.499   2.468 -1.0705 -0.3391  0.1859
 4939TIP3    H236309   6.896   5.442   2.387 -0.0209 -1.5919  2.4686
 4940TIP3   OH236310   4.827   1.775   1.020  0.1435  0.4077 -0.1138
 4940TIP3    H136311   4.836   1.861   1.062  1.9760  0.9957 -1.5713
 4940TIP3    H236312   4.862   1.713   1.084 -0.4424  0.8127  0.6265
 4941TIP3   OH236313   1.809   4.806  15.236 -0.3022  0.8978  0.3810
 4941TIP3    H136314   1.834   4.755  15.313 -3.2632  1.4337  1.8580
 4941TIP3    H236315   1.809   4.743  15.164 -0.7624 -0.4459  1.5063
 4942TIP3   OH236316   5.851   6.134   6.696  0.0950  0.0181 -0.3133
 4942TIP3    H136317   5.843   6.229   6.691 -1.0930 -0.1040 -1.1137
 4942TIP3    H236318   5.937   6.115   6.658  0.0642  0.7296 -0.7450
 4943TIP3   OH236319   2.725   3.482   4.936 -0.2265 -0.0336  0.2236
 4943TIP3    H136320   2.783   3.409   4.958 -0.1357  0.5459  2.1224
 4943TIP3    H236321   2.677   3.500   5.017  0.9716  3.0543  0.4022
 4944TIP3   OH236322   2.699   2.402  15.497  0.5204  0.2207  0.6274
 4944TIP3    H136323   2.684   2.381  15.590 -1.0472  1.9008  0.8015
 4944TIP3    H236324   2.638   2.344  15.450 -1.0747  1.6178  0.8846
 4945TIP3   OH236325   2.469   3.852   2.421  0.3921  0.7023  0.3388
 4945TIP3    H136326   2.376   3.862   2.397  0.1455  1.2422  1.4637
 4945TIP3    H236327   2.469   3.852   2.517  1.4238 -0.6720  0.3744
 4946TIP3   OH236328   4.915   2.693   1.293  0.4092 -0.1894  0.2799
 4946TIP3    H136329   4.856   2.764   1.320  0.8551  0.3122 -0.0398
 4946TIP3    H236330   4.908   2.628   1.363 -1.9881 -1.0397 -0.6510
 4947TIP3   OH236331   3.615   4.792  14.280 -0.0878 -0.8012  0.2656
 4947TIP3    H136332   3.525   4.777  14.311 -0.5990 -1.1399 -1.2543
 4947TIP3    H236333   3.651   4.704  14.267 -0.6938 -0.7748 -2.1480
 4948TIP3   OH236334   4.410   5.569   0.367 -0.0743  0.6687  0.0337
 4948TIP3    H136335   4.449   5.526   0.444 -1.0187  0.2959  0.3143
 4948TIP3    H236336   4.437   5.514   0.294  0.1806  0.5824  0.1885
 4949TIP3   OH236337   3.249   2.022  16.097 -0.0446 -0.7806  0.0489
 4949TIP3    H136338   3.185   2.067  16.151  0.2002 -1.3068  0.8057
 4949TIP3    H236339   3.323   2.082  16.092 -0.0870 -0.7089  0.2689
 4950TIP3   OH236340   3.748   5.889   4.487 -0.4851 -0.1063 -0.2927
 4950TIP3    H136341   3.837   5.898   4.453 -0.2862  0.8213  0.4262
 4950TIP3    H236342   3.708   5.823   4.431 -0.3145  1.6307 -2.6239
 4951TIP3   OH236343   1.203   4.027   2.314 -0.1593 -0.5701  0.3845
 4951TIP3    H136344   1.166   4.112   2.336  0.1803 -0.6729  1.4297
 4951TIP3    H236345   1.284   4.047   2.267  0.3541 -0.2925  1.3634
 4952TIP3   OH236346   3.214   4.700   5.335 -0.1371  0.0832 -0.1104
 4952TIP3    H136347   3.163   4.733   5.262  0.2515 -1.4207 -1.1072
 4952TIP3    H236348   3.158   4.634   5.377 -0.2822  0.7891  0.8465
 4953TIP3   OH236349   5.762   3.185  12.740 -0.0889  0.9999 -0.0027
 4953TIP3    H136350   5.670   3.172  12.765  0.5904 -0.6516  1.8689
 4953TIP3    H236351   5.809   3.193  12.823  1.8223 -0.9650 -0.8193
 4954TIP3   OH236352   2.602   0.848   1.352  0.6518  0.8059 -0.0154
 4954TIP3    H136353   2.510   0.848   1.376  0.4832  0.3627 -0.6291
 4954TIP3    H236354   2.620   0.758   1.326  1.2909  0.8635  0.2227
 4955TIP3   OH236355   2.176   3.392   1.243  0.2786  0.2465  0.1307
 4955TIP3    H136356   2.245   3.344   1.289  0.6200 -0.5163 -1.1301
 4955TIP3    H236357   2.204   3.484   1.247  2.1580 -0.1877 -1.5848
 4956TIP3   OH236358   4.910   5.448  11.621 -0.1758 -0.0882  0.0316
 4956TIP3    H136359   4.874   5.469  11.535 -0.0365  4.0850  0.7547
 4956TIP3    H236360   4.964   5.370  11.606 -0.4654  0.2120 -3.5577
 4957TIP3   OH236361   0.854   0.855  13.478 -0.3066  0.0712  0.2153
 4957TIP3    H136362   0.807   0.902  13.409  1.1495  1.7789  0.3132
 4957TIP3    H236363   0.936   0.829  13.437 -0.5599 -1.3103  0.5483
 4958TIP3   OH236364   1.005   2.705   0.661  0.4129  0.8032  0.5201
 4958TIP3    H136365   0.998   2.791   0.702 -0.5215  0.7521  0.4925
 4958TIP3    H236366   0.972   2.718   0.572  0.8029  0.5333  0.3328
 4959TIP3   OH236367   2.673   3.928   0.552  0.3673  0.0908 -0.0784
 4959TIP3    H136368   2.585   3.893   0.569  0.0142  0.4305 -1.1370
 4959TIP3    H236369   2.730   3.876   0.608 -0.2669 -1.4338 -0.7915
 4960TIP3   OH236370   0.019   0.170  14.825 -0.1322 -0.5122  1.1172
 4960TIP3    H136371  -0.051   0.223  14.786 -0.1155 -0.8320  0.6489
 4960TIP3    H236372   0.087   0.166  14.757 -0.0461 -0.9634  1.2264
 4961TIP3   OH236373   3.215   1.206   6.365 -0.3943  0.4984 -0.3084
 4961TIP3    H136374   3.120   1.201   6.354 -0.6303  1.7338  0.9176
 4961TIP3    H236375   3.241   1.121   6.400 -0.9833  0.0217 -1.0097
 4962TIP3   OH236376   3.837   5.768   0.688  0.2692  0.6403 -0.1185
 4962TIP3    H136377   3.868   5.761   0.598  0.9485  2.8724 -0.1244
 4962TIP3    H236378   3.906   5.727   0.741 -0.6848 -1.7570 -0.6270
 4963TIP3   OH236379   4.490   3.439  14.091  0.4232  0.5231 -0.1780
 4963TIP3    H136380   4.411   3.440  14.145  0.2719  0.7262 -0.4041
 4963TIP3    H236381   4.460   3.412  14.004  0.7616 -0.4204 -0.0160
 4964TIP3   OH236382   3.841   2.467  12.176 -0.2468 -0.0607 -0.4247
 4964TIP3    H136383   3.869   2.375  12.176 -1.4422 -0.4739  0.9049
 4964TIP3    H236384   3.907   2.512  12.230 -0.4597 -0.4448  0.1734
 4965TIP3   OH236385   3.556   6.481   3.655 -0.5948  0.4617 -0.0537
 4965TIP3    H136386   3.546   6.519   3.742 -0.6042 -0.1480  0.2189
 4965TIP3    H236387   3.504   6.400   3.659 -0.7076  0.5030 -0.6694
 4966TIP3   OH236388   3.928   1.523  11.647  0.3084 -0.0690  0.0020
 4966TIP3    H136389   3.938   1.557  11.558  0.4814 -0.3093 -0.0695
 4966TIP3    H236390   4.017   1.504  11.676  0.2686  0.1860  0.2969
 4967TIP3   OH236391   0.710   4.938  15.175  0.3185  0.0245 -0.1480
 4967TIP3    H136392   0.802   4.928  15.150  0.4714  0.3123  0.2874
 4967TIP3    H236393   0.661   4.904  15.100  0.7814 -2.1550  0.4689
 4968TIP3   OH236394   4.875   4.150  14.839 -0.0519 -0.3769  0.4466
 4968TIP3    H136395   4.942   4.208  14.805 -0.2571  0.0736  0.8029
 4968TIP3    H236396   4.807   4.150  14.772  0.7822 -1.7297 -0.4491
 4969TIP3   OH236397   5.534   5.572  16.712 -0.1684  0.3049 -0.2620
 4969TIP3    H136398   5.492   5.654  16.740 -0.1601  0.3990 -0.5225
 4969TIP3    H236399   5.618   5.600  16.676  0.1590  0.1070  0.3443
 4970TIP3   OH236400   1.570   3.218  16.014  0.9156 -0.2777 -0.0446
 4970TIP3    H136401   1.618   3.136  16.031  0.6860 -0.3289  0.3573
 4970TIP3    H236402   1.552   3.254  16.101 -0.2125 -0.5051 -0.1753
 4971TIP3   OH236403   5.447   4.460   0.789  0.2686  0.1388  0.6740
 4971TIP3    H136404   5.539   4.468   0.817  0.1018  0.1925  1.2076
 4971TIP3    H236405   5.437   4.368   0.767  0.2887  0.0112  1.1882
 4972TIP3   OH236406   1.867   5.225  12.658 -0.5505  0.1903 -0.6718
 4972TIP3    H136407   1.790   5.193  12.705  0.0264 -0.1612  0.0544
 4972TIP3    H236408   1.939   5.169  12.687  0.3459  1.6272  0.0619
 4973TIP3   OH236409   4.687   2.989  13.485 -0.1095 -0.4238  0.8329
 4973TIP3    H136410   4.736   2.981  13.403  0.2634 -0.0834  1.0181
 4973TIP3    H236411   4.753   3.012  13.551 -0.1510 -2.1567  1.5325
 4974TIP3   OH236412   0.582   1.396   2.852  0.2550  0.3458 -0.0586
 4974TIP3    H136413   0.504   1.373   2.903  0.5046 -1.2275 -0.3415
 4974TIP3    H236414   0.553   1.390   2.761  0.4544  0.7344 -0.1471
 4975TIP3   OH236415   5.170   3.327  12.320  0.3552  0.6098  0.0300
 4975TIP3    H136416   5.152   3.361  12.232 -0.2691  1.8766  0.6166
 4975TIP3    H236417   5.193   3.404  12.371 -1.8289  0.3167  1.6118
 4976TIP3   OH236418   6.514   6.598  13.629 -0.2525 -0.4614  0.3712
 4976TIP3    H136419   6.451   6.528  13.614 -1.2176  0.2406  1.0698
 4976TIP3    H236420   6.592   6.570  13.581 -1.4387 -0.8407 -1.4388
 4977TIP3   OH236421   3.148   6.314  13.864 -0.5494  0.0525 -0.6867
 4977TIP3    H136422   3.199   6.389  13.832 -0.2845 -0.2701 -1.0286
 4977TIP3    H236423   3.179   6.301  13.954  0.1643 -0.3022 -0.9754
 4978TIP3   OH236424   1.853   6.378   0.163  0.4149  0.1867  0.2201
 4978TIP3    H136425   1.828   6.411   0.250 -0.6483  1.2083 -0.4358
 4978TIP3    H236426   1.793   6.423   0.103  0.1740 -1.5805 -0.9184
 4979TIP3   OH236427   5.401   2.331   4.144  0.3412 -0.2880  0.0441
 4979TIP3    H136428   5.457   2.371   4.078 -0.4238 -0.9374 -1.0235
 4979TIP3    H236429   5.339   2.278   4.095 -3.0116  2.4350  0.9077
 4980TIP3   OH236430   3.900   1.198   5.556 -1.0011  0.3236  0.7233
 4980TIP3    H136431   3.888   1.273   5.498  0.1637  0.6440  0.8867
 4980TIP3    H236432   3.991   1.171   5.544 -1.6652 -1.7886 -0.1777
 4981TIP3   OH236433   5.110   5.043  13.426  0.1528 -0.3805 -0.2299
 4981TIP3    H136434   5.203   5.020  13.420  0.1670 -0.2573 -0.4710
 4981TIP3    H236435   5.109   5.139  13.428  0.0008 -0.3708 -0.7336
 4982TIP3   OH236436   4.237   2.352  16.076  0.0381 -0.3286  0.2788
 4982TIP3    H136437   4.277   2.366  15.990 -0.2663 -1.0494  0.0179
 4982TIP3    H236438   4.157   2.404  16.074  0.5753  0.5372  0.5404
 4983TIP3   OH236439   1.581   4.627   3.358  0.3050  0.1257  0.3297
 4983TIP3    H136440   1.663   4.656   3.318  1.1577 -1.9844  0.3998
 4983TIP3    H236441   1.558   4.548   3.309 -1.4725  0.4309  0.6041
 4984TIP3   OH236442   6.123   3.823   0.584  0.4713 -0.2467  0.8294
 4984TIP3    H136443   6.045   3.785   0.545 -0.1271  0.9899  0.7504
 4984TIP3    H236444   6.183   3.750   0.596 -0.5799 -1.1677  0.5964
 4985TIP3   OH236445   2.669   5.023   5.538  0.2635 -0.3039  0.2353
 4985TIP3    H136446   2.638   4.941   5.501 -1.8228 -0.0520  1.2822
 4985TIP3    H236447   2.590   5.068   5.567  1.5495  0.8034  2.2656
 4986TIP3   OH236448   6.295   3.055   2.219  0.7028 -0.5513  0.1159
 4986TIP3    H136449   6.372   3.090   2.264  1.1222 -0.6408 -0.5212
 4986TIP3    H236450   6.323   2.969   2.186  0.2780 -0.6553  0.0155
 4987TIP3   OH236451   0.956   1.282  15.624  0.1002  0.2397  0.0389
 4987TIP3    H136452   0.979   1.257  15.714  0.9627  2.2031  0.4230
 4987TIP3    H236453   0.976   1.205  15.572  0.1728 -0.7316  1.4472
 4988TIP3   OH236454   0.724   0.436  15.302 -0.2783 -0.0747 -0.0598
 4988TIP3    H136455   0.731   0.341  15.294 -2.2001 -0.2644  0.1002
 4988TIP3    H236456   0.810   0.464  15.333  1.3219 -1.3971 -2.9119
 4989TIP3   OH236457   4.067   3.075  11.963 -0.1918 -0.8080 -0.4155
 4989TIP3    H136458   4.096   3.139  11.899  2.7665 -1.8246 -0.2533
 4989TIP3    H236459   4.078   3.118  12.048  0.8512 -1.1496 -0.3615
 4990TIP3   OH236460   6.126   3.615  14.731  0.0874  0.4973 -0.2879
 4990TIP3    H136461   6.068   3.584  14.662  1.8096 -1.2137 -1.0555
 4990TIP3    H236462   6.158   3.699  14.699 -1.8605  1.4432  0.1286
 4991TIP3   OH236463   3.240   6.305   1.635  0.6765 -0.3681 -0.2551
 4991TIP3    H136464   3.149   6.333   1.648  0.3874 -0.7147 -1.4686
 4991TIP3    H236465   3.238   6.249   1.558  2.0662  0.3091 -0.8225
 4992TIP3   OH236466   3.847   0.820   2.426  0.2097 -0.3692 -0.8870
 4992TIP3    H136467   3.810   0.782   2.346  1.4561  1.0990 -2.2276
 4992TIP3    H236468   3.864   0.911   2.404  0.0662  0.2433  1.2668
 4993TIP3   OH236469   0.108   6.692   3.711 -0.5452 -0.0787 -0.1907
 4993TIP3    H136470   0.161   6.612   3.713  0.2804  0.4656  0.0474
 4993TIP3    H236471   0.157   6.752   3.655  0.0870  1.1037  1.5546
 4994TIP3   OH236472   2.828   2.440  14.780  0.1224 -0.1731 -0.2185
 4994TIP3    H136473   2.773   2.507  14.740  0.8802  0.1241 -0.7875
 4994TIP3    H236474   2.802   2.359  14.737 -0.0207 -0.0680 -0.3309
 4995TIP3   OH236475   0.715   2.899   4.910  0.3868  0.4192 -0.0712
 4995TIP3    H136476   0.772   2.976   4.916 -1.3546  1.7315  0.2421
 4995TIP3    H236477   0.663   2.901   4.991 -2.8537  1.5748 -1.9935
 4996TIP3   OH236478   6.487   2.485  14.763  0.4700 -0.3243  0.4548
 4996TIP3    H136479   6.429   2.410  14.746 -1.3639  0.7903  1.3977
 4996TIP3    H236480   6.490   2.491  14.859 -0.7262  1.6942  0.4341
 4997TIP3   OH236481   2.757   5.524   0.647  0.3430  0.5447 -0.5060
 4997TIP3    H136482   2.750   5.538   0.741 -2.0197  1.1489 -0.7128
 4997TIP3    H236483   2.782   5.610   0.612  0.3359  0.5386 -0.5261
 4998TIP3   OH236484   0.547   3.944   0.385  0.3493  0.0845  0.0776
 4998TIP3    H136485   0.583   4.027   0.353 -0.3698  0.5706  0.5058
 4998TIP3    H236486   0.580   3.878   0.323  0.7135  0.7208 -0.4149
 4999TIP3   OH236487   5.032   4.213   4.537 -0.0571  0.3956 -0.2714
 4999TIP3    H136488   4.992   4.136   4.496  0.4223  0.7801 -1.5101
 4999TIP3    H236489   4.958   4.260   4.576 -0.2784 -1.0422  1.1766
 5000TIP3   OH236490   1.239   1.190  13.470  0.0262 -1.0411 -0.1031
 5000TIP3    H136491   1.165   1.200  13.410 -0.2223 -2.3892 -0.0590
 5000TIP3    H236492   1.210   1.233  13.551 -0.5686 -1.2360 -0.2059
 5001TIP3   OH236493   5.415   2.157  12.575  0.0184  0.2756 -0.5645
 5001TIP3    H136494   5.466   2.088  12.532  1.9301  0.9089  0.5635
 5001TIP3    H236495   5.399   2.123  12.663  0.1953  0.8833 -0.2916
 5002TIP3   OH236496   3.141   1.308  16.104 -0.1243  0.7011  0.2781
 5002TIP3    H136497   3.155   1.304  16.009 -0.6343 -1.7778  0.2313
 5002TIP3    H236498   3.049   1.334  16.113  0.0417  1.3612  0.1254
 5003TIP3   OH236499   6.776   1.134  12.830 -0.2938  0.4701 -0.0321
 5003TIP3    H136500   6.867   1.103  12.830  1.2257  4.3356 -1.9289
 5003TIP3    H236501   6.743   1.109  12.744 -1.4470 -1.6857  0.9646
 5004TIP3   OH236502   6.821   3.833   5.151  0.0347 -0.4638 -0.1897
 5004TIP3    H136503   6.842   3.926   5.144 -0.1293 -0.4564 -0.6530
 5004TIP3    H236504   6.728   3.828   5.131  0.1076 -0.7619 -0.4615
 5005TIP3   OH236505   1.915   2.171   5.835 -0.1606  0.9908 -0.1677
 5005TIP3    H136506   1.942   2.205   5.920  0.8854 -0.1424 -0.0102
 5005TIP3    H236507   1.846   2.230   5.806 -0.3626  1.5449  1.3538
 5006TIP3   OH236508   1.096   5.377   2.521  0.3118 -0.7942 -0.4548
 5006TIP3    H136509   1.007   5.383   2.486  0.4670 -2.4874 -1.2106
 5006TIP3    H236510   1.085   5.392   2.615 -0.7336 -0.6405 -0.5923
 5007TIP3   OH236511   4.201   3.330  17.010  0.1521  0.1340 -0.0234
 5007TIP3    H136512   4.238   3.347  16.924  1.4094 -1.1008  0.2368
 5007TIP3    H236513   4.131   3.395  17.020 -1.0067 -0.6243 -2.5476
 5008TIP3   OH236514   4.939   5.563   0.602 -0.3911  0.5434  0.2744
 5008TIP3    H136515   4.975   5.475   0.611 -1.4044  0.2466  1.8981
 5008TIP3    H236516   4.953   5.604   0.687 -1.3042  1.4154  0.0294
 5009TIP3   OH236517   1.410   3.194  16.772 -0.1044  0.1285 -0.4881
 5009TIP3    H136518   1.382   3.108  16.742 -0.1580 -0.6954  1.7116
 5009TIP3    H236519   1.470   3.226  16.704  1.9603 -2.7817 -0.2043
 5010TIP3   OH236520   3.421   0.089   2.143  0.3982  0.2503 -0.1862
 5010TIP3    H136521   3.427   0.017   2.080 -2.1913 -1.3330  1.2199
 5010TIP3    H236522   3.437   0.048   2.228  2.5258  2.0987  0.3892
 5011TIP3   OH236523   0.840   4.675  16.218 -0.0300  0.4955  0.4524
 5011TIP3    H136524   0.880   4.693  16.303  0.2670  0.4659  0.3174
 5011TIP3    H236525   0.911   4.640  16.165 -0.6682 -1.4513  0.8104
 5012TIP3   OH236526   2.380   0.643   0.787  0.0572 -0.4770  1.0470
 5012TIP3    H136527   2.309   0.579   0.795 -1.0681  0.7408  1.0279
 5012TIP3    H236528   2.379   0.669   0.695  0.4859 -0.4032  1.0616
 5013TIP3   OH236529   0.950   1.772  12.437 -0.4370  0.3872  0.7658
 5013TIP3    H136530   0.915   1.705  12.496 -0.3502  1.3255  1.9065
 5013TIP3    H236531   1.037   1.739  12.413  0.0464  0.5549  2.1655
 5014TIP3   OH236532   6.117   1.738   5.669 -0.0672  0.1946  0.2367
 5014TIP3    H136533   6.155   1.657   5.635 -1.7700 -1.4049  1.9022
 5014TIP3    H236534   6.113   1.796   5.593 -0.3101 -1.8650 -1.4095
 5015TIP3   OH236535   2.956   6.674   1.277  0.2926 -0.6796  0.4786
 5015TIP3    H136536   2.991   6.761   1.295  0.5830 -0.7876  0.4394
 5015TIP3    H236537   2.998   6.617   1.342  0.3435 -0.8466  0.2979
 5016TIP3   OH236538   1.376   1.882   4.594  0.3050 -0.0430 -0.2417
 5016TIP3    H136539   1.446   1.894   4.658 -0.2237 -1.0361  0.5496
 5016TIP3    H236540   1.350   1.791   4.604 -0.8606  0.2144 -0.7814
 5017TIP3   OH236541   2.271   2.941  13.784 -0.7860  0.3039  0.0095
 5017TIP3    H136542   2.183   2.971  13.806 -0.8452  0.6126 -0.6138
 5017TIP3    H236543   2.257   2.870  13.722 -0.5904  0.6853 -0.4793
 5018TIP3   OH236544   0.182   2.069   1.463 -0.4000  0.2508  0.0481
 5018TIP3    H136545   0.155   2.157   1.492 -0.5901  0.7683 -1.6070
 5018TIP3    H236546   0.265   2.083   1.418 -0.2543 -0.4843  0.0780
 5019TIP3   OH236547   4.943   6.407  14.079 -0.0672 -0.0197  0.1257
 5019TIP3    H136548   4.978   6.426  13.992  1.3727  0.8892  0.8689
 5019TIP3    H236549   4.977   6.477  14.135 -1.3700 -0.3031  1.3444
 5020TIP3   OH236550   1.153   4.365   3.158 -0.0365  0.2206 -0.6242
 5020TIP3    H136551   1.086   4.391   3.221  0.1984  1.1946 -0.7560
 5020TIP3    H236552   1.234   4.402   3.192  0.2373  0.0329 -1.0563
 5021TIP3   OH236553   4.846   3.524  11.991 -0.6469 -0.1382 -0.1868
 5021TIP3    H136554   4.878   3.453  11.937  0.3666 -0.9264  1.3653
 5021TIP3    H236555   4.908   3.595  11.977  0.1617 -0.6707  0.6425
 5022TIP3   OH236556   6.238   4.459  10.685 -0.7632 -0.3447 -0.1472
 5022TIP3    H136557   6.221   4.398  10.613 -1.5302 -0.3569  0.0252
 5022TIP3    H236558   6.282   4.533  10.644 -0.1218 -0.8625 -0.4186
 5023TIP3   OH236559   6.241   1.381  16.408 -0.1629 -0.0987  0.0015
 5023TIP3    H136560   6.317   1.381  16.350  0.4657  0.0527  0.8058
 5023TIP3    H236561   6.170   1.344  16.356  0.1997  0.7156 -1.0980
 5024TIP3   OH236562   6.776   0.395  16.033  0.4256 -0.2921  0.1142
 5024TIP3    H136563   6.801   0.323  15.976  0.6574  0.8075 -1.2533
 5024TIP3    H236564   6.828   0.469  16.001  0.1561  0.4895  1.4284
 5025TIP3   OH236565   2.800   5.118  11.621 -0.9052 -0.7122  0.0039
 5025TIP3    H136566   2.801   5.114  11.526 -0.5586 -0.6164  0.0021
 5025TIP3    H236567   2.844   5.200  11.643  1.4877 -1.9769  0.2970
 5026TIP3   OH236568   6.808   1.956   3.723 -0.2394  0.5399  0.0462
 5026TIP3    H136569   6.725   1.996   3.698 -0.6334 -0.5023 -0.3645
 5026TIP3    H236570   6.871   2.028   3.723 -0.8593  1.1019 -0.9861
 5027TIP3   OH236571   6.450   4.939   3.136  0.0800 -0.7400  0.0417
 5027TIP3    H136572   6.455   4.991   3.217 -0.5140  1.2992 -1.1592
 5027TIP3    H236573   6.470   4.850   3.164 -1.1264 -0.2972  2.6225
 5028TIP3   OH236574   1.067   2.658   0.247 -0.4743 -0.0110  0.0574
 5028TIP3    H136575   1.047   2.751   0.238 -0.2221  0.0252 -0.1510
 5028TIP3    H236576   1.055   2.622   0.159  0.3434  0.0106 -0.0751
 5029TIP3   OH236577   2.778   4.800  11.962  0.0740  0.4432  0.2127
 5029TIP3    H136578   2.755   4.821  12.052  1.4886  1.8276  0.2971
 5029TIP3    H236579   2.753   4.878  11.912  0.9388  0.4006 -0.2976
 5030TIP3   OH236580   6.133   5.516   0.410 -0.1321 -0.6714  0.2262
 5030TIP3    H136581   6.192   5.497   0.483  1.4449  1.3401 -0.4433
 5030TIP3    H236582   6.093   5.600   0.431 -0.9111 -0.8499 -0.4766
 5031TIP3   OH236583   0.692   2.778  11.946 -0.2969 -0.3398  0.5184
 5031TIP3    H136584   0.701   2.684  11.959  2.7314 -0.3387 -0.7871
 5031TIP3    H236585   0.597   2.792  11.939 -0.8373 -3.2931  0.4916
 5032TIP3   OH236586   2.696   0.155   0.362 -0.4048  0.5146  0.3066
 5032TIP3    H136587   2.625   0.177   0.422  0.3557 -1.5661  2.1249
 5032TIP3    H236588   2.770   0.207   0.392 -0.1237 -0.2562  0.9868
 5033TIP3   OH236589   3.772   3.317  10.730  0.1506  0.1788  0.1099
 5033TIP3    H136590   3.712   3.391  10.718  1.1855  1.0587  0.1835
 5033TIP3    H236591   3.722   3.241  10.701 -0.0430  1.2323 -2.7000
 5034TIP3   OH236592   3.840   1.498   2.220 -0.0630  0.3871 -0.4414
 5034TIP3    H136593   3.812   1.414   2.256 -2.5669  1.4927  0.4544
 5034TIP3    H236594   3.874   1.477   2.133  2.5512 -1.8931  0.9612
 5035TIP3   OH236595   6.101   5.879  12.731  0.1772  0.3613 -0.4281
 5035TIP3    H136596   6.148   5.825  12.668  1.4183 -1.3045  1.7785
 5035TIP3    H236597   6.166   5.945  12.759 -0.0984  0.5756 -0.2890
 5036TIP3   OH236598   1.059   5.298  11.294 -0.3109 -0.2366  0.8044
 5036TIP3    H136599   1.020   5.354  11.227  1.6747 -1.3027 -1.4073
 5036TIP3    H236600   1.084   5.218  11.247  1.8455 -0.7584  2.6362
 5037TIP3   OH236601   4.018   5.412   0.010 -0.0922 -0.0847  0.2666
 5037TIP3    H136602   4.096   5.428  -0.043  0.5603 -0.2129  1.1552
 5037TIP3    H236603   3.955   5.374  -0.050  0.3221  0.5719 -0.5979
 5038TIP3   OH236604   1.425   3.150  15.528 -0.3660  0.1701  0.1650
 5038TIP3    H136605   1.395   3.101  15.604 -1.7710 -0.8733 -1.0078
 5038TIP3    H236606   1.520   3.144  15.531 -0.4593 -2.0680  0.4763
 5039TIP3   OH236607   2.540   4.247  16.589  0.2556 -0.3566 -0.1412
 5039TIP3    H136608   2.617   4.292  16.623  1.5314 -2.2328 -0.3481
 5039TIP3    H236609   2.575   4.189  16.521 -1.6544  0.2306 -1.6984
 5040TIP3   OH236610   0.166   3.740  15.017 -0.2326  0.0699  0.3639
 5040TIP3    H136611   0.211   3.751  14.933 -1.2191  2.9308  0.1165
 5040TIP3    H236612   0.213   3.797  15.078 -1.6320  0.7350  0.8626
 5041TIP3   OH236613   5.711   4.134  14.074 -0.3942  0.8440 -0.0701
 5041TIP3    H136614   5.698   4.058  14.017 -0.4899  0.8667 -0.0799
 5041TIP3    H236615   5.805   4.135  14.093 -0.6536 -0.4585  1.5647
 5042TIP3   OH236616   6.403   5.568   0.289  0.0961 -0.7705  0.2021
 5042TIP3    H136617   6.428   5.636   0.351 -0.7642  1.4939 -1.7615
 5042TIP3    H236618   6.309   5.556   0.304  0.1849 -1.3177  0.3372
 5043TIP3   OH236619   5.944   5.700   4.414  0.2496 -0.5825 -0.0509
 5043TIP3    H136620   5.945   5.795   4.401 -0.2245 -0.5050  0.4590
 5043TIP3    H236621   5.855   5.681   4.442  0.5303 -1.0870  0.5150
 5044TIP3   OH236622   5.283   2.068  13.065 -0.2835 -0.1629  0.4696
 5044TIP3    H136623   5.376   2.055  13.083 -0.5082 -0.8184  1.2327
 5044TIP3    H236624   5.247   1.979  13.058 -0.5290  0.0515 -1.7091
 5045TIP3   OH236625   3.287   5.680   0.927  1.0943 -0.3047  0.0089
 5045TIP3    H136626   3.328   5.710   1.008  0.7258 -0.8180  0.3854
 5045TIP3    H236627   3.193   5.685   0.945  1.0192 -1.5525  0.0346
 5046TIP3   OH236628   3.542   3.806   1.477 -0.2065 -0.0021  0.3988
 5046TIP3    H136629   3.557   3.831   1.386 -0.2122  1.8528  0.8736
 5046TIP3    H236630   3.529   3.711   1.474  0.6047 -0.0975 -1.4194
 5047TIP3   OH236631   5.190   1.642   3.505 -0.3004  0.2349  0.2216
 5047TIP3    H136632   5.260   1.587   3.540 -1.2469 -1.3221 -0.2633
 5047TIP3    H236633   5.233   1.726   3.487  1.0429 -0.1332  1.5390
 5048TIP3   OH236634   0.153   0.259   3.009  0.2745 -0.0467  0.0665
 5048TIP3    H136635   0.065   0.221   3.012  0.3112 -0.1990 -0.5391
 5048TIP3    H236636   0.155   0.308   2.927  0.0669  1.6825  1.0577
 5049TIP3   OH236637   5.344   4.098   1.698 -0.0963 -0.4958  0.2250
 5049TIP3    H136638   5.406   4.043   1.744  0.8686 -1.2347 -1.8426
 5049TIP3    H236639   5.285   4.037   1.654 -0.1693  0.1467 -0.5938
 5050TIP3   OH236640   6.168   5.106  16.919 -0.3973 -0.4182  0.2164
 5050TIP3    H136641   6.245   5.150  16.884 -0.0571 -0.6559  0.6623
 5050TIP3    H236642   6.104   5.176  16.932 -0.3513 -0.2578 -0.3971
 5051TIP3   OH236643   5.781   3.456   6.855 -0.0876 -0.4453  0.2042
 5051TIP3    H136644   5.852   3.393   6.871 -0.1557  0.0897  3.2415
 5051TIP3    H236645   5.821   3.541   6.876 -1.5214 -0.1243  1.8381
 5052TIP3   OH236646   2.983   1.574  12.088 -0.0597  0.4187  1.3572
 5052TIP3    H136647   3.076   1.597  12.086 -0.3851  1.8952 -0.6485
 5052TIP3    H236648   2.970   1.520  12.010 -1.2877  2.3031  0.1805
 5053TIP3   OH236649   2.415   3.955   0.956 -0.2320  0.2221  0.4482
 5053TIP3    H136650   2.468   3.876   0.965  0.1216  0.5369  1.2500
 5053TIP3    H236651   2.325   3.926   0.966 -0.1433 -0.1699  0.1060
 5054TIP3   OH236652   2.712   3.348  15.255 -0.0584 -0.1119  0.1859
 5054TIP3    H136653   2.789   3.402  15.239  0.3558 -0.0842  2.0688
 5054TIP3    H236654   2.708   3.289  15.180  1.1603  0.6004 -0.4689
 5055TIP3   OH236655   4.249   0.982  14.209  0.2228 -0.1860 -0.0218
 5055TIP3    H136656   4.171   0.965  14.261  1.2678 -0.2912  1.5704
 5055TIP3    H236657   4.223   1.053  14.150 -1.5294 -1.2728 -0.6321
 5056TIP3   OH236658   0.466   1.869   5.330  0.1422  0.5773  0.4101
 5056TIP3    H136659   0.481   1.808   5.259  1.0790  0.6668  0.5280
 5056TIP3    H236660   0.482   1.955   5.292 -3.2582  1.0074 -0.3640
 5057TIP3   OH236661   6.063   1.389   4.306 -0.0972  0.4237  0.1324
 5057TIP3    H136662   6.068   1.393   4.402 -0.1340 -1.7241  0.2711
 5057TIP3    H236663   5.971   1.374   4.287  0.0502 -0.1751 -0.1575
 5058TIP3   OH236664   6.410   2.657   4.237 -0.1974  0.4474  0.1586
 5058TIP3    H136665   6.465   2.643   4.161  1.0203 -0.3009  1.1461
 5058TIP3    H236666   6.322   2.671   4.201  0.2059 -0.6715 -1.3276
 5059TIP3   OH236667   6.238   1.599   2.100  0.1080 -0.0366  0.5706
 5059TIP3    H136668   6.177   1.624   2.031 -0.6789 -1.9075  0.5233
 5059TIP3    H236669   6.185   1.593   2.179  1.0284  2.2234  1.4514
 5060TIP3   OH236670   3.053   0.418   1.648 -0.2910 -0.0520 -0.3810
 5060TIP3    H136671   3.125   0.481   1.647 -0.8285  0.5605 -1.0305
 5060TIP3    H236672   3.059   0.377   1.734  1.1693 -0.4035 -0.6287
 5061TIP3   OH236673   5.281   0.016   5.328 -0.0315  0.5614 -0.1678
 5061TIP3    H136674   5.268  -0.079   5.335  0.7979  0.5355  1.6224
 5061TIP3    H236675   5.193   0.052   5.320 -0.2855 -0.4322 -2.9394
 5062TIP3   OH236676   2.830   5.108  14.995 -0.2472 -0.0139  0.6177
 5062TIP3    H136677   2.920   5.080  14.974  0.0563 -0.5371  2.4669
 5062TIP3    H236678   2.799   5.150  14.915  1.7134  0.3387 -0.0069
 5063TIP3   OH236679   6.158   6.217   1.833 -0.3316 -0.0543 -0.7463
 5063TIP3    H136680   6.152   6.312   1.827  0.6559 -0.0761 -2.6796
 5063TIP3    H236681   6.252   6.198   1.830 -0.5576 -1.1480 -1.8414
 5064TIP3   OH236682   3.466   1.918  16.516  0.1231 -0.7337  0.0077
 5064TIP3    H136683   3.503   1.938  16.429 -0.5561 -0.1508 -0.1588
 5064TIP3    H236684   3.383   1.876  16.497  0.4067 -1.4667  0.3830
 5065TIP3   OH236685   3.926   4.983  14.321 -0.5228 -0.2024  0.2296
 5065TIP3    H136686   3.929   4.913  14.256  2.3997 -1.0919  1.1348
 5065TIP3    H236687   3.862   5.046  14.287 -1.5714 -2.2109 -1.7520
 5066TIP3   OH236688   0.818   6.439  11.951 -0.2538 -0.1176 -0.0895
 5066TIP3    H136689   0.876   6.500  11.996 -0.7377  0.6363 -0.4743
 5066TIP3    H236690   0.866   6.356  11.951  0.0869  0.0583  1.1152
 5067TIP3   OH236691   1.692   1.908   1.829  0.0126  0.0635  0.0199
 5067TIP3    H136692   1.669   1.949   1.745  1.7718  0.6267 -0.2325
 5067TIP3    H236693   1.616   1.925   1.885 -1.6022 -1.1066 -1.6673
 5068TIP3   OH236694   4.190   4.342   4.933  0.3922  0.1971 -0.0211
 5068TIP3    H136695   4.130   4.411   4.904  1.7363  1.7311  0.6935
 5068TIP3    H236696   4.217   4.299   4.852 -0.5458  0.4268 -0.4748
 5069TIP3   OH236697   6.226   2.924  15.001  0.1122  0.3839  0.1867
 5069TIP3    H136698   6.139   2.911  14.963  0.9898 -3.2548 -0.9692
 5069TIP3    H236699   6.286   2.906  14.929  1.7999 -2.6289  2.1589
 5070TIP3   OH236700   0.830   2.747  15.046  0.3812  0.0849 -0.1690
 5070TIP3    H136701   0.793   2.748  14.957  1.1681 -0.1437 -0.5094
 5070TIP3    H236702   0.754   2.744  15.104 -0.1176 -1.3238 -0.8609
 5071TIP3   OH236703   0.805   0.040   2.972 -0.0595  0.1247 -1.2278
 5071TIP3    H136704   0.813   0.095   2.894 -0.3902  0.9986 -0.6524
 5071TIP3    H236705   0.843  -0.044   2.946 -2.7108 -0.5702 -3.2692
 5072TIP3   OH236706   5.042   5.605  13.671  0.8090  0.7591  0.5134
 5072TIP3    H136707   5.104   5.594  13.743  1.8302  0.9522 -0.3153
 5072TIP3    H236708   5.081   5.558  13.598 -0.0106  0.9112 -0.0323
 5073TIP3   OH236709   1.654   1.181   3.005 -0.9890 -0.4720  0.9343
 5073TIP3    H136710   1.632   1.098   2.962  1.7234 -2.8967  3.7003
 5073TIP3    H236711   1.570   1.212   3.041 -2.4529 -0.7219 -1.9975
 5074TIP3   OH236712   3.358   2.979  15.142  0.3581  1.2297 -0.5485
 5074TIP3    H136713   3.322   2.894  15.169  1.1792  0.5656 -1.4858
 5074TIP3    H236714   3.452   2.969  15.153  0.5443  1.6482 -1.6570
 5075TIP3   OH236715   0.411   0.329  11.923  0.2014  0.5607  0.5682
 5075TIP3    H136716   0.499   0.366  11.930  0.7578 -0.6781  0.5033
 5075TIP3    H236717   0.421   0.257  11.860 -1.2489  1.5049 -0.8296
 5076TIP3   OH236718   1.975   6.545  16.641  0.0105  0.0230 -0.0826
 5076TIP3    H136719   1.964   6.576  16.731 -0.5080 -1.4200  0.3900
 5076TIP3    H236720   1.907   6.591  16.592  0.8394  1.4555  0.0737
 5077TIP3   OH236721   5.724   0.861   4.430  0.3237  0.3091 -0.3991
 5077TIP3    H136722   5.673   0.779   4.425 -0.5889  0.5697  2.6767
 5077TIP3    H236723   5.805   0.841   4.383 -0.4852 -1.8444 -1.0430
 5078TIP3   OH236724   0.031   0.575  14.109  0.7621  0.3779  0.1213
 5078TIP3    H136725   0.076   0.581  14.025  2.2656 -0.0507  0.8614
 5078TIP3    H236726  -0.010   0.489  14.109  0.1434  0.6643 -0.4514
 5079TIP3   OH236727   2.827   3.771  12.797 -0.5700 -0.0676  0.1852
 5079TIP3    H136728   2.887   3.845  12.784  0.2446 -0.7701 -0.1197
 5079TIP3    H236729   2.857   3.730  12.877  1.0900 -2.0014 -1.3191
 5080TIP3   OH236730   4.110   2.171   1.680 -0.2105  0.3343  0.0474
 5080TIP3    H136731   4.077   2.245   1.731  0.7425  1.4651 -0.9189
 5080TIP3    H236732   4.136   2.107   1.746 -3.5750 -0.3817  0.8844
 5081TIP3   OH236733   0.661   5.914  12.650  0.3492  0.0954  0.2539
 5081TIP3    H136734   0.740   5.945  12.606  1.3268 -2.2607  0.2037
 5081TIP3    H236735   0.692   5.881  12.735 -0.9706  1.2701  1.2360
 5082TIP3   OH236736   2.162   3.485  14.816 -0.0124 -0.4245 -0.1942
 5082TIP3    H136737   2.105   3.419  14.855 -0.7151  0.2707 -0.0038
 5082TIP3    H236738   2.109   3.565  14.817  0.1505 -0.2612 -2.0829
 5083TIP3   OH236739   0.988   0.541  15.393 -0.5042 -0.5906 -0.1118
 5083TIP3    H136740   1.032   0.596  15.458  0.3507 -2.2528  0.7940
 5083TIP3    H236741   1.022   0.571  15.309 -0.4707  0.5962  0.3063
 5084TIP3   OH236742   4.219   0.163  17.222 -0.3395 -0.2970 -0.2629
 5084TIP3    H136743   4.150   0.121  17.274 -1.7416  2.7564  0.5622
 5084TIP3    H236744   4.176   0.239  17.182  1.9453  0.2529 -1.8552
 5085TIP3   OH236745   3.035   0.919  14.298  0.0294  0.0097 -0.5042
 5085TIP3    H136746   2.991   0.970  14.230 -1.7875  0.7504  1.1276
 5085TIP3    H236747   2.972   0.851  14.322  0.5816 -0.1559  0.5346
 5086TIP3   OH236748   4.768   0.950  11.377 -0.0468  0.0854 -0.1683
 5086TIP3    H136749   4.860   0.939  11.403  0.2788 -0.4091 -1.4461
 5086TIP3    H236750   4.772   1.006  11.299 -0.7048 -1.1066 -1.0768
 5087TIP3   OH236751   2.022   4.388   3.204  0.1897  0.2024  0.1126
 5087TIP3    H136752   2.068   4.356   3.281 -1.3576 -0.4548  0.7900
 5087TIP3    H236753   1.982   4.311   3.165 -1.8957  0.9431  0.6182
 5088TIP3   OH236754   1.562   6.312   0.555 -0.3637 -0.4217 -0.4219
 5088TIP3    H136755   1.481   6.288   0.598 -0.2017  0.3076  0.3226
 5088TIP3    H236756   1.550   6.286   0.464 -1.0428 -1.2102 -0.1107
 5089TIP3   OH236757   0.454   6.136  16.704 -0.1860 -0.0235  0.3795
 5089TIP3    H136758   0.512   6.126  16.780 -1.0578  0.1463  1.0949
 5089TIP3    H236759   0.366   6.141  16.742 -0.8358 -1.8434 -0.7669
 5090TIP3   OH236760   3.216   0.599  11.951  0.5266  0.0371 -0.0920
 5090TIP3    H136761   3.308   0.611  11.927  0.9556  0.1579  1.5040
 5090TIP3    H236762   3.177   0.554  11.875  1.7031  0.6681 -1.1059
 5091TIP3   OH236763   4.720   1.607   1.800  0.1223 -0.1237 -0.0588
 5091TIP3    H136764   4.775   1.539   1.837 -0.6649 -0.5604  0.3339
 5091TIP3    H236765   4.769   1.639   1.724  0.2739 -1.4707 -0.5528
 5092TIP3   OH236766   1.055   0.481   5.505 -0.2934 -0.6465 -0.6120
 5092TIP3    H136767   1.004   0.420   5.560  1.2277 -0.5120  1.0536
 5092TIP3    H236768   1.071   0.432   5.425  0.8610 -2.4965  0.6692
 5093TIP3   OH236769   6.131   1.616  14.093  0.2480  0.2473  0.2286
 5093TIP3    H136770   6.155   1.524  14.106  1.5114  0.1902 -2.0165
 5093TIP3    H236771   6.120   1.650  14.182  0.8343 -1.7745  1.1548
 5094TIP3   OH236772   4.416   0.052   3.334  0.0889  0.4715 -0.0770
 5094TIP3    H136773   4.383   0.131   3.378 -2.2991 -0.9852  0.9610
 5094TIP3    H236774   4.376   0.054   3.247 -1.0525 -0.2003  0.4110
 5095TIP3   OH236775   4.621   1.246   4.610 -0.5907  0.1525  0.3865
 5095TIP3    H136776   4.576   1.315   4.658 -0.2469  0.4252  0.3200
 5095TIP3    H236777   4.553   1.181   4.591 -1.4287  1.4648 -1.4562
 5096TIP3   OH236778   1.934   6.809  13.785  0.3768  0.2026 -0.1703
 5096TIP3    H136779   1.962   6.748  13.853  2.5885  0.5249 -0.7167
 5096TIP3    H236780   1.983   6.890  13.805 -1.9493  1.6263  0.1392
 5097TIP3   OH236781   4.696   0.016   3.392 -0.1670 -0.1153  0.4422
 5097TIP3    H136782   4.601   0.025   3.381  0.0081  0.3031 -0.8823
 5097TIP3    H236783   4.726  -0.018   3.308  0.6927 -1.6804  1.3424
 5098TIP3   OH236784   4.560   1.107   5.941 -0.6744 -0.8142 -0.5222
 5098TIP3    H136785   4.555   1.186   5.994 -0.3530 -0.7776 -0.5408
 5098TIP3    H236786   4.544   1.138   5.851  2.7003 -0.1564 -1.0552
 5099TIP3   OH236787   2.218   5.507   1.981 -0.9665 -0.1664  0.3858
 5099TIP3    H136788   2.283   5.437   1.978  0.5945  1.2427 -1.5446
 5099TIP3    H236789   2.224   5.543   2.069  1.1385  0.0947  0.1925
 5100TIP3   OH236790   0.955   2.487  11.219  0.0039  0.4400 -0.2759
 5100TIP3    H136791   0.894   2.546  11.175 -0.1847  0.2649 -0.2511
 5100TIP3    H236792   0.954   2.408  11.165 -0.8566 -0.0865  0.4961
 5101TIP3   OH236793   2.936   2.902  13.122 -0.1037  0.5350  0.0686
 5101TIP3    H136794   2.974   2.834  13.177  0.9827  0.1080 -1.1630
 5101TIP3    H236795   2.911   2.857  13.042 -2.0876  1.0600  0.3359
 5102TIP3   OH236796   2.023   6.604   4.924 -0.8507  0.4264 -0.3300
 5102TIP3    H136797   2.105   6.562   4.901 -0.4798  1.0454 -0.1612
 5102TIP3    H236798   1.992   6.642   4.841 -0.6471  0.7307 -0.2686
 5103TIP3   OH236799   6.495   1.516  13.380 -0.0085 -0.1449 -0.3073
 5103TIP3    H136800   6.442   1.579  13.429  0.7048  0.3254 -0.1368
 5103TIP3    H236801   6.507   1.442  13.440 -2.7851 -1.5553 -1.2577
 5104TIP3   OH236802   0.224   6.409  10.058  0.1177  0.4563  0.6083
 5104TIP3    H136803   0.137   6.416  10.097 -0.8952 -0.1316 -1.4177
 5104TIP3    H236804   0.250   6.318  10.075 -0.8060 -0.1327 -0.9751
 5105TIP3   OH236805   5.489   5.148   4.918 -0.4113 -0.6854  0.3014
 5105TIP3    H136806   5.408   5.103   4.892  0.0908 -1.2438 -0.3423
 5105TIP3    H236807   5.491   5.226   4.863  0.0345 -1.2459 -0.5096
 5106TIP3   OH236808   0.679   3.304  11.697 -0.1173 -0.0838 -0.2407
 5106TIP3    H136809   0.643   3.236  11.640 -2.1608 -0.3070  1.1805
 5106TIP3    H236810   0.709   3.257  11.774 -1.3608  0.5293  0.6685
 5107TIP3   OH236811   0.777   6.190  13.423  0.0031  0.2738  0.1513
 5107TIP3    H136812   0.857   6.153  13.461 -2.0264 -1.8786  2.7685
 5107TIP3    H236813   0.782   6.283  13.443  2.3732  0.4601 -0.9430
 5108TIP3   OH236814   6.177   1.336  12.545  0.3605 -0.4214  0.4522
 5108TIP3    H136815   6.272   1.339  12.529  0.6312  0.2033  1.9749
 5108TIP3    H236816   6.158   1.418  12.590 -1.1975  0.1491 -1.1250
 5109TIP3   OH236817   6.242   4.121   6.884 -0.2615 -0.4732 -0.3940
 5109TIP3    H136818   6.241   4.123   6.789  0.3015  0.5420 -0.3942
 5109TIP3    H236819   6.333   4.106   6.908 -0.1801  0.5342 -0.0223
 5110TIP3   OH236820   1.894   3.788  14.688  0.7703  0.3820 -0.8035
 5110TIP3    H136821   1.812   3.746  14.662  0.3903  1.5767 -1.6663
 5110TIP3    H236822   1.922   3.742  14.767 -1.5935  1.0011  0.4729
 5111TIP3   OH236823   0.963   0.790   1.072 -0.3755  0.0307  0.2395
 5111TIP3    H136824   0.882   0.799   1.121 -0.7236 -1.1961 -0.0746
 5111TIP3    H236825   0.981   0.878   1.038 -0.4621  0.7567  2.0017
 5112TIP3   OH236826   2.136   3.388   3.089  1.0187 -0.0142  0.1730
 5112TIP3    H136827   2.063   3.329   3.107  1.2477 -0.1965  0.5190
 5112TIP3    H236828   2.105   3.474   3.116  0.5125  0.1163 -0.7653
 5113TIP3   OH236829   3.140   6.495  12.638  0.2155  0.0888  0.2415
 5113TIP3    H136830   3.095   6.462  12.560 -1.3710  0.0576  1.1229
 5113TIP3    H236831   3.141   6.590  12.627  0.6469  0.0422 -0.1443
 5114TIP3   OH236832   2.316   4.167  14.466  0.2052 -0.3710  0.4243
 5114TIP3    H136833   2.310   4.102  14.537 -2.4747  0.6656  1.2960
 5114TIP3    H236834   2.249   4.232  14.488  1.2100  1.4860 -1.6337
 5115TIP3   OH236835   5.027   3.502   2.338 -0.0624 -0.4300  0.5260
 5115TIP3    H136836   4.959   3.455   2.290 -1.2097  1.3414  0.2849
 5115TIP3    H236837   5.087   3.534   2.271 -0.8216  0.7396  0.3619
 5116TIP3   OH236838   1.815   0.948  11.687  0.2878  0.2873  0.2255
 5116TIP3    H136839   1.852   0.876  11.635  1.7186  0.6294  0.7012
 5116TIP3    H236840   1.828   1.026  11.633 -3.4133  0.0117 -1.3562
 5117TIP3   OH236841   5.160   6.569  16.566  0.0394  0.1631 -0.4691
 5117TIP3    H136842   5.176   6.598  16.656 -2.2712 -1.4521  0.5798
 5117TIP3    H236843   5.097   6.632  16.531  0.3812  0.3808 -0.6901
 5118TIP3   OH236844   2.225   3.575   1.806  0.0421  0.0114 -0.0062
 5118TIP3    H136845   2.210   3.515   1.733 -0.3449  0.5797 -0.3936
 5118TIP3    H236846   2.319   3.568   1.824  0.0689 -0.4186 -0.2967
 5119TIP3   OH236847   3.575   6.482   3.070  0.6722 -0.2027 -0.5064
 5119TIP3    H136848   3.593   6.576   3.080 -0.9674  0.1654 -0.8525
 5119TIP3    H236849   3.611   6.443   3.150  2.9726  0.4497 -1.1465
 5120TIP3   OH236850   5.580   6.656  11.814  0.0977 -0.4692 -0.1637
 5120TIP3    H136851   5.589   6.746  11.845  0.5952  0.3424 -2.4698
 5120TIP3    H236852   5.486   6.645  11.800 -0.2533 -1.1411  2.2313
 5121TIP3   OH236853   5.298   2.088  16.321  0.0410  0.0476  0.7305
 5121TIP3    H136854   5.231   2.081  16.389 -0.6801  0.4030  0.0767
 5121TIP3    H236855   5.300   2.002  16.279 -1.8328  0.7258 -0.8939
 5122TIP3   OH236856   3.740   5.358   1.599  1.3121 -0.2096  0.1974
 5122TIP3    H136857   3.802   5.426   1.624  0.3141  0.9313 -0.3442
 5122TIP3    H236858   3.674   5.359   1.669  2.1721 -1.8438  1.1046
 5123TIP3   OH236859   5.160   0.901   5.163 -0.6536 -0.4014  0.1643
 5123TIP3    H136860   5.104   0.835   5.123  0.2524 -0.2032 -1.5170
 5123TIP3    H236861   5.177   0.964   5.093 -0.7620  1.1625  1.4644
 5124TIP3   OH236862   6.399   0.426   4.994  0.8191  0.0007 -0.0830
 5124TIP3    H136863   6.328   0.472   4.949  0.8515 -0.7020 -0.8685
 5124TIP3    H236864   6.374   0.334   4.992  0.9727 -0.0890  1.0830
 5125TIP3   OH236865   6.207   6.512  13.889  0.3534 -0.4289  0.1774
 5125TIP3    H136866   6.269   6.573  13.929  1.6548 -1.4587 -0.1940
 5125TIP3    H236867   6.189   6.550  13.803 -0.8601  0.7215  0.8862
 5126TIP3   OH236868   2.103   0.377   2.876 -0.7837 -0.2100  0.4700
 5126TIP3    H136869   2.052   0.299   2.854 -0.4972 -0.5176  0.8647
 5126TIP3    H236870   2.194   0.346   2.874 -0.4091  0.7742 -2.1861
 5127TIP3   OH236871   1.615   3.307  10.397  0.0192 -0.2108  0.0549
 5127TIP3    H136872   1.629   3.261  10.480  3.4531 -1.2820 -0.9166
 5127TIP3    H236873   1.640   3.397  10.416 -1.7644  0.1748  0.7460
 5128TIP3   OH236874   5.728   2.187   5.497 -0.1708  0.1939  0.6745
 5128TIP3    H136875   5.740   2.282   5.496  2.6353 -0.0736 -0.3656
 5128TIP3    H236876   5.692   2.166   5.411  1.1166  0.1902  0.1089
 5129TIP3   OH236877   4.187   4.693  15.183  0.4577 -0.9528  0.2293
 5129TIP3    H136878   4.170   4.778  15.142 -0.5021 -1.9886 -1.6269
 5129TIP3    H236879   4.235   4.644  15.117  0.5697 -2.0491  1.0897
 5130TIP3   OH236880   4.020   3.246   0.625  0.0399 -0.3655 -0.3880
 5130TIP3    H136881   4.085   3.184   0.593  0.9676  1.0157 -1.2850
 5130TIP3    H236882   3.962   3.193   0.680  1.5116 -1.7694 -0.0997
 5131TIP3   OH236883   2.258   6.749   4.612  0.1470 -0.2384 -0.4896
 5131TIP3    H136884   2.175   6.792   4.632 -0.2027 -0.8026 -0.7283
 5131TIP3    H236885   2.308   6.816   4.565 -0.0002  0.2469  0.0200
 5132TIP3   OH236886   3.599   2.282   4.226 -0.3066 -0.5042  0.3587
 5132TIP3    H136887   3.542   2.280   4.303 -1.0612 -0.5075 -0.1780
 5132TIP3    H236888   3.575   2.364   4.181  0.4995 -0.2388  0.3999
 5133TIP3   OH236889   2.311   1.963  14.991 -0.1581  0.4140 -0.0760
 5133TIP3    H136890   2.384   1.953  15.052  0.1789  2.2562 -0.1283
 5133TIP3    H236891   2.235   1.982  15.047  0.3918  3.3798 -0.1939
 5134TIP3   OH236892   0.434   4.474   4.628  0.2021  0.3662 -0.3588
 5134TIP3    H136893   0.377   4.547   4.654  0.9940  0.1339  2.3542
 5134TIP3    H236894   0.523   4.506   4.644  0.5611 -1.1284  0.8765
 5135TIP3   OH236895   3.597   1.377   0.252 -0.9765  0.4267  0.2287
 5135TIP3    H136896   3.533   1.398   0.320 -1.7883  1.0314 -0.6801
 5135TIP3    H236897   3.649   1.457   0.242 -0.8784  0.3509  0.1317
 5136TIP3   OH236898   3.727   4.245   1.446 -0.0159  0.0084 -0.2296
 5136TIP3    H136899   3.650   4.192   1.466 -2.2590  2.0048 -2.7320
 5136TIP3    H236900   3.745   4.228   1.353  0.7824  1.6750 -0.4161
 5137TIP3   OH236901   5.079   1.196  13.345 -0.0235 -0.3826  0.0539
 5137TIP3    H136902   5.050   1.244  13.268  1.1614 -0.4989 -0.4773
 5137TIP3    H236903   5.122   1.118  13.311  0.4584 -0.4695  0.8273
 5138TIP3   OH236904   6.372   2.456   2.668 -0.3908  0.3840  0.1898
 5138TIP3    H136905   6.385   2.541   2.626 -0.5033  1.8596  2.8994
 5138TIP3    H236906   6.428   2.396   2.619  0.8492  2.3230 -0.9113
 5139TIP3   OH236907   5.093   1.911   4.769 -0.0745 -0.6720  0.0456
 5139TIP3    H136908   5.092   1.836   4.829  1.5650 -0.8178 -0.0647
 5139TIP3    H236909   5.162   1.967   4.803 -0.0786 -0.0759 -0.9048
 5140TIP3   OH236910   4.446   2.331  16.284 -0.2333  0.0425 -0.1319
 5140TIP3    H136911   4.452   2.425  16.264  1.5174 -0.3527 -1.7587
 5140TIP3    H236912   4.359   2.305  16.252 -0.9132  1.1520  0.7237
 5141TIP3   OH236913   3.011   0.838   4.236  0.2314 -0.1324 -0.2207
 5141TIP3    H136914   2.963   0.910   4.277  0.0553 -0.2084 -0.2931
 5141TIP3    H236915   3.091   0.879   4.203 -0.0007  0.0916 -0.5182
 5142TIP3   OH236916   6.213   0.938   1.459 -0.3808 -0.0539  0.1963
 5142TIP3    H136917   6.158   0.883   1.515  2.1652 -1.3896  1.5471
 5142TIP3    H236918   6.220   0.889   1.377 -1.0207  0.0424  0.0759
 5143TIP3   OH236919   1.110   2.817  11.626  0.2655 -0.3045 -0.1527
 5143TIP3    H136920   1.071   2.889  11.577  0.9942 -0.2016 -0.5902
 5143TIP3    H236921   1.035   2.773  11.667 -0.2196  0.4586 -0.1965
 5144TIP3   OH236922   0.710   5.152   2.735  0.3528  0.1161 -0.1334
 5144TIP3    H136923   0.797   5.186   2.716  0.1097  0.8886  0.1329
 5144TIP3    H236924   0.719   5.108   2.820  0.2452  1.0853  0.3831
 5145TIP3   OH236925   2.477   4.263  17.212  0.3235  0.3781 -0.1482
 5145TIP3    H136926   2.498   4.205  17.285  0.1147 -0.6404 -0.8879
 5145TIP3    H236927   2.513   4.220  17.135  3.4929  2.9595 -0.3481
 5146TIP3   OH236928   4.950   2.904  15.293  0.3407 -0.1840 -0.1223
 5146TIP3    H136929   4.983   2.846  15.362 -0.0654 -0.4667 -0.1641
 5146TIP3    H236930   5.008   2.885  15.218  1.1099  0.4983  0.2843
 5147TIP3   OH236931   2.907   5.150   5.512 -0.0920 -0.4308 -0.0588
 5147TIP3    H136932   2.814   5.128   5.498 -0.4533  0.8387  0.1967
 5147TIP3    H236933   2.924   5.220   5.449  0.4443 -0.0405  0.5158
 5148TIP3   OH236934   6.794   6.356  14.551 -0.0875  0.4701 -0.1748
 5148TIP3    H136935   6.706   6.383  14.524 -0.0624  0.7382  0.0084
 5148TIP3    H236936   6.784   6.264  14.576 -0.4066  0.6117  0.2374
 5149TIP3   OH236937   5.972   3.489   1.565  0.3034  0.1688 -0.1927
 5149TIP3    H136938   5.898   3.438   1.598  0.2262  0.3126 -0.1419
 5149TIP3    H236939   5.991   3.551   1.635  0.3219  0.2859 -0.3020
 5150TIP3   OH236940   1.785   3.142   5.174  0.3822  0.4553  0.4320
 5150TIP3    H136941   1.721   3.210   5.152  0.9028  0.9743  0.4983
 5150TIP3    H236942   1.804   3.099   5.090  0.3960  0.6955  0.3114
 5151TIP3   OH236943   4.342   2.052  12.871 -0.0587  0.3886 -0.8391
 5151TIP3    H136944   4.264   1.999  12.855 -1.7769  2.9959 -1.8106
 5151TIP3    H236945   4.342   2.068  12.965  0.0687 -0.6852 -0.6509
 5152TIP3   OH236946   1.303   3.452   2.777 -0.0289 -0.1062 -0.2184
 5152TIP3    H136947   1.393   3.482   2.760  0.4104 -1.8233 -1.2328
 5152TIP3    H236948   1.251   3.492   2.707 -0.3275  1.8909  1.0848
 5153TIP3   OH236949   5.475   6.409   5.993  0.1230  0.1034 -0.2809
 5153TIP3    H136950   5.421   6.358   6.054  1.2338 -0.2336  0.4496
 5153TIP3    H236951   5.528   6.344   5.947  0.6865  0.5001 -0.2092
 5154TIP3   OH236952   5.187   6.802  12.003  0.1927 -0.2714 -0.7986
 5154TIP3    H136953   5.124   6.873  12.014  0.1715 -0.2034 -1.3136
 5154TIP3    H236954   5.204   6.770  12.091 -0.5287 -0.2559 -0.6495
 5155TIP3   OH236955   2.305   0.594  13.366  0.0985 -0.4089 -0.0274
 5155TIP3    H136956   2.399   0.577  13.366  0.0080 -0.9731  1.2000
 5155TIP3    H236957   2.270   0.535  13.300  0.3918 -1.5519  0.8161
 5156TIP3   OH236958   6.191   3.509   4.782 -0.4089  0.1417  0.0658
 5156TIP3    H136959   6.105   3.472   4.762 -0.3679 -0.5399  1.0590
 5156TIP3    H236960   6.252   3.454   4.733 -0.3269 -1.3581  1.7474
 5157TIP3   OH236961   4.249   6.598  16.398 -0.4130  0.3016 -0.6340
 5157TIP3    H136962   4.324   6.657  16.397  0.3383 -0.6355 -1.2474
 5157TIP3    H236963   4.274   6.526  16.340 -1.0020 -0.9793  0.6346
 5158TIP3   OH236964   2.472   3.695  11.842 -0.2475 -0.8299 -0.2405
 5158TIP3    H136965   2.411   3.754  11.798 -0.0052  0.7186  1.4063
 5158TIP3    H236966   2.423   3.659  11.915  0.3590 -0.6920  0.2459
 5159TIP3   OH236967   3.997   5.483  16.375  0.1027  1.0421 -0.5215
 5159TIP3    H136968   3.980   5.439  16.459  0.1697  0.0772 -0.9965
 5159TIP3    H236969   4.037   5.566  16.399  1.3842  0.2116  0.3874
 5160TIP3   OH236970   6.706   1.318   3.685 -0.2593  0.4282 -0.1325
 5160TIP3    H136971   6.651   1.240   3.695 -0.2259  0.4170 -0.0319
 5160TIP3    H236972   6.682   1.373   3.760 -0.6159  0.7200 -0.4527
 5161TIP3   OH236973   1.853   4.861   2.002  0.1106 -0.0269  0.4077
 5161TIP3    H136974   1.907   4.931   1.966  0.0238 -0.4821 -0.6471
 5161TIP3    H236975   1.873   4.861   2.096  1.5798  0.1320  0.1228
 5162TIP3   OH236976   2.259   6.325  10.662 -0.2658  0.4070  0.3168
 5162TIP3    H136977   2.170   6.335  10.629  0.3639  1.2968 -1.2566
 5162TIP3    H236978   2.293   6.415  10.665  1.8208 -0.1277 -2.9115
 5163TIP3   OH236979   1.404   2.417  11.398 -0.6308  0.6700 -0.6632
 5163TIP3    H136980   1.427   2.369  11.477  0.3642  1.9579 -0.1388
 5163TIP3    H236981   1.314   2.447  11.412 -0.5968  0.5501 -0.1906
 5164TIP3   OH236982   6.648   1.067   1.023 -0.0227  0.0351 -0.4105
 5164TIP3    H136983   6.700   0.987   1.012 -1.4270 -1.1755  1.2061
 5164TIP3    H236984   6.706   1.127   1.071  0.5177 -0.5994 -0.2501
 5165TIP3   OH236985   1.967   3.628  14.351 -0.3821  0.1521  0.6554
 5165TIP3    H136986   2.054   3.665  14.362  0.3788 -0.8675 -1.3601
 5165TIP3    H236987   1.978   3.535  14.366 -0.0812 -0.6997 -3.6028
 5166TIP3   OH236988   3.629   3.844  16.449  0.6792 -0.3503  0.4367
 5166TIP3    H136989   3.625   3.754  16.416  0.1080 -0.1929  0.0729
 5166TIP3    H236990   3.569   3.893  16.393 -1.1775 -0.2775  2.3580
 5167TIP3   OH236991   0.683   3.603  13.811 -0.5249 -0.1198 -0.5985
 5167TIP3    H136992   0.729   3.521  13.827 -0.1840 -0.0189 -1.0433
 5167TIP3    H236993   0.707   3.658  13.885 -1.6822 -0.8044  0.3190
 5168TIP3   OH236994   4.055   4.166  10.965  0.3864 -0.3389 -0.0642
 5168TIP3    H136995   4.066   4.122  11.049  0.2167  0.9215  0.6486
 5168TIP3    H236996   3.964   4.150  10.941  0.1508  0.1202  0.4979
 5169TIP3   OH236997   4.915   1.572  11.784  0.3145  0.0892  0.0868
 5169TIP3    H136998   4.892   1.489  11.741 -1.2505  0.2219  0.5905
 5169TIP3    H236999   4.867   1.570  11.867  0.6070  1.3074  0.3053
 5170TIP3   OH237000   2.762   3.928   2.761 -0.2293  0.5088  0.0667
 5170TIP3    H137001   2.767   3.912   2.667  0.8757  1.7719 -0.1381
 5170TIP3    H237002   2.737   3.844   2.799 -1.7165  0.2307 -1.4215
 5171TIP3   OH237003   4.300   6.796  15.097 -0.1862  0.3076 -0.0466
 5171TIP3    H137004   4.376   6.778  15.042 -1.1247  2.9445 -2.4245
 5171TIP3    H237005   4.324   6.760  15.183  3.5708  0.6609 -0.7763
 5172TIP3   OH237006   6.821   6.551  14.865 -0.2252  0.0587  0.0690
 5172TIP3    H137007   6.797   6.466  14.903 -0.8990 -0.6060 -1.7556
 5172TIP3    H237008   6.769   6.614  14.914 -0.5247 -0.6926  0.7415
 5173TIP3   OH237009   6.510   2.594   3.707  0.1152  0.4277  0.2677
 5173TIP3    H137010   6.440   2.632   3.655  0.0967  0.6208  0.4319
 5173TIP3    H237011   6.585   2.588   3.647  0.7997  2.7598  0.7872
 5174TIP3   OH237012   6.640   4.338  11.344  0.1956  0.0240 -0.6584
 5174TIP3    H137013   6.589   4.333  11.264  0.6548  0.2736 -0.9687
 5174TIP3    H237014   6.597   4.407  11.395 -0.4674 -0.5566 -0.4146
 5175TIP3   OH237015   0.513   1.339   2.600  0.7371  0.2144 -0.0541
 5175TIP3    H137016   0.514   1.255   2.555  0.2145 -0.2968  0.8681
 5175TIP3    H237017   0.420   1.362   2.606  0.7439  0.0093  1.2121
 5176TIP3   OH237018   5.342   2.823   3.052 -0.4106 -0.4505 -0.3115
 5176TIP3    H137019   5.393   2.856   2.978  1.8070 -1.2226  0.7670
 5176TIP3    H237020   5.251   2.826   3.022  0.2207  1.1004 -2.3191
 5177TIP3   OH237021   0.287   4.168   1.444  0.1611  0.0520  0.3438
 5177TIP3    H137022   0.198   4.134   1.447  0.5783 -1.0289  1.3636
 5177TIP3    H237023   0.342   4.090   1.435  0.9949  0.7174 -0.4235
 5178TIP3   OH237024   3.949   2.691   1.777  0.4990 -0.1510 -0.4039
 5178TIP3    H137025   4.022   2.739   1.736  2.6145 -2.0384  0.9482
 5178TIP3    H237026   3.941   2.612   1.724 -0.2864 -0.1732 -0.2557
 5179TIP3   OH237027   5.086   0.475  16.820 -0.7021 -0.3466 -0.2183
 5179TIP3    H137028   5.116   0.495  16.731 -1.9239  0.1220 -0.5414
 5179TIP3    H237029   5.150   0.518  16.877  1.0968 -2.0811 -0.7983
 5180TIP3   OH237030   0.230   6.255   4.532 -0.3485  0.0960 -0.5761
 5180TIP3    H137031   0.301   6.245   4.597 -0.3583  1.5271 -0.3302
 5180TIP3    H237032   0.186   6.336   4.557 -1.9432 -0.6476 -0.8743
 5181TIP3   OH237033   0.081   0.894   0.367 -0.4044 -0.6507  0.0776
 5181TIP3    H137034   0.130   0.827   0.414  0.1238  0.4464  1.1417
 5181TIP3    H237035   0.019   0.928   0.431 -0.4562  0.0905 -0.3531
 5182TIP3   OH237036   6.589   3.039  13.436 -0.4228 -0.0165 -0.2703
 5182TIP3    H137037   6.587   2.986  13.357  0.5920  0.0716 -0.3664
 5182TIP3    H237038   6.504   3.083  13.437 -0.0513  0.8362 -1.9139
 5183TIP3   OH237039   2.338   0.204   0.199 -0.8805  0.1045  0.6456
 5183TIP3    H137040   2.248   0.174   0.207 -1.2758  0.9558 -0.4159
 5183TIP3    H237041   2.332   0.289   0.155  0.4141  0.3295  0.8491
 5184TIP3   OH237042   4.153   3.846  16.227  0.3324  0.0686  0.8379
 5184TIP3    H137043   4.168   3.940  16.236  0.7318  0.0612  0.3205
 5184TIP3    H237044   4.096   3.839  16.150 -0.3626 -0.0640  1.3600
 5185TIP3   OH237045   3.757   0.870  13.873 -0.1392 -0.8466 -0.0057
 5185TIP3    H137046   3.719   0.844  13.957 -0.8075 -0.1523 -0.0803
 5185TIP3    H237047   3.851   0.873  13.890 -0.2199 -1.3255  0.5464
 5186TIP3   OH237048   1.155   0.623   1.483  0.0919 -0.2981  0.2231
 5186TIP3    H137049   1.186   0.532   1.482 -0.0227 -0.3344 -0.1606
 5186TIP3    H237050   1.222   0.672   1.437  0.6945 -0.0045  1.3879
 5187TIP3   OH237051   2.676   3.014   5.125 -0.0349  0.4261  0.2467
 5187TIP3    H137052   2.653   2.932   5.168  0.1530  0.2143 -0.0515
 5187TIP3    H237053   2.669   3.080   5.194  1.0576 -0.0265  0.8091
 5188TIP3   OH237054   2.721   3.721   0.174  0.3374  0.2986  0.4877
 5188TIP3    H137055   2.636   3.755   0.201  0.7199  1.3860  0.3602
 5188TIP3    H237056   2.703   3.630   0.148 -0.6566  0.3106  1.0713
 5189TIP3   OH237057   4.738   2.453  13.482  0.3798 -0.1340  0.1115
 5189TIP3    H137058   4.781   2.419  13.404  0.1701  1.2237 -0.6266
 5189TIP3    H237059   4.647   2.423  13.475  0.0284  1.0900 -0.8846
 5190TIP3   OH237060   3.486   5.958   0.695 -0.0502 -0.1990  0.1388
 5190TIP3    H137061   3.482   6.031   0.757  0.1829 -0.6060  0.6422
 5190TIP3    H237062   3.538   5.891   0.740  0.2433 -0.4473 -0.5547
 5191TIP3   OH237063   3.817   1.678  15.686 -0.0615  0.4829 -0.5891
 5191TIP3    H137064   3.757   1.751  15.674 -0.8564 -0.1141 -0.2833
 5191TIP3    H237065   3.870   1.676  15.606  0.4144  1.7874 -0.3291
 5192TIP3   OH237066   0.162   2.985   0.471 -0.1307  0.2907  0.0394
 5192TIP3    H137067   0.140   3.039   0.395 -0.5151 -1.8192 -1.4275
 5192TIP3    H237068   0.186   2.900   0.434  0.4350 -0.5816  2.2513
 5193TIP3   OH237069   4.644   4.143  15.436 -0.5404 -0.2984  0.6147
 5193TIP3    H137070   4.693   4.137  15.355 -0.8477 -3.7806  0.5544
 5193TIP3    H237071   4.559   4.179  15.410 -0.3356 -0.5712 -0.4667
 5194TIP3   OH237072   5.352   3.123   0.601 -0.1249  0.1943 -0.1595
 5194TIP3    H137073   5.356   3.101   0.508 -2.7376  0.8640 -0.5219
 5194TIP3    H237074   5.260   3.145   0.616  0.4054  0.9943  2.3958
 5195TIP3   OH237075   5.997   0.648  12.175  0.4172  0.0831 -0.6096
 5195TIP3    H137076   6.009   0.556  12.152  0.5226  0.0064 -0.2510
 5195TIP3    H237077   5.980   0.692  12.091 -1.2303 -0.5091 -0.6267
 5196TIP3   OH237078   5.299   6.582  13.699  0.1913  0.2079 -0.2282
 5196TIP3    H137079   5.218   6.544  13.665  0.1856  0.5584 -0.6187
 5196TIP3    H237080   5.353   6.507  13.723  0.4193 -0.0734 -1.5549
 5197TIP3   OH237081   5.788   2.674   2.250 -0.0724  0.8472  0.6211
 5197TIP3    H137082   5.877   2.639   2.252  0.2719  1.5035 -1.2798
 5197TIP3    H237083   5.798   2.765   2.279  0.0882  1.2558 -0.6505
 5198TIP3   OH237084   4.752   1.004   3.265 -0.1410 -0.3480  0.5726
 5198TIP3    H137085   4.807   0.997   3.186 -1.2322  0.8617 -0.3201
 5198TIP3    H237086   4.731   1.097   3.272 -3.5511 -0.9159 -0.1929
 5199TIP3   OH237087   4.367   4.221  15.710 -0.2277 -0.0080  0.0138
 5199TIP3    H137088   4.359   4.307  15.670 -1.0270  0.1378  0.4625
 5199TIP3    H237089   4.332   4.160  15.644 -0.2174  0.0724 -0.0661
 5200TIP3   OH237090   5.593   2.613   2.020  0.3854  0.1292 -0.3719
 5200TIP3    H137091   5.624   2.629   1.931  1.9391 -2.2002 -0.3393
 5200TIP3    H237092   5.659   2.653   2.076  0.4228 -0.0551 -0.2825
 5201TIP3   OH237093   1.142   6.424  14.978  0.4655 -0.0097 -0.0546
 5201TIP3    H137094   1.050   6.422  15.003  0.5451  1.4257  0.4706
 5201TIP3    H237095   1.172   6.510  15.005  1.6268  0.0695 -1.4474
 5202TIP3   OH237096   1.583   0.695   4.293 -0.7818  0.2758  0.1394
 5202TIP3    H137097   1.657   0.675   4.235 -1.1231  0.9476 -0.5473
 5202TIP3    H237098   1.552   0.609   4.321 -0.8109 -0.0914 -0.9405
 5203TIP3   OH237099   3.967   4.144  15.669  1.0009  0.0440 -0.3668
 5203TIP3    H137100   3.923   4.061  15.685  1.0744 -0.0844 -0.7945
 5203TIP3    H237101   4.016   4.129  15.588  1.1543  0.4495 -0.3521
 5204TIP3   OH237102   2.922   1.711  15.462 -0.0992  0.2470  0.1987
 5204TIP3    H137103   2.907   1.682  15.372 -0.8037 -4.3035  1.5389
 5204TIP3    H237104   3.005   1.759  15.457 -1.1544  2.0632 -3.0985
 5205TIP3   OH237105   5.480   3.066   2.386 -0.4546  0.2079  0.4445
 5205TIP3    H137106   5.575   3.076   2.381 -0.4478 -0.3412 -0.9856
 5205TIP3    H237107   5.458   3.007   2.314 -1.9308  0.7077  0.4470
 5206TIP3   OH237108   5.954   4.199   2.971 -0.2697 -0.4778 -0.7778
 5206TIP3    H137109   6.047   4.175   2.969 -0.3515 -0.7912 -0.7769
 5206TIP3    H237110   5.953   4.287   3.008  0.0261 -0.4868 -0.7486
 5207TIP3   OH237111   3.067   0.758   2.692 -0.1161 -0.2354  0.6698
 5207TIP3    H137112   2.982   0.782   2.729 -0.9235 -1.2075 -0.5153
 5207TIP3    H237113   3.070   0.663   2.700 -0.1790 -0.4414 -1.4521
 5208TIP3   OH237114   5.869   2.106  15.758  0.5596  0.0435 -0.5122
 5208TIP3    H137115   5.797   2.046  15.737  0.4034 -0.0565  0.2785
 5208TIP3    H237116   5.939   2.049  15.790  0.4651  0.2622  0.0995
 5209TIP3   OH237117   4.901   0.330   1.504  0.4628  0.6715  0.5598
 5209TIP3    H137118   4.838   0.342   1.575  0.1500 -0.0320  0.4108
 5209TIP3    H237119   4.867   0.382   1.432  0.3902  0.7942  0.6821
 5210TIP3   OH237120   0.328   4.887  13.669 -0.3727  0.7613  0.3212
 5210TIP3    H137121   0.305   4.918  13.581  1.6113  0.6348 -0.2728
 5210TIP3    H237122   0.344   4.967  13.719  0.9956  0.8037 -0.1571
 5211TIP3   OH237123   2.327   5.252  11.855 -0.4053 -0.9993 -0.4433
 5211TIP3    H137124   2.294   5.186  11.795 -0.9057 -1.0561 -0.1112
 5211TIP3    H237125   2.361   5.321  11.798  1.1610 -2.0258 -0.8064
 5212TIP3   OH237126   5.722   5.205   3.305 -0.0758 -0.1270  0.4027
 5212TIP3    H137127   5.792   5.144   3.330 -0.6371 -1.0160 -0.1637
 5212TIP3    H237128   5.676   5.221   3.387  2.6183  2.9767  1.5220
 5213TIP3   OH237129   5.101   4.246  14.676 -0.4305  0.4498  0.1199
 5213TIP3    H137130   5.162   4.316  14.696 -0.4736  0.7383 -0.7027
 5213TIP3    H237131   5.112   4.231  14.582 -2.2150  1.0908 -0.2334
 5214TIP3   OH237132   1.707   5.243  13.963  0.2212 -1.0236 -0.0750
 5214TIP3    H137133   1.797   5.262  13.987 -0.1305  0.2982  0.3020
 5214TIP3    H237134   1.655   5.278  14.036 -0.7965  1.7665 -1.9411
 5215TIP3   OH237135   3.362   6.751  11.031  0.0443  0.5867 -0.1588
 5215TIP3    H137136   3.329   6.821  10.975  2.4098  0.7787 -1.4202
 5215TIP3    H237137   3.350   6.671  10.979 -0.4950  0.3322  0.3309
 5216TIP3   OH237138   4.472   6.745   0.546 -0.3509  0.4739 -0.1049
 5216TIP3    H137139   4.388   6.786   0.571 -0.2881 -0.2063  1.3394
 5216TIP3    H237140   4.490   6.684   0.617  2.2663  1.8633  0.5361
 5217TIP3   OH237141   1.294   2.326  13.387  0.0088 -0.2397 -0.6971
 5217TIP3    H137142   1.228   2.263  13.417  0.3678 -0.5373 -0.5316
 5217TIP3    H237143   1.356   2.332  13.459 -1.3442  2.2074  0.3587
 5218TIP3   OH237144   0.062   1.521  11.638  0.3669 -0.5351  0.2374
 5218TIP3    H137145   0.078   1.612  11.662 -0.0508 -0.4691  0.2707
 5218TIP3    H237146   0.108   1.510  11.554  0.0739 -0.1728  0.0236
 5219TIP3   OH237147   0.863   1.534   3.482  0.1375  0.6372  0.1422
 5219TIP3    H137148   0.822   1.618   3.461 -3.1566 -0.3943  1.7711
 5219TIP3    H237149   0.896   1.546   3.571 -0.0754  0.3257  0.2642
 5220TIP3   OH237150   1.267   4.800   0.476  0.0886  0.6343  0.5459
 5220TIP3    H137151   1.218   4.746   0.414  1.4659  0.4639 -0.4286
 5220TIP3    H237152   1.213   4.800   0.555 -0.2254 -1.6906  0.4018
 5221TIP3   OH237153   4.898   4.472  15.180 -0.0297 -0.2257  0.3620
 5221TIP3    H137154   4.949   4.476  15.099 -0.2599 -0.0720  0.2233
 5221TIP3    H237155   4.960   4.440  15.246  1.0565  2.5496  0.8461
 5222TIP3   OH237156   4.914   2.859  13.802  0.3309  0.0667  0.6419
 5222TIP3    H137157   4.861   2.779  13.807  0.8108 -0.3467 -0.6120
 5222TIP3    H237158   5.005   2.828  13.807  0.5666  0.3843 -1.0817
 5223TIP3   OH237159   1.724   0.048  16.362 -0.5302 -0.3020 -0.8360
 5223TIP3    H137160   1.687   0.087  16.441  1.1725 -0.1233 -0.0731
 5223TIP3    H237161   1.662   0.070  16.292 -1.4288  0.6281  0.2297
 5224TIP3   OH237162   0.660   6.763  16.493 -0.4600 -0.4535 -0.0378
 5224TIP3    H137163   0.676   6.674  16.464 -0.1312 -0.3276 -0.2596
 5224TIP3    H237164   0.748   6.800  16.506 -0.4560 -1.4253  4.0923
 5225TIP3   OH237165   1.079   0.708  13.848 -0.1701 -0.2382  0.0687
 5225TIP3    H137166   1.086   0.725  13.942 -4.2727  2.9999  0.1028
 5225TIP3    H237167   1.030   0.626  13.842  1.7024 -1.4479  0.6069
 5226TIP3   OH237168   0.613   5.234  13.719 -0.2334  0.4570  0.3030
 5226TIP3    H137169   0.673   5.185  13.776 -0.2671  0.1529  0.0782
 5226TIP3    H237170   0.529   5.188  13.728 -0.6516  1.3498  1.2385
 5227TIP3   OH237171   2.442   0.069   3.792  0.1888  0.5567  0.5372
 5227TIP3    H137172   2.525   0.025   3.811  1.4435  1.2235 -2.7749
 5227TIP3    H237173   2.382  -0.002   3.768  0.3614  0.2228  1.0821
 5228TIP3   OH237174   5.869   1.555  15.490  0.2288 -0.7084  0.1886
 5228TIP3    H137175   5.788   1.518  15.523  0.9839  0.0765  3.1669
 5228TIP3    H237176   5.938   1.501  15.530  1.2184 -0.2458 -0.8362
 5229TIP3   OH237177   1.427   6.633   0.472 -0.4949 -0.8682 -0.9316
 5229TIP3    H137178   1.397   6.609   0.385  0.1121 -0.3557 -1.2855
 5229TIP3    H237179   1.359   6.690   0.507 -1.6241 -2.5007 -0.3481
 5230TIP3   OH237180   0.704   6.542   6.171  0.1143 -0.1411  0.2532
 5230TIP3    H137181   0.797   6.522   6.184  0.4659  1.2947  0.0993
 5230TIP3    H237182   0.661   6.508   6.249  1.0065  0.6748  1.1190
 5231TIP3   OH237183   0.476   1.151   3.031  0.4662  0.3127  0.2519
 5231TIP3    H137184   0.429   1.068   3.024  2.1661 -0.6518 -0.4857
 5231TIP3    H237185   0.408   1.218   3.027 -0.9956 -1.0466  1.4083
 5232TIP3   OH237186   1.643   1.968   1.130 -0.7079 -0.3177 -0.1216
 5232TIP3    H137187   1.714   1.967   1.065  0.2572  1.7275  0.7970
 5232TIP3    H237188   1.674   1.910   1.199  0.7063  1.4323  0.8065
 5233TIP3   OH237189   5.883   1.118   0.397 -0.4670 -0.1730  0.4660
 5233TIP3    H137190   5.953   1.071   0.352 -0.9252  1.6037 -2.3709
 5233TIP3    H237191   5.831   1.049   0.440 -0.7046 -2.2797 -2.8353
 5234TIP3   OH237192   6.778   6.668   6.793 -0.6822 -0.2149 -0.1450
 5234TIP3    H137193   6.823   6.687   6.710 -1.1404  1.7834  0.0096
 5234TIP3    H237194   6.757   6.754   6.829 -0.1149 -1.0172  2.3004
 5235TIP3   OH237195   3.658   2.073   4.064 -0.1819 -0.5318  0.5313
 5235TIP3    H137196   3.750   2.096   4.058  0.0190 -1.1225  1.2615
 5235TIP3    H237197   3.621   2.136   4.126  0.4576 -2.3122  2.8680
 5236TIP3   OH237198   1.302   6.229  16.369 -0.2780 -0.5604  0.2250
 5236TIP3    H137199   1.294   6.288  16.294 -0.4715 -0.3053  0.4462
 5236TIP3    H237200   1.386   6.185  16.356 -0.3000 -0.4968 -0.1285
 5237TIP3   OH237201   1.775   0.813  12.338  0.3765  0.3566 -0.1501
 5237TIP3    H137202   1.727   0.752  12.283  1.0591 -0.7376  0.4450
 5237TIP3    H237203   1.821   0.871  12.276  0.6084 -0.4347 -0.7271
 5238TIP3   OH237204   2.118   1.889  16.405  0.3400 -0.0843  0.2444
 5238TIP3    H137205   2.151   1.805  16.372  0.3790 -0.9242  2.2798
 5238TIP3    H237206   2.024   1.875  16.416 -0.0536  0.9055 -1.4858
 5239TIP3   OH237207   5.661   5.425   1.282 -0.3445  0.3560  0.3962
 5239TIP3    H137208   5.646   5.487   1.210  2.3371  0.2382 -0.3425
 5239TIP3    H237209   5.636   5.474   1.361  1.5963  2.4183 -0.1643
 5240TIP3   OH237210   4.061   2.078  13.673  0.1640  0.2657  0.5149
 5240TIP3    H137211   4.147   2.091  13.712  0.4879  1.0493 -0.4169
 5240TIP3    H237212   4.043   2.161  13.628 -0.9735  0.0259  0.5028
 5241TIP3   OH237213   2.972   5.063  13.991 -0.6831 -0.5111  1.3895
 5241TIP3    H137214   2.973   5.016  13.907 -0.7751 -0.1747  1.2013
 5241TIP3    H237215   3.039   5.130  13.982 -2.5223  1.3405  0.5415
 5242TIP3   OH237216   4.238   3.024  15.664  0.0146 -0.6384  0.0346
 5242TIP3    H137217   4.260   2.932  15.679  1.6198 -0.5560 -1.5027
 5242TIP3    H237218   4.317   3.062  15.626 -0.2747  1.6487  1.5203
 5243TIP3   OH237219   2.745   3.136   2.603 -0.3644 -0.1208  0.4918
 5243TIP3    H137220   2.654   3.145   2.572 -0.5012  0.3785  1.0310
 5243TIP3    H237221   2.797   3.129   2.523 -0.7287  1.0486  0.1437
 5244TIP3   OH237222   1.110   5.403   1.524 -0.0400  0.0181  0.4249
 5244TIP3    H137223   1.138   5.483   1.480  1.5909 -0.6813  0.1198
 5244TIP3    H237224   1.173   5.392   1.596 -1.2656 -0.1145  1.5233
 5245TIP3   OH237225   1.735   2.216  16.016  0.1458 -0.8458  0.3152
 5245TIP3    H137226   1.763   2.231  16.106 -0.9557  1.5185  0.3195
 5245TIP3    H237227   1.751   2.299  15.972  2.1866 -2.3919 -2.1692
 5246TIP3   OH237228   0.139   2.608  16.073  0.0894 -0.3818  0.0678
 5246TIP3    H137229   0.185   2.563  16.002  2.2290 -1.3931  1.9675
 5246TIP3    H237230   0.158   2.701  16.058  2.0206 -0.6988  0.2313
 5247TIP3   OH237231   0.592   1.469  14.353  0.2595  0.0295  0.0153
 5247TIP3    H137232   0.605   1.478  14.258  0.3077  1.8055  0.1654
 5247TIP3    H237233   0.681   1.470  14.389  0.2162 -0.1899  0.1321
 5248TIP3   OH237234   4.444   6.380  10.879 -0.3028  0.3738  0.0596
 5248TIP3    H137235   4.529   6.422  10.889 -0.9701  2.0996 -1.0602
 5248TIP3    H237236   4.403   6.425  10.804 -2.5185  0.1833  1.0634
 5249TIP3   OH237237   0.709   2.287  11.374 -0.3369 -0.1444 -0.0965
 5249TIP3    H137238   0.705   2.267  11.281  1.5060 -0.4305 -0.1479
 5249TIP3    H237239   0.675   2.376  11.381  1.7603  0.8433 -1.4272
 5250TIP3   OH237240   2.691   4.980  11.154  0.0734 -0.0156  0.0236
 5250TIP3    H137241   2.726   4.895  11.128  1.1765  0.0098  1.3259
 5250TIP3    H237242   2.712   5.039  11.082  2.2702 -0.1302  0.5183
 5251TIP3   OH237243   2.353   6.559   5.598 -0.2268  0.3162 -0.1744
 5251TIP3    H137244   2.392   6.486   5.647 -0.1875 -0.5147 -1.3944
 5251TIP3    H237245   2.273   6.522   5.561  0.5097  0.4350 -1.9926
 5252TIP3   OH237246   1.580   2.071  12.057  0.1667  0.1018 -0.4670
 5252TIP3    H137247   1.573   1.991  12.109  2.3434 -0.7535 -1.3975
 5252TIP3    H237248   1.489   2.100  12.045 -0.6530 -2.0638  0.1260
 5253TIP3   OH237249   3.859   1.832   5.484  0.0768 -0.1786  0.2671
 5253TIP3    H137250   3.829   1.763   5.542 -0.6777  0.3584  0.5421
 5253TIP3    H237251   3.804   1.823   5.405 -0.2051  0.2525  0.4075
 5254TIP3   OH237252   1.696   5.598  16.346 -0.6296 -0.1055 -0.0099
 5254TIP3    H137253   1.635   5.585  16.274  0.1003 -1.3127 -0.4364
 5254TIP3    H237254   1.769   5.539  16.327  0.3613  0.7967  0.8449
 5255TIP3   OH237255   2.816   4.627   0.789 -0.4160  0.1727 -0.6510
 5255TIP3    H137256   2.847   4.692   0.725  0.5872  0.6657  0.2968
 5255TIP3    H237257   2.861   4.546   0.765 -0.1795  0.3129 -0.6905
 5256TIP3   OH237258   6.769   2.558   4.476  0.2654 -0.1783  0.2800
 5256TIP3    H137259   6.738   2.541   4.387  0.0152 -3.8930  0.8952
 5256TIP3    H237260   6.832   2.488   4.492  0.3174  0.3977  3.0089
 5257TIP3   OH237261   5.371   4.178  10.701 -0.0929  0.5095  0.0513
 5257TIP3    H137262   5.451   4.229  10.715  0.5996 -0.5257 -0.0372
 5257TIP3    H237263   5.399   4.087  10.711 -0.6235 -0.0719 -2.8885
 5258TIP3   OH237264   6.404   1.276   0.948 -0.8313 -0.1873 -0.4298
 5258TIP3    H137265   6.362   1.341   0.892 -0.7567  0.0355 -0.2284
 5258TIP3    H237266   6.493   1.270   0.915 -1.3735 -1.6576 -1.7357
 5259TIP3   OH237267   6.422   5.249  12.303 -0.2822 -0.0873  0.1487
 5259TIP3    H137268   6.507   5.248  12.261 -0.4400  1.7841 -0.3132
 5259TIP3    H237269   6.362   5.210  12.239  0.1103 -0.8375  0.2306
 5260TIP3   OH237270   0.686   0.449   1.165  0.2431  0.4493  0.3748
 5260TIP3    H137271   0.739   0.408   1.233  0.2164 -0.7687 -0.2956
 5260TIP3    H237272   0.597   0.419   1.182  0.2755 -0.0936 -0.3218
 5261TIP3   OH237273   5.119   6.212  11.417 -0.0206  0.2242  0.0841
 5261TIP3    H137274   5.078   6.171  11.341  1.1680  2.4308 -1.9104
 5261TIP3    H237275   5.143   6.140  11.474 -0.5017 -1.5826 -1.8796
 5262TIP3   OH237276   3.296   2.588   2.170 -0.4696  0.2260  0.2398
 5262TIP3    H137277   3.371   2.647   2.174  1.5375 -2.1219  0.1798
 5262TIP3    H237278   3.251   2.612   2.089  0.5655  1.3453 -0.0281
 5263TIP3   OH237279   0.835   2.712  13.558  0.3673  0.5503  0.4505
 5263TIP3    H137280   0.754   2.723  13.509  0.6752  0.0866 -0.1743
 5263TIP3    H237281   0.819   2.638  13.616  1.6852 -2.4790 -2.6812
 5264TIP3   OH237282   2.377   6.250  13.437  0.7401 -0.2925 -0.2871
 5264TIP3    H137283   2.318   6.282  13.504  1.4606  2.1962 -0.7522
 5264TIP3    H237284   2.320   6.211  13.371 -0.1718 -0.2009  0.4344
 5265TIP3   OH237285   3.146   6.644  16.849  0.2376  0.2620 -0.4063
 5265TIP3    H137286   3.194   6.726  16.839 -0.9540  1.3424  2.0034
 5265TIP3    H237287   3.103   6.632  16.765  2.1959  0.8836 -1.5700
 5266TIP3   OH237288   4.363   3.313   0.945  0.0649  0.1341 -0.3474
 5266TIP3    H137289   4.298   3.242   0.946 -0.9729  1.0198 -1.5551
 5266TIP3    H237290   4.340   3.368   1.019 -0.0074 -0.0421 -0.2389
 5267TIP3   OH237291   6.143   2.212  16.957 -0.2220  0.7654 -0.4225
 5267TIP3    H137292   6.192   2.141  16.917 -2.3424 -1.2790  0.3614
 5267TIP3    H237293   6.059   2.213  16.910 -0.8135  1.7204  0.5953
 5268TIP3   OH237294   5.102   6.420  13.575  0.5149  0.6435 -0.0895
 5268TIP3    H137295   5.140   6.368  13.504  2.3093 -0.0325  1.2693
 5268TIP3    H237296   5.018   6.378  13.594  0.6619 -0.0228 -0.8826
 5269TIP3   OH237297   0.086   1.740  14.216  0.0280 -0.0280  0.0263
 5269TIP3    H137298   0.157   1.764  14.275  0.4598  1.5751 -1.0648
 5269TIP3    H237299   0.010   1.729  14.272  0.9195 -0.9158  1.1161
 5270TIP3   OH237300   3.755   3.060  11.999  0.9821 -0.0143  0.4407
 5270TIP3    H137301   3.801   3.137  11.965  1.3553  0.4849  1.9886
 5270TIP3    H237302   3.735   3.083  12.090 -0.9530 -0.8362  0.2801
 5271TIP3   OH237303   1.705   4.553   4.586  0.2502 -0.7644 -0.0734
 5271TIP3    H137304   1.795   4.581   4.602 -0.1596  0.3815  0.3415
 5271TIP3    H237305   1.673   4.614   4.519 -0.2818 -1.0174 -0.0503
 5272TIP3   OH237306   5.967   1.765   3.630  0.1133  0.6445 -0.6076
 5272TIP3    H137307   6.026   1.810   3.689 -0.8054 -0.7664  1.5201
 5272TIP3    H237308   5.967   1.674   3.660 -2.3768  0.3905 -1.0936
 5273TIP3   OH237309   4.403   6.449   3.636 -0.0379  0.2767 -0.0410
 5273TIP3    H137310   4.408   6.527   3.582 -1.1934  0.9312  0.7713
 5273TIP3    H237311   4.395   6.377   3.573 -2.0167  1.0730 -0.7764
 5274TIP3   OH237312   0.971   1.543   0.571  0.3280  0.1000  0.1892
 5274TIP3    H137313   0.930   1.627   0.592 -0.1012 -0.1734  0.4537
 5274TIP3    H237314   1.059   1.551   0.606  0.1679  0.2987  0.5602
 5275TIP3   OH237315   0.327   2.779   1.281 -0.3362  0.7915 -0.4853
 5275TIP3    H137316   0.365   2.760   1.367  1.3308  0.2385 -1.3129
 5275TIP3    H237317   0.249   2.723   1.277  1.1905 -1.4630 -0.4807
 5276TIP3   OH237318   5.559   3.786  15.547 -0.3101 -0.0269  0.0686
 5276TIP3    H137319   5.469   3.814  15.530 -0.8335 -1.2627  0.6966
 5276TIP3    H237320   5.590   3.754  15.462 -0.4886  0.3160 -0.1303
 5277TIP3   OH237321   5.684   4.812  16.597  0.2247  0.6555  0.4053
 5277TIP3    H137322   5.753   4.860  16.552  0.3689 -0.1353 -0.2227
 5277TIP3    H237323   5.695   4.721  16.570 -1.4019  0.5982 -0.1560
 5278TIP3   OH237324   5.954   4.311  13.743 -0.4538  0.2319 -0.2252
 5278TIP3    H137325   5.903   4.308  13.824  0.1463  0.5557  0.1717
 5278TIP3    H237326   6.044   4.294  13.770 -0.2544  0.2837 -0.8305
 5279TIP3   OH237327   3.994   6.765  15.865  0.7941  0.8689 -0.0620
 5279TIP3    H137328   4.054   6.832  15.900 -0.5237  1.9525  0.2315
 5279TIP3    H237329   3.987   6.700  15.935  1.0880  1.0881  0.1741
 5280TIP3   OH237330   5.780   3.515   5.467  0.3420  0.0134  0.0635
 5280TIP3    H137331   5.775   3.447   5.400  0.8222 -0.8154  0.8602
 5280TIP3    H237332   5.874   3.528   5.481  0.2402  0.1631  0.6111
 5281TIP3   OH237333   4.502   4.222  17.038 -0.1375 -0.0745 -0.6918
 5281TIP3    H137334   4.588   4.258  17.020 -0.5732  0.5911 -1.5358
 5281TIP3    H237335   4.443   4.297  17.033 -0.8557 -0.6386 -0.8556
 5282TIP3   OH237336   3.379   3.638   5.707 -0.2055 -0.5630 -0.2994
 5282TIP3    H137337   3.337   3.703   5.763 -1.1982 -0.9831 -0.5499
 5282TIP3    H237338   3.448   3.687   5.662 -0.1371  0.0336  0.4319
 5283TIP3   OH237339   3.002   3.867  11.890 -0.1931  0.0007  0.1496
 5283TIP3    H137340   3.069   3.889  11.955  0.2980  0.1961 -0.4138
 5283TIP3    H237341   2.927   3.838  11.942 -0.0955  0.9269  0.8384
 5284TIP3   OH237342   2.540   3.008   1.640 -0.0726  0.2976 -0.1488
 5284TIP3    H137343   2.530   2.969   1.554 -0.2316 -0.9424  0.4086
 5284TIP3    H237344   2.625   3.051   1.638  0.2907 -0.4316 -0.6661
 5285TIP3   OH237345   2.028   3.097   3.999 -0.6321  0.1508 -0.4572
 5285TIP3    H137346   2.041   3.115   3.906  0.9699  1.3247 -0.0537
 5285TIP3    H237347   1.966   3.165   4.028 -0.9078 -0.0375 -0.6043
 5286TIP3   OH237348   6.805   4.753  17.208  0.0472 -0.3596 -0.1549
 5286TIP3    H137349   6.820   4.679  17.268  1.0231 -0.3042 -0.3080
 5286TIP3    H237350   6.712   4.748  17.187 -0.7771  0.6340  2.7226
 5287TIP3   OH237351   6.698   2.554  14.607  0.0620 -0.3048  0.2954
 5287TIP3    H137352   6.639   2.512  14.668 -0.1281  0.1322  0.4172
 5287TIP3    H237353   6.669   2.526  14.521 -0.8088  0.5149  0.3118
 5288TIP3   OH237354   4.285   3.664  17.021  0.0465  0.0466  0.1486
 5288TIP3    H137355   4.335   3.610  16.960 -0.2482  0.0089 -0.0622
 5288TIP3    H237356   4.329   3.749  17.021 -1.6165  0.9938 -2.3265
 5289TIP3   OH237357   2.430   3.044  15.852  0.4640  0.3138  0.0811
 5289TIP3    H137358   2.348   3.035  15.803  1.5889  1.1154 -2.0856
 5289TIP3    H237359   2.413   3.115  15.914 -0.2857  0.9935 -0.8673
 5290TIP3   OH237360   1.799   1.795   4.923 -0.6168 -0.1179 -0.0115
 5290TIP3    H137361   1.742   1.729   4.962 -0.4732 -0.2908 -0.0930
 5290TIP3    H237362   1.763   1.879   4.952 -1.4003 -0.1963 -0.7126
 5291TIP3   OH237363   6.355   0.354   1.620 -0.3491  0.0156  0.3054
 5291TIP3    H137364   6.299   0.381   1.547 -0.6259  0.0323  0.5250
 5291TIP3    H237365   6.429   0.310   1.578 -0.5063  0.0285  0.0136
 5292TIP3   OH237366   4.226   2.768   1.052 -0.0473 -0.1757 -0.3025
 5292TIP3    H137367   4.285   2.842   1.039 -0.9197  0.9841  1.8924
 5292TIP3    H237368   4.282   2.699   1.088  0.1330  0.6877  1.1299
 5293TIP3   OH237369   2.364   4.153   2.610 -0.7092 -0.4764  0.0287
 5293TIP3    H137370   2.297   4.213   2.642 -1.8176 -0.2181 -2.4770
 5293TIP3    H237371   2.337   4.067   2.644 -1.1655 -0.0681  0.7099
 5294TIP3   OH237372   1.212   2.627  17.174 -0.1018 -1.2220 -0.0545
 5294TIP3    H137373   1.118   2.610  17.182 -0.5130 -0.5701 -2.6361
 5294TIP3    H237374   1.225   2.711  17.219 -0.9448 -0.8627 -0.4502
 5295TIP3   OH237375   6.020   6.789   2.821  0.2062 -0.3977 -0.5776
 5295TIP3    H137376   5.995   6.881   2.827  1.5710 -0.1130  1.3449
 5295TIP3    H237377   6.067   6.782   2.738 -0.0762  0.5863 -0.8292
 5296TIP3   OH237378   0.333   6.142  11.927  0.1710  0.1128  0.0157
 5296TIP3    H137379   0.372   6.096  12.001  0.0390 -0.9695 -0.5559
 5296TIP3    H237380   0.400   6.138  11.859  0.8010  2.2238  0.4462
 5297TIP3   OH237381   6.112   4.692   2.199  0.1414 -0.4747  0.3776
 5297TIP3    H137382   6.145   4.744   2.273  1.0991  1.6961 -1.4590
 5297TIP3    H237383   6.187   4.681   2.141 -0.2288 -3.3748  0.2909
 5298TIP3   OH237384   6.456   5.729   3.639  0.7266 -0.4482  0.0802
 5298TIP3    H137385   6.507   5.796   3.684  1.8080 -1.6868  0.7970
 5298TIP3    H237386   6.382   5.712   3.698 -0.5199  1.2635 -0.9028
 5299TIP3   OH237387   6.693   6.797   2.231  0.5211 -0.3929  0.1900
 5299TIP3    H137388   6.608   6.831   2.260  0.9505  2.5490 -1.5190
 5299TIP3    H237389   6.728   6.752   2.308 -1.3601  0.8303  1.8871
 5300TIP3   OH237390   5.637   5.974  15.219 -0.3457 -0.4296 -0.2783
 5300TIP3    H137391   5.614   6.066  15.217 -0.0453 -0.3572 -0.5694
 5300TIP3    H237392   5.599   5.941  15.300 -2.9703 -0.7262 -1.5181
 5301TIP3   OH237393   0.812   4.267  13.868 -0.2796  0.1757 -0.1449
 5301TIP3    H137394   0.746   4.299  13.930  0.0985 -1.8065  1.3902
 5301TIP3    H237395   0.837   4.181  13.902  2.5191  0.4967 -1.1023
 5302TIP3   OH237396   3.298   3.639   1.016  0.2307  0.7556  0.2615
 5302TIP3    H137397   3.260   3.725   1.029 -1.1951  0.4156 -1.3181
 5302TIP3    H237398   3.352   3.647   0.938  1.7455  0.6866  1.2607
 5303TIP3   OH237399   5.465   1.845   6.823  0.1108 -0.0406 -0.5684
 5303TIP3    H137400   5.476   1.930   6.780 -0.8528 -0.2859 -1.3485
 5303TIP3    H237401   5.520   1.850   6.901  0.0778  1.2934 -0.6079
 5304TIP3   OH237402   3.000   4.852  15.116  0.5206  0.0327  0.5446
 5304TIP3    H137403   3.049   4.924  15.077  0.3981 -0.6522 -0.9618
 5304TIP3    H237404   3.006   4.782  15.051 -3.6325  0.3583 -0.4954
 5305TIP3   OH237405   6.243   0.700  15.790 -0.2395 -0.1383  0.4001
 5305TIP3    H137406   6.319   0.742  15.831 -0.7247 -0.6472  1.8890
 5305TIP3    H237407   6.176   0.769  15.789  0.1075  0.2052 -0.5929
 5306TIP3   OH237408   1.839   1.695  12.753  0.3607 -0.5306  0.1381
 5306TIP3    H137409   1.871   1.605  12.750  1.5572 -0.1108 -0.1017
 5306TIP3    H237410   1.816   1.709  12.845  2.1223 -0.4376  0.5965
 5307TIP3   OH237411   5.436   4.147   0.822  1.3430 -0.0036  0.2259
 5307TIP3    H137412   5.437   4.172   0.730  0.4054 -1.9732 -0.3674
 5307TIP3    H237413   5.363   4.086   0.830  1.2095  0.3495  2.3521
 5308TIP3   OH237414   6.026   0.769  14.733 -0.2836 -0.7084 -0.2055
 5308TIP3    H137415   6.051   0.853  14.771 -0.1335 -0.7584 -0.1910
 5308TIP3    H237416   5.991   0.790  14.646  1.3533 -0.7615 -0.9277
 5309TIP3   OH237417   1.795   6.295   3.674  0.0934  0.2760 -0.1350
 5309TIP3    H137418   1.858   6.281   3.745  0.8500 -0.5518 -0.9395
 5309TIP3    H237419   1.733   6.223   3.683  1.1071 -0.7801 -1.2455
 5310TIP3   OH237420   6.337   2.793   2.107  0.0237 -0.2911 -0.1254
 5310TIP3    H137421   6.431   2.774   2.108 -0.2697 -1.8171 -0.0632
 5310TIP3    H237422   6.311   2.784   2.015 -0.0276  0.4256 -0.1932
 5311TIP3   OH237423   5.141   4.927   4.524  0.4015  0.4477  0.4199
 5311TIP3    H137424   5.153   5.013   4.482  0.8236  0.7515  1.1436
 5311TIP3    H237425   5.228   4.887   4.520  0.0886 -0.1731 -0.3812
 5312TIP3   OH237426   0.077   4.496   0.908  0.7383  0.3543 -0.6727
 5312TIP3    H137427   0.111   4.504   0.997 -0.6535 -0.3156 -0.0573
 5312TIP3    H237428   0.036   4.409   0.905 -0.7791  1.0538 -1.4030
 5313TIP3   OH237429   4.579   0.046   5.214 -0.4998 -0.2244 -0.4005
 5313TIP3    H137430   4.642   0.038   5.142  0.5095  0.1631  0.4171
 5313TIP3    H237431   4.557  -0.045   5.236 -0.2192 -0.3649 -0.6782
 5314TIP3   OH237432   0.042   6.798  12.966  0.3433  0.1206 -0.6471
 5314TIP3    H137433  -0.042   6.798  13.013  0.7303 -1.8225  0.1162
 5314TIP3    H237434   0.076   6.710  12.977  2.1634  0.6580 -1.5809
 5315TIP3   OH237435   2.225   5.512   3.067  0.4512 -0.2084 -0.2831
 5315TIP3    H137436   2.258   5.425   3.090  0.0442 -1.0940 -2.7185
 5315TIP3    H237437   2.303   5.567   3.063  0.7237 -0.4496  1.2107
 5316TIP3   OH237438   5.380   4.063   3.716  0.2703  0.1127  0.2571
 5316TIP3    H137439   5.386   4.150   3.756 -1.0143 -0.1510  1.0679
 5316TIP3    H237440   5.287   4.051   3.698  0.2694 -1.4971  1.1251
 5317TIP3   OH237441   4.491   5.096  13.209  0.4620  0.0523 -0.6029
 5317TIP3    H137442   4.424   5.032  13.235  1.0262  0.3989  1.9854
 5317TIP3    H237443   4.518   5.069  13.122 -0.4758 -2.2713 -0.2392
 5318TIP3   OH237444   2.155   3.672   1.080  0.1671  0.2864  0.4760
 5318TIP3    H137445   2.246   3.660   1.052  0.4333 -1.5587  1.8648
 5318TIP3    H237446   2.111   3.592   1.052 -0.7478  0.6392  0.8677
 5319TIP3   OH237447   4.218   5.040   3.455 -0.0650  0.1183 -0.4699
 5319TIP3    H137448   4.172   5.123   3.458 -0.1159  0.1349 -1.3018
 5319TIP3    H237449   4.307   5.061   3.482 -0.6062  0.0206  1.4773
 5320TIP3   OH237450   0.794   0.092  11.333  0.3211 -0.9294  0.1039
 5320TIP3    H137451   0.761   0.003  11.345 -1.3931 -0.3612 -0.0732
 5320TIP3    H237452   0.840   0.089  11.249 -1.1083 -1.3024 -0.6947
 5321TIP3   OH237453   6.474   6.147  12.055 -0.0198  0.1431  0.6215
 5321TIP3    H137454   6.419   6.147  11.977  1.4323  0.2577 -0.4518
 5321TIP3    H237455   6.563   6.140  12.021  0.8194  2.4084  2.1541
 5322TIP3   OH237456   2.542   6.607  13.510  0.1702  0.5623  0.1473
 5322TIP3    H137457   2.504   6.523  13.536 -1.0510  1.7767  2.6646
 5322TIP3    H237458   2.617   6.617  13.568  0.1425  1.3266  0.0531
 5323TIP3   OH237459   5.085   0.240  12.556 -0.5230 -0.3300 -0.3995
 5323TIP3    H137460   5.109   0.177  12.488 -0.4916 -0.4464 -0.2806
 5323TIP3    H237461   5.023   0.299  12.513  0.1992  0.1542 -0.7927
 5324TIP3   OH237462   1.217   6.269  17.170 -0.4853  0.0951 -0.7140
 5324TIP3    H137463   1.193   6.332  17.102 -2.1852  0.7774  0.4381
 5324TIP3    H237464   1.147   6.204  17.167 -0.5941  0.1517  0.3672
 5325TIP3   OH237465   0.743   3.332   3.935 -0.5971  0.2820  0.2003
 5325TIP3    H137466   0.809   3.318   3.868  0.4261  1.0996  0.9984
 5325TIP3    H237467   0.714   3.422   3.922  1.1113  1.1802  2.0662
 5326TIP3   OH237468   6.549   0.554   3.459  0.1271  0.1998  0.4633
 5326TIP3    H137469   6.547   0.642   3.495 -0.6301  0.1096  0.6643
 5326TIP3    H237470   6.520   0.497   3.531 -2.2783  0.1156 -0.4808
 5327TIP3   OH237471   6.249   1.801   0.736 -0.0245 -0.2286  0.2752
 5327TIP3    H137472   6.220   1.891   0.720 -0.7731 -0.5083  0.0081
 5327TIP3    H237473   6.168   1.750   0.739  0.4575 -1.0702 -0.6606
 5328TIP3   OH237474   5.849   3.182   0.492  0.2701  0.1438 -0.1151
 5328TIP3    H137475   5.769   3.155   0.537  1.6691 -2.4673  1.0577
 5328TIP3    H237476   5.843   3.140   0.406  0.9868 -1.2954  0.5124
 5329TIP3   OH237477   3.661   6.316   5.322 -0.0618  0.3467 -0.1559
 5329TIP3    H137478   3.622   6.347   5.240  0.9420  2.9187  0.2666
 5329TIP3    H237479   3.736   6.264   5.294 -1.0427 -0.7553 -0.8643
 5330TIP3   OH237480   4.931   5.883  11.068 -0.0671  0.1821 -0.0322
 5330TIP3    H137481   4.979   5.803  11.090 -2.0860 -0.5062  2.3549
 5330TIP3    H237482   4.858   5.854  11.014 -0.2186  0.5898 -0.0535
 5331TIP3   OH237483   1.213   1.617  11.942  0.8300  0.1977 -0.8874
 5331TIP3    H137484   1.261   1.554  11.997  0.4126  0.9529  0.3819
 5331TIP3    H237485   1.145   1.565  11.900 -1.1100  0.1015  2.0372
 5332TIP3   OH237486   5.417   0.271   3.552 -0.1496  0.5353 -0.3618
 5332TIP3    H137487   5.451   0.315   3.475  0.5915  1.1575  0.3128
 5332TIP3    H237488   5.487   0.212   3.580 -0.6745 -0.2009 -0.5533
 5333TIP3   OH237489   4.009   2.527  12.930 -0.1081  0.1122  0.3180
 5333TIP3    H137490   4.061   2.487  12.861  0.4136  0.6912  0.3685
 5333TIP3    H237491   4.013   2.621  12.911  1.2721  0.4330  1.9540
 5334TIP3   OH237492   5.150   2.973   2.916  0.2604 -0.0313  0.0805
 5334TIP3    H137493   5.151   2.930   2.831  0.1864  1.0832 -0.4977
 5334TIP3    H237494   5.083   3.041   2.908 -0.1150 -0.2452  1.1968
 5335TIP3   OH237495   6.219   0.112   5.519  0.0730  0.5082  0.3282
 5335TIP3    H137496   6.151   0.179   5.525 -2.8806 -1.9617 -1.9488
 5335TIP3    H237497   6.206   0.058   5.597  0.6810  1.0510  0.8142
 5336TIP3   OH237498   0.123   5.745  16.978 -0.0655 -0.0485 -0.4865
 5336TIP3    H137499   0.040   5.703  17.001  0.7705 -0.7944  1.4361
 5336TIP3    H237500   0.103   5.799  16.902 -2.2358 -0.4428 -0.2544
 5337TIP3   OH237501   6.193   2.912  16.492  0.0098  0.3292  0.0990
 5337TIP3    H137502   6.252   2.907  16.567  0.2482 -0.6666 -0.1372
 5337TIP3    H237503   6.175   2.821  16.470 -1.3087  0.6118 -0.0840
 5338TIP3   OH237504   4.031   2.098   0.632  0.2625  0.0802 -0.0863
 5338TIP3    H137505   4.060   2.046   0.707 -0.2685  1.4041  1.0849
 5338TIP3    H237506   4.014   2.034   0.564  0.6556 -1.1858  0.9620
 5339TIP3   OH237507   5.240   6.266   5.792 -0.0120 -0.3852 -0.2753
 5339TIP3    H137508   5.284   6.247   5.709  0.2188 -0.5231 -0.1240
 5339TIP3    H237509   5.285   6.211   5.856 -0.4479 -0.5737 -0.1282
 5340TIP3   OH237510   4.324   1.693   0.103 -0.4991  0.0893 -0.3678
 5340TIP3    H137511   4.373   1.772   0.079  0.9653 -0.2367  1.3160
 5340TIP3    H237512   4.285   1.713   0.188 -0.3140 -0.8804 -0.0305
 5341TIP3   OH237513   2.685   1.462  13.154  0.0734  0.3296 -0.4463
 5341TIP3    H137514   2.704   1.491  13.064  0.0516  1.1546 -0.1916
 5341TIP3    H237515   2.695   1.540  13.207  0.9146 -0.3364  0.4053
 5342TIP3   OH237516   4.775   0.058  16.439  0.1394 -0.0694  0.4423
 5342TIP3    H137517   4.725   0.119  16.385  2.0349 -0.0973 -1.4560
 5342TIP3    H237518   4.725   0.054  16.521 -2.0629  1.1064 -0.7180
 5343TIP3   OH237519   3.503   1.568   3.033  0.1997  0.3807 -0.2950
 5343TIP3    H137520   3.560   1.540   3.105  1.6265 -0.2109 -1.5985
 5343TIP3    H237521   3.510   1.664   3.034  0.3926  0.3666  0.2053
 5344TIP3   OH237522   0.689   1.622   3.706  0.0635 -0.1773  0.3278
 5344TIP3    H137523   0.758   1.659   3.761  0.2421  0.0167 -0.0239
 5344TIP3    H237524   0.710   1.528   3.702  1.0611  0.0631 -0.8184
 5345TIP3   OH237525   5.819   3.118   0.219  0.4850 -0.6927 -0.2827
 5345TIP3    H137526   5.907   3.081   0.217 -0.3303 -2.7638 -2.1722
 5345TIP3    H237527   5.807   3.158   0.133 -0.6828 -1.1139 -0.3374
 5346TIP3   OH237528   5.880   5.582   5.627 -0.0486  0.4482 -0.0152
 5346TIP3    H137529   5.890   5.516   5.559 -0.9815  0.5296 -0.2529
 5346TIP3    H237530   5.940   5.556   5.696  1.7189  0.9521 -1.2996
 5347TIP3   OH237531   6.013   5.947   5.780  0.4127 -0.4631  0.2020
 5347TIP3    H137532   6.041   6.036   5.799  0.8247 -0.6677  0.5627
 5347TIP3    H237533   6.059   5.893   5.844 -0.6205 -0.8363  0.6413
 5348TIP3   OH237534   5.483   1.271  13.252 -0.0896 -0.4977 -0.8381
 5348TIP3    H137535   5.538   1.213  13.305  0.2041  0.6162  0.1081
 5348TIP3    H237536   5.545   1.328  13.207 -0.4160 -0.3400 -1.0930
 5349TIP3   OH237537   6.747   6.167  16.607  0.4112 -1.0237 -0.2761
 5349TIP3    H137538   6.738   6.262  16.616 -1.0054 -1.1940  0.2918
 5349TIP3    H237539   6.830   6.147  16.651  1.1315  0.0210 -1.0885
 5350TIP3   OH237540   6.308   5.439   0.590 -0.0742 -0.1953  0.1352
 5350TIP3    H137541   6.350   5.492   0.657  0.1747  0.8374 -0.7986
 5350TIP3    H237542   6.273   5.363   0.637 -0.6165  0.8805  1.5507
 5351TIP3   OH237543   5.249   5.867  13.547  0.0218  0.3396  0.2764
 5351TIP3    H137544   5.235   5.838  13.637  0.6818 -1.1806 -0.0866
 5351TIP3    H237545   5.281   5.790  13.502  0.0953  1.1953 -1.1803
 5352TIP3   OH237546   3.169   3.870  12.121  0.5070  0.4978  0.3201
 5352TIP3    H137547   3.210   3.926  12.055  1.4165  0.4027  0.7794
 5352TIP3    H237548   3.112   3.929  12.171  1.0138  0.9008  0.4364
 5353TIP3   OH237549   2.975   1.899  15.821  0.6286 -0.0508 -0.3881
 5353TIP3    H137550   3.020   1.815  15.828 -1.7157 -1.3251  0.5437
 5353TIP3    H237551   2.886   1.876  15.792 -0.2510  2.0351  0.4544
 5354TIP3   OH237552   2.241   2.651  13.673  0.0404 -0.3120 -0.2196
 5354TIP3    H137553   2.169   2.609  13.719 -0.3798 -0.1804 -0.7395
 5354TIP3    H237554   2.234   2.618  13.583 -0.4686  1.0414 -0.7164
 5355TIP3   OH237555   1.160   4.090   3.605  0.3483 -0.3015  0.0974
 5355TIP3    H137556   1.084   4.111   3.659  0.3556 -0.3682  0.1329
 5355TIP3    H237557   1.201   4.175   3.589 -1.6026  0.2530 -2.7429
 5356TIP3   OH237558   6.435   0.895  15.886  0.1109 -0.2576 -0.3493
 5356TIP3    H137559   6.427   0.966  15.823  0.9282  0.0583 -0.1075
 5356TIP3    H237560   6.527   0.896  15.912 -0.2672 -0.1900  1.0680
 5357TIP3   OH237561   0.557   6.311   2.264  0.2310  0.0397 -0.4559
 5357TIP3    H137562   0.585   6.390   2.219  0.1212 -0.4275 -1.3647
 5357TIP3    H237563   0.639   6.272   2.297  0.2625  0.6346  0.1919
 5358TIP3   OH237564   4.924   3.850   4.163 -0.6675 -0.5134  0.1420
 5358TIP3    H137565   4.934   3.755   4.167 -2.2606 -0.6760  2.8899
 5358TIP3    H237566   4.908   3.869   4.070  0.7566 -2.7526 -0.6272
 5359TIP3   OH237567   2.422   4.180  12.137  0.5388  0.0006 -0.0444
 5359TIP3    H137568   2.337   4.145  12.163  0.9485 -0.1544  1.1371
 5359TIP3    H237569   2.416   4.274  12.156  0.5640  0.0247 -0.1529
 5360TIP3   OH237570   3.751   2.745  15.162  0.0670  0.3353  0.2772
 5360TIP3    H137571   3.710   2.663  15.189 -0.2125  0.3857  0.0106
 5360TIP3    H237572   3.779   2.729  15.072  2.3118 -0.3332  1.0421
 5361TIP3   OH237573   4.520   5.990   6.234 -0.5009 -0.0338 -0.1788
 5361TIP3    H137574   4.603   6.037   6.233 -0.0023 -0.7906 -2.9057
 5361TIP3    H237575   4.526   5.932   6.310  0.5021  1.4426  0.9309
 5362TIP3   OH237576   1.053   3.360   5.417 -0.0079 -0.2272 -0.3876
 5362TIP3    H137577   1.108   3.425   5.460  0.5247 -1.3742  0.7470
 5362TIP3    H237578   0.966   3.373   5.455  0.3499 -0.9053  0.6965
 5363TIP3   OH237579   2.178   1.277  11.853  0.3157  0.2818  0.1836
 5363TIP3    H137580   2.188   1.261  11.947  0.6935 -0.3131  0.0440
 5363TIP3    H237581   2.267   1.270  11.818  0.3396  1.5152 -0.0719
 5364TIP3   OH237582   0.040   4.036   0.621  0.2289 -0.2020  0.0492
 5364TIP3    H137583  -0.032   3.972   0.617 -0.7221  0.8864 -0.8523
 5364TIP3    H237584   0.118   3.983   0.639 -0.4185 -1.6951 -1.2992
 5365TIP3   OH237585   2.673   2.229   1.360  0.3208 -0.2568 -0.3002
 5365TIP3    H137586   2.699   2.188   1.442 -0.3949 -1.9311 -0.8693
 5365TIP3    H237587   2.602   2.288   1.384  1.3479  0.6945  0.5266
 5366TIP3   OH237588   2.191   0.455   2.335 -0.5600  0.1319  0.0552
 5366TIP3    H137589   2.284   0.447   2.354 -1.0538 -2.7140  1.8623
 5366TIP3    H237590   2.159   0.521   2.397 -0.2040 -1.0453  1.5561
 5367TIP3   OH237591   3.006   2.265   5.794  0.5233  0.1739  0.7854
 5367TIP3    H137592   3.025   2.174   5.817  0.4946 -0.5605 -1.7630
 5367TIP3    H237593   3.091   2.302   5.771  0.5539  0.8722  1.9419
 5368TIP3   OH237594   5.953   1.974  15.012  0.4071 -0.1462  0.4284
 5368TIP3    H137595   5.868   2.007  15.043 -0.1604 -2.3047  1.3879
 5368TIP3    H237596   6.001   1.952  15.092  1.9924  1.1930 -0.0959
 5369TIP3   OH237597   5.405   4.633   2.809  0.1659  0.1149 -0.0018
 5369TIP3    H137598   5.464   4.707   2.791  1.2492 -0.1951  1.9090
 5369TIP3    H237599   5.449   4.557   2.771  0.1547  0.1373 -0.0593
 5370TIP3   OH237600   6.275   3.653   0.378 -0.0288 -0.4010 -0.0364
 5370TIP3    H137601   6.246   3.615   0.461  0.1006 -0.7500 -0.1497
 5370TIP3    H237602   6.226   3.605   0.311 -3.3287  2.5278 -0.0798
 5371TIP3   OH237603   5.107   5.627   2.462  0.0017  0.7369 -0.0582
 5371TIP3    H137604   5.060   5.672   2.392 -0.6032 -0.6845 -0.6204
 5371TIP3    H237605   5.104   5.534   2.436  1.6476  0.4144  0.7652
 5372TIP3   OH237606   1.553   0.551   1.898  0.2270  0.4817 -0.4333
 5372TIP3    H137607   1.498   0.625   1.872  0.1123 -0.6184 -3.8507
 5372TIP3    H237608   1.510   0.475   1.859  2.2690 -0.8939 -0.1501
 5373TIP3   OH237609   6.395   3.722  14.409 -0.1769  0.4787 -0.5321
 5373TIP3    H137610   6.468   3.757  14.359  0.9346  0.1537  0.7907
 5373TIP3    H237611   6.436   3.665  14.474 -1.4245  1.7603  1.4980
 5374TIP3   OH237612   3.733   2.132  13.293  0.1706 -0.4487 -0.0597
 5374TIP3    H137613   3.824   2.122  13.264  0.1033  0.6266 -0.6903
 5374TIP3    H237614   3.681   2.121  13.213 -0.1400  0.6120 -0.0176
 5375TIP3   OH237615   3.320   2.033   5.998 -0.1301  0.2459  0.0856
 5375TIP3    H137616   3.388   2.101   6.001 -0.1082  0.2583  3.8282
 5375TIP3    H237617   3.368   1.952   5.983  0.5027  0.5021  0.6525
 5376TIP3   OH237618   3.960   4.540  15.562 -0.1842 -0.0785  0.6499
 5376TIP3    H137619   4.020   4.534  15.487 -0.0560 -0.8245  0.7936
 5376TIP3    H237620   3.972   4.456  15.607 -0.1712  0.4090  1.5713
 5377TIP3   OH237621   0.115   4.928   4.818  0.4246 -0.1415 -0.4623
 5377TIP3    H137622   0.149   4.992   4.756 -1.1990  1.3427  0.1152
 5377TIP3    H237623   0.190   4.909   4.875  1.0399  0.9517 -0.8724
 5378TIP3   OH237624   0.737   5.638  16.817 -0.1741  0.1392  0.1492
 5378TIP3    H137625   0.715   5.715  16.765  0.7879  0.3517  0.0331
 5378TIP3    H237626   0.739   5.566  16.754 -3.6254 -0.5569  0.6174
 5379TIP3   OH237627   5.600   0.867  16.347  0.4504  0.0017 -0.1201
 5379TIP3    H137628   5.545   0.849  16.423  0.9758  0.4193  0.3671
 5379TIP3    H237629   5.544   0.847  16.272  0.8903 -3.5616  0.3068
 5380TIP3   OH237630   5.519   5.147   2.592  0.0232 -0.6653  0.0010
 5380TIP3    H137631   5.486   5.141   2.681 -1.2231 -0.9450 -0.4544
 5380TIP3    H237632   5.594   5.206   2.597 -0.3235 -0.3090  1.1498
 5381TIP3   OH237633   6.074   2.248   4.162 -0.1248  0.1530 -0.6816
 5381TIP3    H137634   6.016   2.259   4.238 -1.4091  0.8662 -1.7249
 5381TIP3    H237635   6.162   2.266   4.196 -0.2149 -2.4756  1.3384
 5382TIP3   OH237636   2.521   6.176  14.297  0.1771 -0.1876  0.0006
 5382TIP3    H137637   2.579   6.209  14.229  1.6028  0.2288  1.3566
 5382TIP3    H237638   2.558   6.209  14.379 -1.8585 -0.1017  0.9521
 5383TIP3   OH237639   0.475   2.948   5.489  0.8668 -0.1822  0.5335
 5383TIP3    H137640   0.491   2.859   5.460  0.4580  0.0962 -0.6178
 5383TIP3    H237641   0.426   2.988   5.417  0.1290  0.6636  1.4652
 5384TIP3   OH237642   1.587   4.908   5.584 -0.0962 -0.4748 -0.8127
 5384TIP3    H137643   1.515   4.963   5.554 -0.5084 -1.1933 -1.1591
 5384TIP3    H237644   1.655   4.970   5.611 -1.8072  0.3525  2.0731
 5385TIP3   OH237645   3.488   2.537   5.713  0.1042  0.5636  0.3245
 5385TIP3    H137646   3.437   2.588   5.649 -1.3741  0.7188  1.5605
 5385TIP3    H237647   3.423   2.482   5.756  1.3206 -0.6649  0.6447
 5386TIP3   OH237648   0.112   2.652   3.794 -0.2014 -0.5347 -0.5541
 5386TIP3    H137649   0.140   2.739   3.823  0.0097  0.0558 -2.3859
 5386TIP3    H237650   0.093   2.605   3.875 -2.9558  2.0275  0.4969
 5387TIP3   OH237651   1.576   0.054   2.353  0.3075  0.4599 -0.0290
 5387TIP3    H137652   1.578   0.137   2.306 -2.4648  1.2624  1.0414
 5387TIP3    H237653   1.655   0.055   2.407  0.1362  2.6267  0.2690
 5388TIP3   OH237654   6.245   1.630   0.212 -0.1867 -0.3157 -0.0872
 5388TIP3    H137655   6.335   1.622   0.180 -0.6089  0.5519 -1.5575
 5388TIP3    H237656   6.242   1.716   0.254 -0.2932 -0.4295  0.1440
 5389TIP3   OH237657   6.289   4.271  13.171  0.0742  0.0960  0.1887
 5389TIP3    H137658   6.213   4.264  13.228  0.9362  0.7943  1.4825
 5389TIP3    H237659   6.255   4.259  13.083 -1.3780 -0.4947  0.8124
 5390TIP3   OH237660   1.073   0.180  15.178 -0.0157  0.0424  0.6113
 5390TIP3    H137661   1.031   0.097  15.199 -2.0744  0.7196 -0.4759
 5390TIP3    H237662   1.000   0.242  15.169  1.1822  1.2601 -1.6709
 5391TIP3   OH237663   0.249   5.852   4.329 -0.1344 -0.3226 -0.3934
 5391TIP3    H137664   0.325   5.906   4.309 -0.9612  0.6966 -0.8163
 5391TIP3    H237665   0.280   5.762   4.318  2.3097 -0.2375  3.7750
 5392TIP3   OH237666   3.053   2.705  11.800  0.2649 -0.1256 -0.0303
 5392TIP3    H137667   3.002   2.681  11.877  0.9335 -0.4439  0.3275
 5392TIP3    H237668   3.046   2.800  11.795  0.9509 -0.0039  0.9672
 5393TIP3   OH237669   6.269   4.735  15.666  0.4709 -0.2752 -0.3198
 5393TIP3    H137670   6.189   4.707  15.622  0.8954  0.9787 -1.9864
 5393TIP3    H237671   6.255   4.828  15.684  1.1162 -0.3090  0.4370
 5394TIP3   OH237672   4.207   2.089   3.887 -0.3279  0.4433  0.0796
 5394TIP3    H137673   4.193   2.163   3.827 -2.0972 -0.2847 -0.4661
 5394TIP3    H237674   4.276   2.037   3.845 -0.2776  0.8861 -0.3962
 5395TIP3   OH237675   1.071   2.453  12.802 -0.2764 -0.6344 -0.0476
 5395TIP3    H137676   0.980   2.483  12.798 -0.5627 -1.5232 -0.4669
 5395TIP3    H237677   1.067   2.360  12.779  0.8922 -0.3619 -1.5432
 5396TIP3   OH237678   2.302   4.164   6.001  0.4096  0.2967 -0.7447
 5396TIP3    H137679   2.322   4.244   5.951  0.0452  0.6982 -0.2605
 5396TIP3    H237680   2.365   4.100   5.970  1.8631  1.2708  0.0996
 5397TIP3   OH237681   4.979   2.335   2.068 -0.1855 -0.4028 -0.0595
 5397TIP3    H137682   5.063   2.305   2.033  0.2637 -0.8643  1.3342
 5397TIP3    H237683   4.936   2.255   2.098  0.0587  0.0732  1.6694
 5398TIP3   OH237684   1.857   0.482  11.072 -0.0379 -0.1911 -0.0586
 5398TIP3    H137685   1.817   0.438  10.998  0.5225 -0.6834 -0.0724
 5398TIP3    H237686   1.933   0.528  11.036  1.7425 -2.4619  0.5607
 5399TIP3   OH237687   4.269   4.830  11.626 -0.4131 -0.5683 -0.3461
 5399TIP3    H137688   4.277   4.899  11.691  0.7551  1.0559 -2.1212
 5399TIP3    H237689   4.205   4.769  11.664  0.9991 -0.3191  2.7892
 5400TIP3   OH237690   5.034   1.679   0.802  0.6757 -0.1659 -0.1239
 5400TIP3    H137691   5.012   1.633   0.721 -1.3555  1.4234 -0.5516
 5400TIP3    H237692   4.972   1.645   0.866 -0.9679  1.9189 -0.4846
 5401TIP3   OH237693   3.278   2.441  12.316  0.2494 -0.3834 -0.8448
 5401TIP3    H137694   3.371   2.438  12.342  0.1561  1.2660 -0.1901
 5401TIP3    H237695   3.271   2.518  12.260 -0.8925  0.0546 -0.1381
 5402TIP3   OH237696   5.114   2.463   1.695  0.6840  0.0809 -0.8047
 5402TIP3    H137697   5.189   2.415   1.658  0.0943 -0.4425 -1.3374
 5402TIP3    H237698   5.042   2.400   1.691  0.4921  0.1660  0.8297
 5403TIP3   OH237699   2.085   2.739   5.616 -0.0942  0.3071 -0.4580
 5403TIP3    H137700   2.124   2.739   5.704  1.4482  0.9289 -1.1056
 5403TIP3    H237701   2.028   2.816   5.615  0.2585  0.5793 -0.1469
 5404TIP3   OH237702   2.234   2.176   5.768  0.1186  0.3830 -0.0373
 5404TIP3    H137703   2.146   2.200   5.738 -0.9783  0.0089  2.5629
 5404TIP3    H237704   2.228   2.179   5.863  2.6085 -0.8948  0.2455
 5405TIP3   OH237705   2.410   4.501  17.108  0.3016  0.4636  0.1066
 5405TIP3    H137706   2.341   4.471  17.049 -1.1056  0.6695  1.5938
 5405TIP3    H237707   2.434   4.424  17.159  0.1736  0.7225  0.5596
 5406TIP3   OH237708   2.368   2.020  10.660 -0.3812  0.1600 -0.2964
 5406TIP3    H137709   2.437   1.973  10.707  0.0819  1.2725  0.1726
 5406TIP3    H237710   2.392   2.011  10.567  0.7794  1.0738 -0.1147
 5407TIP3   OH237711   6.425   5.629  12.982  0.0459 -0.2519 -0.6311
 5407TIP3    H137712   6.497   5.587  13.027  1.8022 -0.1439 -3.1259
 5407TIP3    H237713   6.429   5.594  12.893 -0.7590  2.3553 -1.7934
 5408TIP3   OH237714   6.812   5.311  17.114 -0.1291  0.2536  0.0663
 5408TIP3    H137715   6.817   5.216  17.123  1.6603  0.1928 -0.9768
 5408TIP3    H237716   6.822   5.344  17.204  0.0784 -0.5312  0.3390
 5409TIP3   OH237717   3.419   5.042   5.450 -0.0807  0.0015 -0.5229
 5409TIP3    H137718   3.407   5.101   5.376  3.5217  2.1813  0.3731
 5409TIP3    H237719   3.483   4.978   5.419  0.5208  0.1970  0.2790
 5410TIP3   OH237720   5.416   4.804  16.436  0.1143  0.0182 -0.2794
 5410TIP3    H137721   5.445   4.835  16.522 -1.2517  0.0578  0.1820
 5410TIP3    H237722   5.482   4.838  16.375  0.9532  0.2152  0.7109
 5411TIP3   OH237723   5.867   3.932  14.633 -0.2330 -0.2614  0.4111
 5411TIP3    H137724   5.860   3.845  14.672 -0.8560 -0.3162  0.1809
 5411TIP3    H237725   5.852   3.918  14.540 -0.2397  0.0838  0.3592
 5412TIP3   OH237726   6.039   0.184  15.651  0.0823 -0.0585 -0.4369
 5412TIP3    H137727   6.113   0.131  15.680  0.3486  1.2065  1.3897
 5412TIP3    H237728   6.016   0.149  15.565  0.3217 -2.9855  0.6029
 5413TIP3   OH237729   1.430   6.159  14.347  0.2355 -0.8171  0.1577
 5413TIP3    H137730   1.448   6.079  14.396  0.5527 -0.3869  0.7598
 5413TIP3    H237731   1.335   6.162  14.337  0.3438 -2.7967 -2.4898
 5414TIP3   OH237732   1.008   0.103   1.819  0.7440  0.6668  0.2620
 5414TIP3    H137733   0.966   0.018   1.831 -0.0464  1.0602  0.3495
 5414TIP3    H237734   0.990   0.127   1.728 -2.4388  2.4892  1.2413
 5415TIP3   OH237735   5.669   0.973   1.986  0.4319 -0.1120 -0.8408
 5415TIP3    H137736   5.611   0.992   1.912  0.3422 -1.7381 -1.2281
 5415TIP3    H237737   5.667   0.877   1.994  1.0000 -0.0129  0.8244
 5416TIP3   OH237738   6.072   2.519  14.813 -0.2295 -0.5370  0.4707
 5416TIP3    H137739   5.998   2.508  14.873  1.2946 -0.8141  2.4069
 5416TIP3    H237740   6.094   2.430  14.784  0.0389 -0.5795  0.7976
 5417TIP3   OH237741   1.740   4.842  16.009 -0.0335 -0.1837  0.4987
 5417TIP3    H137742   1.769   4.826  16.099  1.7504  0.1965  0.0368
 5417TIP3    H237743   1.646   4.826  16.011  0.2307 -1.8827  2.0386
 5418TIP3   OH237744   1.397   3.722   3.502  0.1536 -0.0687 -0.1847
 5418TIP3    H137745   1.450   3.798   3.527 -1.0625  0.7885 -0.1749
 5418TIP3    H237746   1.462   3.652   3.488  1.1416  0.3887  1.7983
 5419TIP3   OH237747   2.476   0.903  12.666 -0.4043 -0.1312  0.0336
 5419TIP3    H137748   2.536   0.887  12.593  0.8566 -1.5242  1.3186
 5419TIP3    H237749   2.392   0.869  12.634  0.5200 -2.4260 -0.1914
 5420TIP3   OH237750   0.635   5.030  13.109  0.5452 -0.2159 -0.1605
 5420TIP3    H137751   0.624   5.120  13.078 -0.2727 -0.5097 -0.7644
 5420TIP3    H237752   0.698   4.991  13.049 -0.3336 -0.5087 -0.9285
 5421TIP3   OH237753   1.494   0.956   4.992 -0.4540  0.0338 -0.1180
 5421TIP3    H137754   1.462   0.885   5.047 -1.3963  1.5242  1.3655
 5421TIP3    H237755   1.551   1.008   5.049  0.6474  0.2155 -1.3143
 5422TIP3   OH237756   4.266   5.433   5.974 -0.6546 -0.2236 -0.1636
 5422TIP3    H137757   4.257   5.528   5.966 -0.7003 -0.2268 -0.1560
 5422TIP3    H237758   4.337   5.420   6.036  0.8576 -0.2037 -1.8058
 5423TIP3   OH237759   2.044   5.162  10.819  0.2105 -0.1626  0.3833
 5423TIP3    H137760   2.043   5.253  10.788 -0.3723  0.1239  1.2240
 5423TIP3    H237761   2.083   5.113  10.746 -1.9493  0.3477 -1.2089
 5424TIP3   OH237762   0.301   0.568   4.715 -0.0473  0.9943  0.1203
 5424TIP3    H137763   0.226   0.616   4.751 -0.6425 -0.3002  0.7049
 5424TIP3    H237764   0.307   0.596   4.624 -2.8457 -0.6203 -0.6990
 5425TIP3   OH237765   1.914   3.800  16.629 -0.3735 -0.1529  0.6137
 5425TIP3    H137766   1.875   3.793  16.541 -0.2638  0.2462  0.5346
 5425TIP3    H237767   1.960   3.883  16.629  0.5780 -0.6614  0.6703
 5426TIP3   OH237768   6.188   2.823  12.131  0.1725  0.3073 -0.8962
 5426TIP3    H137769   6.265   2.780  12.094  0.2612 -0.8100  0.5125
 5426TIP3    H237770   6.166   2.891  12.068  0.5537 -1.2400 -2.7923
 5427TIP3   OH237771   1.675   5.240  10.744  0.4127  0.6148  0.2166
 5427TIP3    H137772   1.716   5.325  10.728  0.7401  0.8034  1.8790
 5427TIP3    H237773   1.695   5.189  10.665 -0.2981  2.2312 -1.0664
 5428TIP3   OH237774   3.644   0.254   4.468 -0.5756 -0.5816  0.6047
 5428TIP3    H137775   3.659   0.345   4.492 -2.5091  0.5537 -2.0539
 5428TIP3    H237776   3.553   0.237   4.493  0.0188 -2.1758  1.9371
 5429TIP3   OH237777   6.111   2.825   2.250 -0.0133 -0.3398  0.0091
 5429TIP3    H137778   6.077   2.738   2.229 -0.0618 -0.3568  0.1572
 5429TIP3    H237779   6.188   2.835   2.193  1.2850 -1.3447  1.5135
 5430TIP3   OH237780   5.196   3.414  13.119  0.4325 -0.3409  0.2894
 5430TIP3    H137781   5.277   3.405  13.169  0.2366 -0.5311  0.5735
 5430TIP3    H237782   5.209   3.359  13.042  0.5875 -0.3403  0.3144
 5431TIP3   OH237783   0.524   6.429   4.616  0.5048  0.2453  0.3492
 5431TIP3    H137784   0.590   6.371   4.576  1.6319  0.5628  1.6641
 5431TIP3    H237785   0.481   6.375   4.682 -1.9794 -0.5468 -1.7824
 5432TIP3   OH237786   2.688   1.941   4.250  0.1801 -0.1350 -0.3479
 5432TIP3    H137787   2.696   1.994   4.329  0.1890 -0.6738  0.0190
 5432TIP3    H237788   2.755   1.976   4.191 -1.2226  1.6803 -0.9550
 5433TIP3   OH237789   6.139   5.663   1.827 -0.1426 -0.4781 -0.0915
 5433TIP3    H137790   6.172   5.677   1.739 -0.9056 -0.7962 -0.4383
 5433TIP3    H237791   6.141   5.749   1.868 -0.6772 -0.1412 -0.7460
 5434TIP3   OH237792   5.350   0.216  16.093  0.0823  0.0059 -0.6731
 5434TIP3    H137793   5.424   0.218  16.032  2.6193  2.0274  2.1647
 5434TIP3    H237794   5.361   0.134  16.140 -0.9059 -0.7794 -1.7709
 5435TIP3   OH237795   5.827   3.267   5.270 -0.4067 -0.2096 -0.4495
 5435TIP3    H137796   5.735   3.267   5.242 -0.2392  1.2861 -1.1080
 5435TIP3    H237797   5.876   3.254   5.189  0.0355  2.4572 -0.6926
 5436TIP3   OH237798   2.321   4.722  14.623  0.5862 -0.4125 -0.1890
 5436TIP3    H137799   2.227   4.718  14.640  0.3398  0.6296 -1.2117
 5436TIP3    H237800   2.341   4.815  14.617  1.7799 -0.6111  0.4529
 5437TIP3   OH237801   1.372   4.609  14.245 -0.2144 -0.0631 -0.4505
 5437TIP3    H137802   1.282   4.628  14.274 -0.5682 -0.0503 -1.5030
 5437TIP3    H237803   1.410   4.695  14.227  0.8076  0.1087  2.1501
 5438TIP3   OH237804   2.164   0.445  14.910 -0.3816  0.1574 -0.7249
 5438TIP3    H137805   2.207   0.497  14.842 -0.8007  1.1414 -0.2609
 5438TIP3    H237806   2.082   0.416  14.871 -0.2312 -0.0040 -0.9222
 5439TIP3   OH237807   2.731   0.977   1.549 -0.2455  0.5719  0.1012
 5439TIP3    H137808   2.737   1.066   1.585 -0.3604  0.0911  1.3581
 5439TIP3    H237809   2.687   0.989   1.465 -1.2389  1.6032  0.7229
 5440TIP3   OH237810   3.981   6.678  16.329 -0.1559 -0.3833 -0.0474
 5440TIP3    H137811   3.974   6.614  16.258  0.3277 -2.6069  1.7912
 5440TIP3    H237812   4.069   6.665  16.364 -0.1474  1.1419  0.5609
 5441TIP3   OH237813   2.965   1.090   4.364 -0.2944  0.0444  0.4327
 5441TIP3    H137814   2.968   1.075   4.459 -1.3596  0.5279  0.5570
 5441TIP3    H237815   2.875   1.118   4.347 -0.0474  0.2018 -0.6921
 5442TIP3   OH237816   0.849   4.835  15.711 -0.5952 -0.2491  1.0016
 5442TIP3    H137817   0.909   4.833  15.786  0.1417  0.3250  0.4354
 5442TIP3    H237818   0.840   4.927  15.689  1.1626 -0.5058 -1.1585
 5443TIP3   OH237819   1.349   2.049   6.122  0.5169 -0.3662  0.5657
 5443TIP3    H137820   1.290   1.976   6.139  0.6686 -0.2821  1.4930
 5443TIP3    H237821   1.334   2.110   6.195  0.3441  0.5615 -0.2169
 5444TIP3   OH237822   2.015   2.707  15.999  0.5850 -0.6401 -0.1265
 5444TIP3    H137823   2.069   2.741  15.928  0.2783  1.5290  0.5995
 5444TIP3    H237824   2.077   2.681  16.067  0.8201  2.0384  0.7905
 5445TIP3   OH237825   0.770   0.214   0.550  0.2355  0.1530  0.1943
 5445TIP3    H137826   0.680   0.212   0.519  0.3577 -2.3624 -0.1633
 5445TIP3    H237827   0.773   0.153   0.623  1.3208  1.4188  1.2647
 5446TIP3   OH237828   5.021   6.283  16.536 -0.1730 -0.1238  0.0528
 5446TIP3    H137829   5.049   6.365  16.575  0.9160 -0.6446  0.4228
 5446TIP3    H237830   4.925   6.282  16.546 -0.0046  0.0974  2.0668
 5447TIP3   OH237831   1.712   5.807  13.126  0.2401  0.4452  0.1364
 5447TIP3    H137832   1.618   5.822  13.140 -0.0139 -0.6331 -0.2913
 5447TIP3    H237833   1.738   5.876  13.065 -0.0498  1.3123  0.9511
 5448TIP3   OH237834   0.128   1.980  14.087  0.0997  0.1278  0.0887
 5448TIP3    H137835   0.038   2.006  14.067  0.3900  2.2810  1.3212
 5448TIP3    H237836   0.118   1.903  14.142 -1.0046  0.4862  0.4222
 5449TIP3   OH237837   6.819   4.741   1.216 -0.2147  0.0062  0.1662
 5449TIP3    H137838   6.800   4.726   1.308 -0.4678 -0.9728 -0.0369
 5449TIP3    H237839   6.761   4.814   1.191  0.4307  0.8069  0.9653
 5450TIP3   OH237840   4.646   1.217  15.627  0.1208 -0.2709  0.7475
 5450TIP3    H137841   4.569   1.270  15.605  0.9562  0.5957 -0.2147
 5450TIP3    H237842   4.720   1.266  15.589  1.0430 -1.5663  0.8156
 5451TIP3   OH237843   1.050   2.831   2.443  0.1275  0.3588 -0.0924
 5451TIP3    H137844   0.978   2.771   2.461 -2.8649  3.5685 -0.2966
 5451TIP3    H237845   1.089   2.848   2.529 -1.5271  1.0170  0.5634
 5452TIP3   OH237846   0.029   2.987   4.538 -0.0240 -0.3048  1.1969
 5452TIP3    H137847  -0.032   2.949   4.601 -0.2094  0.5564  1.5616
 5452TIP3    H237848  -0.001   2.956   4.453  1.3592 -3.0609  1.5995
 5453TIP3   OH237849   4.363   1.562   2.929 -0.3291 -0.4254  0.1289
 5453TIP3    H137850   4.339   1.470   2.944  3.0090 -1.6727 -1.3553
 5453TIP3    H237851   4.459   1.563   2.930 -0.2175  2.9170 -0.8245
 5454TIP3   OH237852   2.163   3.199  12.468 -0.1122  0.2541 -0.3174
 5454TIP3    H137853   2.167   3.104  12.485 -0.5452  0.0326 -1.3968
 5454TIP3    H237854   2.108   3.233  12.538 -0.0132 -0.3035  0.0407
 5455TIP3   OH237855   5.066   5.555  16.258 -0.9265  0.4042 -0.7149
 5455TIP3    H137856   5.050   5.486  16.194 -0.5177 -1.1399  0.7576
 5455TIP3    H237857   5.147   5.597  16.228  0.5523 -1.7967 -0.0887
 5456TIP3   OH237858   5.561   6.387  11.718 -0.5115 -0.0626  0.1939
 5456TIP3    H137859   5.604   6.390  11.632 -0.1768  0.4462  0.3770
 5456TIP3    H237860   5.571   6.475  11.753  0.4744 -0.5968  1.3075
 5457TIP3   OH237861   0.137   1.991   0.141 -0.3102 -0.9238  0.1606
 5457TIP3    H137862   0.214   2.039   0.171 -1.1088 -0.4299  1.5364
 5457TIP3    H237863   0.157   1.899   0.159  0.5584 -0.9664 -0.9399
 5458TIP3   OH237864   3.338   0.987   4.960  0.1954 -0.1924  0.0421
 5458TIP3    H137865   3.431   1.012   4.961 -0.2240  1.4737  0.7558
 5458TIP3    H237866   3.318   0.973   4.868  1.4020 -1.6700 -0.0460
 5459TIP3   OH237867   1.617   2.477  14.518 -0.4608  0.0440  0.0760
 5459TIP3    H137868   1.653   2.550  14.467  1.6474 -0.5236  0.6568
 5459TIP3    H237869   1.678   2.405  14.503 -1.6044 -1.1259  0.8304
 5460TIP3   OH237870   1.694   3.760  17.120 -0.1247  0.4683 -0.3694
 5460TIP3    H137871   1.778   3.734  17.082  0.4090  1.3059  0.1904
 5460TIP3    H237872   1.716   3.788  17.209 -0.6834  2.5314 -0.8212
 5461TIP3   OH237873   4.608   6.511   5.502  0.3801 -0.0653  0.2433
 5461TIP3    H137874   4.525   6.504   5.550 -0.1088 -0.3894 -0.6269
 5461TIP3    H237875   4.645   6.422   5.506 -0.1239 -0.3304 -0.7777
 5462TIP3   OH237876   1.611   4.740  12.720 -0.1818 -0.2473 -0.1238
 5462TIP3    H137877   1.568   4.660  12.688  0.0871  0.0600 -1.3045
 5462TIP3    H237878   1.702   4.731  12.691  0.3145 -0.3825  1.4083
 5463TIP3   OH237879   4.038   1.688  12.660 -0.4631  0.3988  0.2847
 5463TIP3    H137880   4.055   1.710  12.569  1.1196 -0.3423  0.3687
 5463TIP3    H237881   4.043   1.771  12.707  1.8458  0.4272  0.1029
 5464TIP3   OH237882   4.773   5.907  10.396 -0.2899 -0.4686 -0.0890
 5464TIP3    H137883   4.708   5.845  10.361  0.7601 -0.9476 -1.2988
 5464TIP3    H237884   4.849   5.896  10.338 -0.5988  3.0977 -1.3802
 5465TIP3   OH237885   1.039   3.761   6.328 -0.2262 -0.4716 -0.0182
 5465TIP3    H137886   1.045   3.720   6.241 -1.0958 -0.9803  0.1455
 5465TIP3    H237887   1.099   3.710   6.382  1.3842  0.7137 -0.6125
 5466TIP3   OH237888   0.753   4.121  11.868  0.4355  0.3302  0.6117
 5466TIP3    H137889   0.686   4.066  11.910  0.6293  0.4532  1.0922
 5466TIP3    H237890   0.765   4.194  11.929 -1.0573  1.8335 -0.7978
 5467TIP3   OH237891   3.368   0.508  16.460  0.4846 -0.5732 -0.3363
 5467TIP3    H137892   3.371   0.413  16.462  0.7381 -0.6591 -2.4505
 5467TIP3    H237893   3.416   0.532  16.381 -0.0400  1.2967 -0.1447
 5468TIP3   OH237894   1.588   0.737   3.868  0.1407 -0.0322 -0.0485
 5468TIP3    H137895   1.580   0.643   3.889 -0.5365 -0.1789 -0.9150
 5468TIP3    H237896   1.498   0.766   3.858  0.3966  0.4167 -1.0744
 5469TIP3   OH237897   0.184   4.424   2.552  0.0763  0.2000 -0.1232
 5469TIP3    H137898   0.267   4.473   2.552  1.0885 -1.3829  1.5516
 5469TIP3    H237899   0.119   4.488   2.579  0.6007  1.6327 -2.0380
 5470TIP3   OH237900   1.550   3.342   4.099 -0.3106 -0.2351  0.3609
 5470TIP3    H137901   1.576   3.255   4.070  1.3126  1.1880 -2.9698
 5470TIP3    H237902   1.457   3.333   4.122  0.1511 -3.0517  1.5218
 5471TIP3   OH237903   3.990   3.628  10.802  0.1271 -0.6004 -0.0305
 5471TIP3    H137904   4.036   3.544  10.792  0.9682 -0.3040  1.0622
 5471TIP3    H237905   3.965   3.653  10.713  1.9737 -0.8579 -0.6600
 5472TIP3   OH237906   3.887   4.350   0.848 -0.2822  0.3727 -0.5785
 5472TIP3    H137907   3.974   4.332   0.812 -0.8124  0.0110 -1.7461
 5472TIP3    H237908   3.851   4.263   0.866  0.3180  0.5403  1.8233
 5473TIP3   OH237909   3.618   1.146   5.372  0.3236 -0.1883  0.1354
 5473TIP3    H137910   3.683   1.205   5.410  1.8188 -1.0673 -0.9211
 5473TIP3    H237911   3.620   1.166   5.279  1.0315 -1.9838 -0.2843
 5474TIP3   OH237912   1.933   4.024   6.345 -0.1302  0.3176 -0.8851
 5474TIP3    H137913   1.876   3.952   6.370  0.1512 -0.3483 -2.0867
 5474TIP3    H237914   1.882   4.103   6.361 -0.2516 -0.1050  0.9438
 5475TIP3   OH237915   0.497   1.569   0.065 -0.5103  0.2688  0.6429
 5475TIP3    H137916   0.557   1.624   0.014 -0.4078  0.2307  0.7221
 5475TIP3    H237917   0.540   1.559   0.150 -0.2367 -0.4251  0.4321
 5476TIP3   OH237918   3.653   1.265  13.253  1.0312 -0.0968 -0.5559
 5476TIP3    H137919   3.691   1.264  13.165  0.9264 -0.3378 -0.5982
 5476TIP3    H237920   3.561   1.288  13.239  1.4792  2.0686 -0.3274
 5477TIP3   OH237921   4.948   3.000   3.549 -0.2510  0.0591  0.3619
 5477TIP3    H137922   4.970   2.989   3.457 -0.0031  0.0682  0.4205
 5477TIP3    H237923   4.880   2.935   3.566  0.5265 -0.7408  0.4711
 5478TIP3   OH237924   4.587   4.255   1.801  0.0615  0.1368 -0.1039
 5478TIP3    H137925   4.600   4.240   1.708 -3.0480 -0.3810 -0.5716
 5478TIP3    H237926   4.538   4.337   1.806 -0.8976 -0.4695  0.9537
 5479TIP3   OH237927   6.718   1.369  15.755  0.2177 -0.0677  0.0198
 5479TIP3    H137928   6.655   1.322  15.701 -0.8937  0.6141  0.6653
 5479TIP3    H237929   6.789   1.391  15.696 -1.3704  1.4494 -1.4522
 5480TIP3   OH237930   2.001   0.698  12.774 -0.5474  0.4346 -0.1913
 5480TIP3    H137931   1.928   0.655  12.818  2.0296 -1.7765  2.2539
 5480TIP3    H237932   2.035   0.761  12.838 -0.5907  1.9074 -1.5333
 5481TIP3   OH237933   4.206   1.753   3.646 -0.1081  0.2490 -0.0971
 5481TIP3    H137934   4.274   1.816   3.670  1.0835 -1.2044  0.4846
 5481TIP3    H237935   4.215   1.744   3.551  0.0479  0.5659 -0.1162
 5482TIP3   OH237936   4.104   6.400  17.100  0.2683  0.1096 -0.3453
 5482TIP3    H137937   4.067   6.378  17.186 -2.0609  0.5635 -1.1584
 5482TIP3    H237938   4.170   6.466  17.118 -0.3438  0.3620  1.0740
 5483TIP3   OH237939   3.820   4.074   0.922  0.3727 -0.1514 -0.5920
 5483TIP3    H137940   3.830   4.064   0.827  2.1808 -1.8005 -0.2867
 5483TIP3    H237941   3.896   4.029   0.959 -0.5120  0.0969  1.6708
 5484TIP3   OH237942   5.678   3.960   2.386 -1.0520 -0.1938 -0.1336
 5484TIP3    H137943   5.654   3.928   2.299  1.8224 -1.9616 -0.4223
 5484TIP3    H237944   5.675   3.883   2.442  1.2511 -0.0315  0.3115
 5485TIP3   OH237945   3.424   0.702   1.946 -0.5458 -0.1651  0.2386
 5485TIP3    H137946   3.478   0.697   1.867  0.6214 -0.5585  1.0389
 5485TIP3    H237947   3.407   0.611   1.970 -1.8910 -0.0474 -0.2018
 5486TIP3   OH237948   0.417   6.193   3.093  0.5402 -0.5638 -0.4474
 5486TIP3    H137949   0.399   6.118   3.036 -0.2031 -1.4359  0.8711
 5486TIP3    H237950   0.343   6.252   3.078 -0.9555 -1.8568  1.2396
 5487TIP3   OH237951   0.535   3.025   2.980  0.3129  0.2968 -0.0360
 5487TIP3    H137952   0.602   2.969   2.941 -1.3437 -0.6452 -1.7041
 5487TIP3    H237953   0.557   3.113   2.948  0.0450 -0.1921 -1.6895
 5488TIP3   OH237954   6.392   6.519   0.873 -0.6370  0.2853  0.0494
 5488TIP3    H137955   6.348   6.473   0.801 -0.0894  2.3970 -1.7243
 5488TIP3    H237956   6.322   6.537   0.936 -1.6136  0.4329 -1.0440
 5489TIP3   OH237957   3.287   1.915   4.016 -0.1439  0.7078 -0.2573
 5489TIP3    H137958   3.251   1.854   3.951 -0.1429  0.0804  0.3217
 5489TIP3    H237959   3.372   1.878   4.039 -0.3935  0.6128  0.5208
 5490TIP3   OH237960   6.432   5.537   2.298  0.2300 -0.4926  0.1489
 5490TIP3    H137961   6.342   5.556   2.325  0.3275  1.4659 -0.7684
 5490TIP3    H237962   6.486   5.584   2.361  0.5374  0.3405 -0.7109
 5491TIP3   OH237963   0.951   6.657   2.875  0.2545  0.4535 -0.6934
 5491TIP3    H137964   0.908   6.601   2.940 -2.1977  1.0567 -1.6938
 5491TIP3    H237965   1.036   6.614   2.860  0.9435  0.2876  2.8032
 5492TIP3   OH237966   0.305   3.730  16.166 -0.7143  0.1876 -0.2291
 5492TIP3    H137967   0.294   3.814  16.121 -0.3198  0.3076 -0.1079
 5492TIP3    H237968   0.216   3.700  16.184 -0.8671  0.3221 -0.7500
 5493TIP3   OH237969   3.689   4.529  14.267  0.1390  0.5465 -0.9729
 5493TIP3    H137970   3.696   4.455  14.328  3.4014  1.0158 -0.6028
 5493TIP3    H237971   3.727   4.496  14.185 -1.5043  0.8546 -1.9261
 5494TIP3   OH237972   5.860   0.410  14.739  0.2584 -0.0760  0.5676
 5494TIP3    H137973   5.829   0.352  14.669  1.1570 -0.2725  0.3158
 5494TIP3    H237974   5.861   0.497  14.699 -0.4366  0.0164  0.7351
 5495TIP3   OH237975   1.137   0.522  13.117  0.3155  0.4881 -0.3983
 5495TIP3    H137976   1.194   0.570  13.177 -0.3462  0.6791  0.0891
 5495TIP3    H237977   1.071   0.587  13.090  0.4441  0.3279 -1.1155
 5496TIP3   OH237978   0.144   5.226   2.634  0.0759 -0.0856  0.0346
 5496TIP3    H137979   0.066   5.193   2.677 -0.0682  1.1782  0.8057
 5496TIP3    H237980   0.186   5.149   2.597 -1.2921 -0.8393 -0.0040
 5497TIP3   OH237981   1.163   4.752   1.672  0.4831  0.2159 -0.1211
 5497TIP3    H137982   1.212   4.685   1.625  1.7841  2.0393 -1.5224
 5497TIP3    H237983   1.081   4.762   1.623  0.6794  0.2583 -0.4418
 5498TIP3   OH237984   6.803   0.735   5.743  0.6979 -0.0532 -0.0414
 5498TIP3    H137985   6.841   0.702   5.662 -0.2621 -0.1267 -0.4733
 5498TIP3    H237986   6.835   0.825   5.750 -2.6681  1.5868 -2.8703
 5499TIP3   OH237987   1.395   0.265   3.724  0.2528  0.6119  0.2177
 5499TIP3    H137988   1.331   0.335   3.710 -0.3016 -0.2085 -1.5739
 5499TIP3    H237989   1.447   0.264   3.644 -1.0925 -2.3527 -0.7328
 5500TIP3   OH237990   1.400   6.426  15.462 -0.0767  0.2189 -0.5011
 5500TIP3    H137991   1.337   6.374  15.411 -0.5367  1.1040 -0.8468
 5500TIP3    H237992   1.345   6.482  15.517  0.4222  0.4146 -0.1958
 5501TIP3   OH237993   6.639   1.308  15.216  0.1833 -0.0225  0.9042
 5501TIP3    H137994   6.645   1.393  15.172  0.2333 -1.9587 -3.4086
 5501TIP3    H237995   6.729   1.290  15.245  0.6360  0.5214 -0.0944
 5502TIP3   OH237996   1.730   5.979  14.290  0.6492  0.3759 -0.1652
 5502TIP3    H137997   1.677   6.000  14.367 -1.1224  0.7223 -1.3896
 5502TIP3    H237998   1.724   6.057  14.235  1.0466 -0.2079 -1.0619
 5503TIP3   OH237999   4.339   2.960   0.231 -0.4383  0.7761  0.2781
 5503TIP3    H138000   4.430   2.931   0.230 -0.3217  0.9744  1.9454
 5503TIP3    H238001   4.289   2.886   0.196  0.1604 -0.2445  1.5209
 5504TIP3   OH238002   1.189   5.646  11.920  0.5177 -0.5019  0.0726
 5504TIP3    H138003   1.197   5.714  11.988  1.4094 -1.7145  1.2348
 5504TIP3    H238004   1.274   5.602  11.920  0.3595 -0.8611 -1.5112
 5505TIP3   OH238005   3.036   4.427  12.920  0.5948 -0.0885 -0.0612
 5505TIP3    H138006   2.980   4.349  12.919  0.8076 -0.2456  0.0469
 5505TIP3    H238007   3.121   4.394  12.948  0.3478  0.4022  1.3701
 5506TIP3   OH238008   3.341   0.089   0.482  0.5163 -0.1514  0.1586
 5506TIP3    H138009   3.279   0.115   0.551  0.9755  0.6966  0.2721
 5506TIP3    H238010   3.405   0.033   0.527  1.6556  1.5680  0.8076
 5507TIP3   OH238011   4.924   1.297  13.549 -0.2585  0.4785 -0.0968
 5507TIP3    H138012   5.001   1.258  13.506 -1.1760 -1.2241 -0.2841
 5507TIP3    H238013   4.854   1.234  13.534 -1.8937  2.3147 -0.5146
 5508TIP3   OH238014   6.674   3.102   5.901 -0.1701 -0.0372  0.1854
 5508TIP3    H138015   6.698   3.191   5.925  0.4328 -0.3624  0.8029
 5508TIP3    H238016   6.578   3.102   5.901 -0.1822  0.8075 -0.5895
 5509TIP3   OH238017   3.664   6.415  15.867  0.4236 -0.1161  0.1174
 5509TIP3    H138018   3.701   6.501  15.847  0.5170 -0.1912 -0.0415
 5509TIP3    H238019   3.637   6.421  15.958  0.9330 -0.0923  0.2710
 5510TIP3   OH238020   0.529   2.725  16.526  0.2478 -0.6429  0.3373
 5510TIP3    H138021   0.610   2.701  16.571  0.9275  1.0753  0.1058
 5510TIP3    H238022   0.555   2.737  16.435 -0.5095 -1.1813  0.0425
 5511TIP3   OH238023   2.800   1.545   0.345 -0.2435  0.2708  0.3348
 5511TIP3    H138024   2.883   1.564   0.301 -0.4968 -0.6908 -0.6188
 5511TIP3    H238025   2.737   1.604   0.302 -0.2866  0.0946  0.1525
 5512TIP3   OH238026   0.455   6.166  14.272  0.6039  0.1467 -0.7576
 5512TIP3    H138027   0.385   6.139  14.211  1.0146  2.3517 -2.3054
 5512TIP3    H238028   0.415   6.234  14.326  0.4409 -1.3477  1.1327
 5513TIP3   OH238029   2.590   0.187  12.476  0.2895 -0.5612 -0.4370
 5513TIP3    H138030   2.645   0.245  12.423  0.5419 -2.3233 -2.2302
 5513TIP3    H238031   2.559   0.242  12.547 -1.4121  2.4695 -3.2680
 5514TIP3   OH238032   5.803   0.153   0.018 -0.4439  0.3010 -0.5298
 5514TIP3    H138033   5.858   0.122  -0.055 -0.6746 -1.7248  0.0793
 5514TIP3    H238034   5.855   0.135   0.096 -0.8245  1.0295 -0.0974
 5515TIP3   OH238035   0.746   1.723   4.223 -0.1658  0.1951 -0.8616
 5515TIP3    H138036   0.683   1.661   4.261  1.3562 -0.3883  0.8063
 5515TIP3    H238037   0.692   1.780   4.168 -2.4358  0.8096  1.8135
 5516TIP3   OH238038   5.385   0.748  15.182 -0.1723 -0.1403 -0.2961
 5516TIP3    H138039   5.446   0.717  15.249  1.2830  1.7728 -0.6379
 5516TIP3    H238040   5.298   0.736  15.221  0.5105 -0.9748  1.0681
 5517TIP3   OH238041   1.041   1.592  16.584  0.4156 -0.7775 -0.6051
 5517TIP3    H138042   0.950   1.619  16.595 -0.3471 -3.4401  0.4041
 5517TIP3    H238043   1.058   1.533  16.658  2.8718 -0.6137 -0.9390
 5518TIP3   OH238044   3.274   1.626  13.718 -0.5662 -0.1124  0.4533
 5518TIP3    H138045   3.270   1.633  13.623 -0.7306 -0.2876  0.4476
 5518TIP3    H238046   3.202   1.680  13.750  0.9423  1.9559  0.5761
 5519TIP3   OH238047   6.575   0.478  16.449 -0.0348 -0.0825  0.1948
 5519TIP3    H138048   6.558   0.384  16.451 -1.0689  0.0929  0.3361
 5519TIP3    H238049   6.493   0.516  16.417  0.7225  0.6957 -0.8473
 5520TIP3   OH238050   4.914   1.739   2.778 -0.1112 -0.4496  0.6252
 5520TIP3    H138051   4.963   1.697   2.707 -0.7946  0.6856 -0.5728
 5520TIP3    H238052   4.841   1.679   2.794  0.4102 -1.0402  0.8517
 5521TIP3   OH238053   1.269   1.689  13.774  0.4500  0.7941 -0.3199
 5521TIP3    H138054   1.193   1.632  13.771  1.9478 -1.9512  4.3633
 5521TIP3    H238055   1.334   1.645  13.718  0.1390  0.4990 -0.4527
 5522TIP3   OH238056   6.037   6.317   0.416  0.2481  0.2861 -0.4936
 5522TIP3    H138057   6.007   6.369   0.342 -1.9016 -1.7448 -1.1870
 5522TIP3    H238058   5.957   6.280   0.453  1.5134 -1.1896  0.9492
 5523TIP3   OH238059   3.889   3.440   2.723  0.2800 -0.3151 -0.0134
 5523TIP3    H138060   3.923   3.518   2.767 -1.8118  0.6677  0.0122
 5523TIP3    H238061   3.803   3.467   2.690  1.1419 -1.4392 -3.5159
 5524TIP3   OH238062   0.872   5.844  12.806 -0.5323  0.7166  0.5786
 5524TIP3    H138063   0.880   5.750  12.791 -0.4776  0.9162 -0.7473
 5524TIP3    H238064   0.891   5.855  12.900 -1.0969 -0.6411  0.8781
 5525TIP3   OH238065   0.733   1.837   1.251 -0.7388  0.2713  0.0429
 5525TIP3    H138066   0.708   1.865   1.162  0.6525 -1.1817 -0.8644
 5525TIP3    H238067   0.706   1.745   1.256  1.7971 -0.5627 -0.0255
 5526TIP3   OH238068   6.258   2.401   4.330 -0.1676  0.1244 -0.1135
 5526TIP3    H138069   6.343   2.441   4.349 -1.0173  1.9123  0.1493
 5526TIP3    H238070   6.205   2.473   4.297 -1.8044 -0.7839  0.4184
 5527TIP3   OH238071   3.837   6.315  15.030  0.3935 -0.6534  0.6594
 5527TIP3    H138072   3.888   6.239  15.004  0.7755 -0.1535 -0.0782
 5527TIP3    H238073   3.774   6.281  15.094  1.4932 -1.3158  1.4161
 5528TIP3   OH238074   0.624   1.582   0.294 -0.1237 -0.7765  0.1113
 5528TIP3    H138075   0.691   1.637   0.253  0.1839 -1.7430 -0.7239
 5528TIP3    H238076   0.596   1.632   0.370  1.0043 -0.0042  0.0548
 5529TIP3   OH238077   4.250   2.804   1.393  0.1115 -0.4778  0.5006
 5529TIP3    H138078   4.320   2.767   1.340  0.2393  1.4704 -0.7966
 5529TIP3    H238079   4.204   2.864   1.334 -0.1882  1.2778  2.3986
 5530TIP3   OH238080   2.221   4.715  11.020 -0.4984  0.2874 -0.5140
 5530TIP3    H138081   2.129   4.689  11.013  0.0161 -1.6181 -0.8065
 5530TIP3    H238082   2.269   4.632  11.031  0.9737  1.3811  2.1910
 5531TIP3   OH238083   2.599   4.679  11.484 -0.1847  0.0303 -0.4588
 5531TIP3    H138084   2.621   4.612  11.549  0.0823  0.4743 -0.0836
 5531TIP3    H238085   2.670   4.743  11.490 -0.5636  0.4729 -0.6338
 5532TIP3   OH238086   4.579   0.089  16.631 -0.3227  0.1051 -0.1135
 5532TIP3    H138087   4.597   0.161  16.692 -0.7610  2.0444 -2.1362
 5532TIP3    H238088   4.488   0.065  16.649 -0.0185 -0.3211  0.9179
 5533TIP3   OH238089   3.662   4.103   3.604 -0.5160  0.8835  0.3440
 5533TIP3    H138090   3.617   4.018   3.604 -0.3297  0.7824  0.0180
 5533TIP3    H238091   3.689   4.115   3.513  1.2967  0.3292  0.7825
 5534TIP3   OH238092   2.600   4.994  12.834 -0.2170  0.1875 -0.0217
 5534TIP3    H138093   2.611   5.012  12.928  1.1210  0.2606 -0.1663
 5534TIP3    H238094   2.690   4.986  12.801 -0.6140  1.4490 -1.5477
 5535TIP3   OH238095   6.594   6.021   3.639  0.2619 -0.7964  0.0320
 5535TIP3    H138096   6.527   6.086   3.661  0.2977 -0.3979 -1.0089
 5535TIP3    H238097   6.622   5.987   3.724  1.6841  2.0034  0.8350
 5536TIP3   OH238098   2.679   6.337  10.948 -0.1906  0.6738 -0.3483
 5536TIP3    H138099   2.603   6.301  10.994  0.3571  0.2279  0.2296
 5536TIP3    H238100   2.672   6.301  10.859  0.3088 -0.8572  0.1942
 5537TIP3   OH238101   4.511   5.674   1.200  0.5641  0.2317 -0.0442
 5537TIP3    H138102   4.505   5.763   1.165  0.7373  0.4013  0.3562
 5537TIP3    H238103   4.464   5.678   1.284  0.7921  0.0092  0.0944
 5538TIP3   OH238104   4.599   2.196  14.843 -0.2325 -0.6457  0.3584
 5538TIP3    H138105   4.518   2.244  14.826  0.8880  0.6797 -1.5756
 5538TIP3    H238106   4.649   2.253  14.902  0.1816 -0.4387 -0.1837
 5539TIP3   OH238107   4.843   1.402  13.313  0.2461  0.7280 -0.3270
 5539TIP3    H138108   4.869   1.355  13.392 -2.2579 -0.2427  0.0312
 5539TIP3    H238109   4.834   1.493  13.341 -0.1145  0.4808  0.3858
 5540TIP3   OH238110   6.417   5.510  14.830  0.0547 -0.2188  0.9939
 5540TIP3    H138111   6.336   5.460  14.830  0.0098 -0.2322 -1.1365
 5540TIP3    H238112   6.486   5.445  14.846 -0.2370 -0.4392  1.3578
 5541TIP3   OH238113   2.024   2.290  11.349  0.0033 -0.3477  0.1850
 5541TIP3    H138114   2.039   2.351  11.277 -0.7543  0.1141  0.4065
 5541TIP3    H238115   2.026   2.344  11.428  2.3013 -1.0593  0.6937
 5542TIP3   OH238116   5.561   5.959   4.670  0.5335 -0.0112  0.1696
 5542TIP3    H138117   5.489   6.009   4.708 -0.4569 -0.4587 -1.0653
 5542TIP3    H238118   5.639   5.990   4.717 -0.4228  0.5879  1.4261
 5543TIP3   OH238119   0.739   0.533   5.905  0.6576  0.0155 -0.5572
 5543TIP3    H138120   0.790   0.528   5.986 -2.3752  0.1795  1.5733
 5543TIP3    H238121   0.703   0.445   5.894 -1.3805  0.7020  0.1085
 5544TIP3   OH238122   2.663   6.587  12.499 -0.3645 -0.2604 -0.1456
 5544TIP3    H138123   2.574   6.604  12.529  0.2114  0.8991  1.0494
 5544TIP3    H238124   2.718   6.640  12.557  1.0049  0.3664 -1.9135
 5545TIP3   OH238125   6.702   6.118  10.711  0.1231  0.2673  0.1488
 5545TIP3    H138126   6.727   6.088  10.798  1.2068 -0.6525 -0.4500
 5545TIP3    H238127   6.607   6.105  10.707  0.2807 -1.2331  0.6300
 5546TIP3   OH238128   5.084   3.047  11.760  0.9158 -0.2267 -0.0714
 5546TIP3    H138129   5.015   2.983  11.744  0.9549 -0.6165  1.1879
 5546TIP3    H238130   5.100   3.041  11.854  3.2679 -0.7443 -0.4613
 5547TIP3   OH238131   4.741   6.378  11.904 -0.2999 -0.8020  0.0291
 5547TIP3    H138132   4.742   6.293  11.859  0.2349 -0.1152 -1.3020
 5547TIP3    H238133   4.833   6.404  11.909 -0.5300  0.1769 -0.5260
 5548TIP3   OH238134   2.688   4.516   5.139 -0.0737 -0.1534 -0.4274
 5548TIP3    H138135   2.691   4.607   5.167  0.4307 -0.1344 -0.5372
 5548TIP3    H238136   2.618   4.477   5.191 -0.4137  0.3387 -0.5118
 5549TIP3   OH238137   4.960   0.378  16.225 -0.3428  0.5617  0.3742
 5549TIP3    H138138   4.933   0.287  16.240 -0.2878  0.7915  2.0719
 5549TIP3    H238139   5.029   0.371  16.159  1.5514 -0.9751  2.3603
 5550TIP3   OH238140   3.233   4.397  14.995 -0.3064 -0.4852 -0.4088
 5550TIP3    H138141   3.243   4.463  14.926 -3.6390 -0.0777 -0.6589
 5550TIP3    H238142   3.247   4.313  14.950 -0.8008 -0.1527 -1.2094
 5551TIP3   OH238143   3.080   4.608  12.455  0.0230  0.2355 -0.1777
 5551TIP3    H138144   3.135   4.641  12.525  2.0808  0.9990 -2.0269
 5551TIP3    H238145   3.100   4.514  12.451 -0.0222  0.2103  0.1908
 5552TIP3   OH238146   0.843   0.416   1.387 -0.0754 -0.3926 -0.3232
 5552TIP3    H138147   0.760   0.387   1.426 -0.2917 -0.5047 -0.8517
 5552TIP3    H238148   0.855   0.505   1.419  0.2750 -0.8381  0.8176
 5553TIP3   OH238149   5.240   6.762   1.156  0.2344  0.0849 -0.3314
 5553TIP3    H138150   5.179   6.818   1.204  1.4695 -0.8619  2.5819
 5553TIP3    H238151   5.324   6.806   1.164  0.7994 -1.0119  0.0127
 5554TIP3   OH238152   2.307   2.543  13.121 -0.2219  0.0964  0.1974
 5554TIP3    H138153   2.316   2.587  13.037  1.3133 -1.0479 -0.2660
 5554TIP3    H238154   2.285   2.453  13.099  4.0038 -1.2782  0.7419
 5555TIP3   OH238155   3.085   2.955   3.548 -0.1328  0.4371 -0.2981
 5555TIP3    H138156   3.098   3.043   3.583 -0.4750  0.1657  0.5291
 5555TIP3    H238157   3.148   2.901   3.595 -1.3857 -0.1405  0.7574
 5556TIP3   OH238158   0.790   0.685   0.016  0.0034 -0.1648  0.1042
 5556TIP3    H138159   0.798   0.750   0.086 -1.1136 -0.1657  0.2616
 5556TIP3    H238160   0.803   0.601   0.060 -0.9166 -0.1799  0.3707
 5557TIP3   OH238161   5.490   3.249   4.857 -0.2139  0.1564 -0.5838
 5557TIP3    H138162   5.490   3.158   4.826  0.7858  0.0927 -0.4350
 5557TIP3    H238163   5.416   3.255   4.917  1.6287 -1.4977  2.0536
 5558TIP3   OH238164   0.394   6.346  12.943  0.2180 -0.6875  0.1063
 5558TIP3    H138165   0.412   6.311  12.856  0.0067  0.0337 -0.2437
 5558TIP3    H238166   0.335   6.282  12.983  1.5281 -1.7967  0.3197
 5559TIP3   OH238167   1.893   3.279  13.265 -0.4303 -0.2455  0.5660
 5559TIP3    H138168   1.920   3.337  13.194 -3.6793  0.9340  0.1127
 5559TIP3    H238169   1.872   3.339  13.337 -0.5503 -1.1556  1.3006
 5560TIP3   OH238170   6.518   0.047  15.877 -0.0837 -0.1784 -0.0718
 5560TIP3    H138171   6.511   0.142  15.878 -0.7631 -0.2159  1.1151
 5560TIP3    H238172   6.528   0.024  15.785 -3.6569  0.8105 -0.8316
 5561TIP3   OH238173   6.248   4.440   2.915 -0.1595  0.0855 -0.0632
 5561TIP3    H138174   6.315   4.505   2.932 -1.1358  1.2661 -0.5896
 5561TIP3    H238175   6.171   4.470   2.964 -0.9391 -0.0854 -1.1423
 5562TIP3   OH238176   4.140   5.143  14.270  0.1840 -0.6644  0.4530
 5562TIP3    H138177   4.161   5.122  14.179 -1.0982 -0.2970  0.0409
 5562TIP3    H238178   4.111   5.060  14.308 -0.1456 -0.6432  0.2556
 5563TIP3   OH238179   4.913   3.861   0.871  0.2413  0.3116  0.0210
 5563TIP3    H138180   4.863   3.930   0.828  0.4286 -0.0896 -0.8518
 5563TIP3    H238181   4.899   3.783   0.817  0.6557 -0.1481  0.5625
 5564TIP3   OH238182   6.540   1.814   0.649 -0.0797  0.2345 -0.4200
 5564TIP3    H138183   6.504   1.773   0.727  0.4281  0.9039  0.1778
 5564TIP3    H238184   6.492   1.774   0.576  1.5100 -2.7352 -0.0300
 5565TIP3   OH238185   0.870   4.560   1.159 -0.1543 -0.4097 -0.1811
 5565TIP3    H138186   0.875   4.503   1.082  0.9419  0.8620 -1.1194
 5565TIP3    H238187   0.811   4.631   1.132 -0.4435 -0.3984  0.4694
 5566TIP3   OH238188   6.581   6.070   3.086  0.2706 -0.5131  0.1452
 5566TIP3    H138189   6.539   6.110   3.162 -1.7541  0.9190 -1.5909
 5566TIP3    H238190   6.517   6.006   3.055  1.2723 -1.4183 -0.1318
 5567TIP3   OH238191   6.456   1.323  12.995  0.0181 -0.3340  0.2307
 5567TIP3    H138192   6.411   1.275  13.065  0.7097 -2.2416 -0.5653
 5567TIP3    H238193   6.414   1.292  12.915  1.0512 -0.2521 -0.3602
 5568TIP3   OH238194   3.562   1.375  17.136  1.1479  0.4272 -0.3553
 5568TIP3    H138195   3.541   1.469  17.143 -1.5501  0.0031 -1.3996
 5568TIP3    H238196   3.634   1.362  17.198  0.2848  2.8041  1.3169
 5569TIP3   OH238197   4.521   6.322   2.341  0.8015  0.1208 -0.1723
 5569TIP3    H138198   4.474   6.256   2.391  0.1821 -0.0325 -0.9535
 5569TIP3    H238199   4.505   6.404   2.389 -1.0433  0.2403 -0.9069
 5570TIP3   OH238200   3.529   2.960  11.373  0.0815 -0.1877 -0.5740
 5570TIP3    H138201   3.529   3.039  11.426 -1.4006 -0.2769 -0.3850
 5570TIP3    H238202   3.574   2.984  11.292  1.1051  0.3548  0.1401
 5571TIP3   OH238203   3.099   2.098  15.673  0.4182 -0.2236 -0.1953
 5571TIP3    H138204   3.065   2.034  15.736 -2.0743  1.7899  0.7218
 5571TIP3    H238205   3.184   2.124  15.708  0.0809 -0.8000  1.1103
 5572TIP3   OH238206   4.312   2.800   4.008  0.1561  0.3868  0.0848
 5572TIP3    H138207   4.259   2.851   3.946 -2.2067 -1.3561  0.5528
 5572TIP3    H238208   4.295   2.709   3.985  2.3309 -0.2604  0.8471
 5573TIP3   OH238209   0.535   3.396   2.399  0.2667 -0.1190  0.4986
 5573TIP3    H138210   0.500   3.429   2.317 -1.2020 -0.2635  1.0466
 5573TIP3    H238211   0.616   3.351   2.374  0.2889  0.5745 -0.7403
 5574TIP3   OH238212   5.468   1.518  11.843  0.6553  0.1790  0.4552
 5574TIP3    H138213   5.519   1.535  11.922 -0.6181 -0.0145  1.3487
 5574TIP3    H238214   5.506   1.437  11.808  1.9576  0.8695  0.2316
 5575TIP3   OH238215   0.153   5.517   5.871  0.2952  0.2813 -0.3234
 5575TIP3    H138216   0.157   5.437   5.818  0.1341 -0.8904  1.3485
 5575TIP3    H238217   0.190   5.585   5.815  0.8545 -1.0506 -1.6424
 5576TIP3   OH238218   0.741   2.491  12.339 -0.2672  0.3615 -0.0051
 5576TIP3    H138219   0.760   2.488  12.432 -2.9027 -0.7639  0.5848
 5576TIP3    H238220   0.780   2.411  12.303 -1.1774 -0.3651  0.5870
 5577TIP3   OH238221   6.124   2.353  14.381  0.1003  0.0853  0.0486
 5577TIP3    H138222   6.039   2.319  14.352 -0.5787  0.4498  1.5089
 5577TIP3    H238223   6.102   2.410  14.454  1.7517 -1.1503  1.5765
 5578TIP3   OH238224   4.512   0.727   0.933  0.7604 -0.2295  0.1047
 5578TIP3    H138225   4.517   0.823   0.929 -0.5899 -0.0833  1.2556
 5578TIP3    H238226   4.454   0.703   0.861 -0.9209  0.0652  1.2978
 5579TIP3   OH238227   1.277   2.480   3.347  0.1441 -0.1245 -0.2335
 5579TIP3    H138228   1.207   2.428   3.307  0.0105 -1.1955  1.2877
 5579TIP3    H238229   1.247   2.570   3.342 -0.2119 -0.3017 -1.7954
 5580TIP3   OH238230   6.113   0.619   5.190 -1.1275 -0.1579  0.7953
 5580TIP3    H138231   6.151   0.532   5.176  0.8344  0.4897  1.6803
 5580TIP3    H238232   6.178   0.679   5.154 -2.6411  0.9622 -0.1683
 5581TIP3   OH238233   4.079   5.691  16.982  0.6753  0.4981  0.0990
 5581TIP3    H138234   4.034   5.689  16.898 -4.0478  0.7368  2.3161
 5581TIP3    H238235   4.080   5.599  17.010 -0.4740  0.7143  0.9398
 5582TIP3   OH238236   2.887   0.104   6.539 -0.0333  0.5652 -0.0259
 5582TIP3    H138237   2.903   0.161   6.464 -1.7805  0.1720 -0.7486
 5582TIP3    H238238   2.926   0.020   6.515 -0.2889  0.5384 -0.3482
 5583TIP3   OH238239   0.459   4.723   3.022 -0.7698 -0.0424  0.0577
 5583TIP3    H138240   0.464   4.645   2.966 -3.0515  0.6861 -1.3172
 5583TIP3    H238241   0.462   4.796   2.960  0.3566  0.9520  1.2464
 5584TIP3   OH238242   0.006   5.359   2.152 -0.1689  0.5288  0.1863
 5584TIP3    H138243   0.016   5.272   2.192  0.6903 -0.6517 -2.3263
 5584TIP3    H238244  -0.031   5.413   2.221 -1.3548 -1.9917  1.6982
 5585TIP3   OH238245   3.345   3.218  11.430  0.0038 -0.4062  0.0452
 5585TIP3    H138246   3.274   3.171  11.471  0.1615  0.4633  1.3662
 5585TIP3    H238247   3.420   3.206  11.489  0.4433  0.2316 -0.3649
 5586TIP3   OH238248   0.094   2.853   0.701  0.2195 -0.3054  0.3509
 5586TIP3    H138249   0.077   2.918   0.634 -0.3432  0.1105  0.8849
 5586TIP3    H238250   0.103   2.770   0.653  1.6977  0.2465 -0.4118
 5587TIP3   OH238251   5.631   6.694  12.151  0.0789  0.0510  0.7911
 5587TIP3    H138252   5.721   6.691  12.183  1.0683  4.1627 -0.9676
 5587TIP3    H238253   5.639   6.723  12.060 -3.0075 -1.9724 -0.2984
 5588TIP3   OH238254   1.286   3.918   3.088  0.0673 -0.2237 -0.7169
 5588TIP3    H138255   1.246   3.883   3.008 -0.2149  0.7980 -1.0374
 5588TIP3    H238256   1.248   3.867   3.159 -2.2827  1.0651 -0.9591
 5589TIP3   OH238257   4.082   3.526  15.396  0.2608  0.1367 -0.3646
 5589TIP3    H138258   4.147   3.466  15.433  0.4613  1.0002  0.7447
 5589TIP3    H238259   4.000   3.478  15.398  0.4881 -0.2306  0.1714
 5590TIP3   OH238260   1.091   4.825  12.508 -0.0191 -0.6604 -0.8647
 5590TIP3    H138261   1.028   4.888  12.471  1.2879  0.4716 -1.2252
 5590TIP3    H238262   1.122   4.775  12.433  0.7584 -0.0710 -0.9417
 5591TIP3   OH238263   3.130   6.128   2.712 -0.4997  0.3591 -0.0291
 5591TIP3    H138264   3.193   6.200   2.718 -1.5950  1.2956  0.8551
 5591TIP3    H238265   3.126   6.107   2.619 -0.2513  1.5631 -0.3329
 5592TIP3   OH238266   2.672   3.814  14.313 -0.3406 -0.2747 -0.3109
 5592TIP3    H138267   2.703   3.885  14.368 -0.6293 -1.2265  1.1391
 5592TIP3    H238268   2.578   3.829  14.305  0.0050  1.1188 -2.4860
 5593TIP3   OH238269   6.637   5.755   1.185 -0.4127 -0.0840  0.3659
 5593TIP3    H138270   6.555   5.709   1.203 -0.8707  0.5331 -0.1095
 5593TIP3    H238271   6.705   5.687   1.191 -1.0086 -0.6972  0.2516
 5594TIP3   OH238272   0.481   5.101   1.506  0.0060 -0.4438  0.2757
 5594TIP3    H138273   0.393   5.134   1.522  0.1978  0.1362  0.1417
 5594TIP3    H238274   0.469   5.031   1.442 -0.1830  0.7941 -1.0908
 5595TIP3   OH238275   3.224   2.483  15.725 -0.0928  0.1135 -0.3810
 5595TIP3    H138276   3.262   2.503  15.810 -0.0533  1.0005 -0.5964
 5595TIP3    H238277   3.283   2.418  15.686  1.1034  1.2922 -0.6147
 5596TIP3   OH238278   5.636   4.769  15.838 -0.0800  0.0226  0.2032
 5596TIP3    H138279   5.611   4.698  15.778 -1.6490  1.0976 -0.4833
 5596TIP3    H238280   5.683   4.725  15.909 -1.1809 -1.7459 -0.0940
 5597TIP3   OH238281   3.234   1.725   1.045 -0.2384  0.4441  0.3854
 5597TIP3    H138282   3.252   1.801   1.099 -3.1544  0.6764  1.2146
 5597TIP3    H238283   3.205   1.762   0.961 -2.6981  0.4252  1.1303
 5598TIP3   OH238284   3.645   2.857  16.396  0.2121 -0.0495  0.5565
 5598TIP3    H138285   3.699   2.787  16.434  1.5084  1.6873  2.0724
 5598TIP3    H238286   3.585   2.882  16.466 -0.3165  0.2825 -0.0113
 5599TIP3   OH238287   3.337   6.172  12.601  0.0422 -0.5103 -0.2893
 5599TIP3    H138288   3.364   6.206  12.515 -1.0869 -1.3241 -1.0063
 5599TIP3    H238289   3.244   6.152  12.590 -0.1183 -0.6503  1.1376
 5600TIP3   OH238290   5.745   0.663   2.468 -0.0008  0.2090 -0.2460
 5600TIP3    H138291   5.824   0.717   2.460 -1.1708  2.2423  0.9714
 5600TIP3    H238292   5.689   0.693   2.396 -0.4135  0.1856  0.0617
 5601TIP3   OH238293   1.777   5.444  11.560  0.0241  0.0794  0.0635
 5601TIP3    H138294   1.775   5.437  11.655  0.3207 -0.3817  0.0399
 5601TIP3    H238295   1.855   5.495  11.541  0.9517 -1.3012  0.0033
 5602TIP3   OH238296   6.049   2.878   0.510 -0.0957 -0.1194  0.0096
 5602TIP3    H138297   6.001   2.844   0.434  0.5223 -1.2421  0.1074
 5602TIP3    H238298   6.137   2.843   0.500  0.2617  0.5593  0.7209
 5603TIP3   OH238299   1.763   2.567   2.368 -0.2135 -0.1404  0.3255
 5603TIP3    H138300   1.672   2.584   2.342 -0.7242  0.9345  2.5407
 5603TIP3    H238301   1.802   2.654   2.376  0.6820 -0.5502  0.5258
 5604TIP3   OH238302   0.282   0.204   0.258 -0.1930 -0.0754 -0.0706
 5604TIP3    H138303   0.209   0.148   0.285  0.5182 -1.0592 -0.1355
 5604TIP3    H238304   0.253   0.242   0.175 -0.8065 -0.1157  0.1198
 5605TIP3   OH238305   1.843   2.164   2.651  0.5811 -0.1197 -0.5924
 5605TIP3    H138306   1.873   2.242   2.605  0.9501 -1.2062 -2.2783
 5605TIP3    H238307   1.754   2.186   2.680  1.1381  1.3536  0.0940
 5606TIP3   OH238308   1.697   5.458  13.210  0.0289 -0.1665 -0.0069
 5606TIP3    H138309   1.707   5.548  13.241  0.9027 -1.1253  2.7165
 5606TIP3    H238310   1.649   5.413  13.279 -1.3983 -1.6065 -1.7999
 5607TIP3   OH238311   6.589   0.374   6.821 -0.5257 -0.0016 -0.3607
 5607TIP3    H138312   6.560   0.397   6.733 -2.1156 -1.1310 -0.1729
 5607TIP3    H238313   6.556   0.285   6.835 -0.2374  0.1244  1.3534
 5608TIP3   OH238314   3.568   0.274   3.106  0.4992 -0.0538  0.5285
 5608TIP3    H138315   3.490   0.290   3.053  0.9348 -1.5072 -0.6131
 5608TIP3    H238316   3.534   0.268   3.196 -0.6613 -0.3432  0.0918
 5609TIP3   OH238317   3.531   6.167  10.123 -0.6713  0.2957 -0.1133
 5609TIP3    H138318   3.557   6.095  10.066 -2.2707 -1.2109  0.9639
 5609TIP3    H238319   3.437   6.176  10.109 -0.5077  2.2607 -0.2648
 5610TIP3   OH238320   1.606   0.536  16.152 -0.3144  0.0638 -0.3924
 5610TIP3    H138321   1.668   0.486  16.205  0.8936 -0.8735 -2.5699
 5610TIP3    H238322   1.520   0.508  16.183  0.3363 -2.0702 -0.3284
 5611TIP3   OH238323   1.171   5.185  16.475  0.0242 -0.0642 -0.3815
 5611TIP3    H138324   1.218   5.268  16.470  2.2371 -1.1079  1.2172
 5611TIP3    H238325   1.224   5.124  16.425 -0.6218 -0.9104 -0.0659
 5612TIP3   OH238326   5.641   5.716  12.785  0.2524  0.2540 -0.9034
 5612TIP3    H138327   5.663   5.793  12.732  0.2247  0.6443 -0.3583
 5612TIP3    H238328   5.720   5.662  12.783  2.0532  2.4431  2.4585
 5613TIP3   OH238329   0.850   4.938   3.228 -0.0223 -0.7422 -0.0091
 5613TIP3    H138330   0.940   4.943   3.194 -0.0944 -1.3487 -0.3026
 5613TIP3    H238331   0.803   4.885   3.163 -0.6281 -0.3178  0.0739
 5614TIP3   OH238332   0.515   2.202   3.754 -0.0515 -0.6867 -0.4320
 5614TIP3    H138333   0.518   2.246   3.669 -1.3094 -0.4020 -0.3563
 5614TIP3    H238334   0.442   2.140   3.747 -1.3005  0.5207  0.9419
 5615TIP3   OH238335   4.494   0.787   6.695  0.1918  0.0148 -0.0351
 5615TIP3    H138336   4.475   0.694   6.701  2.1816 -0.4766 -0.6556
 5615TIP3    H238337   4.528   0.799   6.607 -0.3262  1.4086 -0.0728
 5616TIP3   OH238338   3.352   6.039  11.445  0.0226  0.3433  0.1834
 5616TIP3    H138339   3.324   6.129  11.424  0.0807  0.3554  0.1579
 5616TIP3    H238340   3.441   6.050  11.480  0.2031  0.2515 -0.2423
 5617TIP3   OH238341   3.598   5.817   1.491  0.2866 -0.1883  0.6588
 5617TIP3    H138342   3.565   5.730   1.468  0.7116 -0.6125  1.5897
 5617TIP3    H238343   3.563   5.834   1.578  0.0795  0.6501  0.4185
 5618TIP3   OH238344   0.775   1.453   5.720  0.1051  0.3735 -0.0836
 5618TIP3    H138345   0.693   1.450   5.669  2.1033 -2.4089 -3.5940
 5618TIP3    H238346   0.772   1.374   5.774  0.1836  0.6961  0.4019
 5619TIP3   OH238347   3.640   6.585   3.342  0.0892 -0.7472 -0.4392
 5619TIP3    H138348   3.691   6.556   3.418 -0.7674 -0.6657  0.1758
 5619TIP3    H238349   3.610   6.672   3.365  0.8363 -0.2147 -1.3928
 5620TIP3   OH238350   2.680   6.284   5.793  0.4753 -0.2479 -0.2441
 5620TIP3    H138351   2.738   6.355   5.821  1.2190 -1.0631  0.3466
 5620TIP3    H238352   2.630   6.261   5.872  1.3750 -1.4259  0.0023
 5621TIP3   OH238353   5.235   3.275  11.700  0.0900 -0.1998 -0.1185
 5621TIP3    H138354   5.196   3.189  11.716  0.7537 -0.2214  1.5491
 5621TIP3    H238355   5.319   3.256  11.658 -0.4548 -0.2645 -1.2279
 5622TIP3   OH238356   3.938   4.350  13.472 -0.1492 -0.0647 -0.5266
 5622TIP3    H138357   3.985   4.322  13.394 -2.5448 -0.5781 -1.8776
 5622TIP3    H238358   3.922   4.443  13.459  0.0140 -0.0077 -0.3285
 5623TIP3   OH238359   1.951   4.210   5.273  0.7789  0.4018 -0.0411
 5623TIP3    H138360   1.919   4.291   5.311  4.1173  1.7097  0.3161
 5623TIP3    H238361   2.027   4.187   5.326  0.1100 -2.8857 -0.2843
 5624TIP3   OH238362   1.475   0.827   4.522  0.0164 -0.4041  0.0202
 5624TIP3    H138363   1.522   0.813   4.440  0.9598  0.8610  0.3173
 5624TIP3    H238364   1.383   0.811   4.500  0.4229 -1.5396 -0.9116
 5625TIP3   OH238365   1.039   1.097   0.782 -0.1923 -0.0907  0.0887
 5625TIP3    H138366   1.119   1.130   0.743  1.9041 -1.4506  2.8922
 5625TIP3    H238367   1.023   1.013   0.737 -0.5652  0.5584 -1.0284
 5626TIP3   OH238368   4.150   4.315  11.914 -0.3858  0.4486 -0.1944
 5626TIP3    H138369   4.163   4.388  11.975 -0.5715 -0.1549  0.5806
 5626TIP3    H238370   4.119   4.243  11.969 -1.6567  0.2243 -1.1773
 5627TIP3   OH238371   4.435   1.460  12.508  0.5073  0.0861 -0.2881
 5627TIP3    H138372   4.496   1.528  12.480  0.1484 -0.0932 -1.5943
 5627TIP3    H238373   4.457   1.384  12.453 -1.7280  0.4396 -1.8070
 5628TIP3   OH238374   1.400   5.168   0.876 -0.5985 -0.0144  0.4140
 5628TIP3    H138375   1.488   5.149   0.907 -0.2688 -0.2198 -0.5974
 5628TIP3    H238376   1.350   5.089   0.894 -0.1143 -0.5730 -0.6093
 5629TIP3   OH238377   1.213   2.394  14.135  0.4576  0.2171 -0.1863
 5629TIP3    H138378   1.165   2.440  14.067  1.2692  0.4013 -0.6431
 5629TIP3    H238379   1.171   2.308  14.140  0.2220  0.2982 -0.7301
 5630TIP3   OH238380   0.013   1.301   4.026 -0.4033  0.0352 -0.5272
 5630TIP3    H138381   0.068   1.283   3.950 -0.7377  1.1560 -1.0531
 5630TIP3    H238382   0.050   1.381   4.064  0.1169 -0.8221  0.8415
 5631TIP3   OH238383   1.571   5.569   2.324  0.1077  0.1290 -0.3300
 5631TIP3    H138384   1.536   5.525   2.248 -1.8517  0.9887  0.0072
 5631TIP3    H238385   1.591   5.499   2.386 -1.3650 -0.3949 -0.4217
 5632TIP3   OH238386   6.542   0.424   5.660  0.5277 -0.6402 -0.2133
 5632TIP3    H138387   6.581   0.453   5.743  0.9726  0.3157 -0.7364
 5632TIP3    H238388   6.546   0.501   5.604  1.1902 -1.5489 -1.4708
 5633TIP3   OH238389   3.397   5.726  11.858 -0.1231 -0.0109 -0.5061
 5633TIP3    H138390   3.360   5.638  11.845 -0.1078  0.1472 -1.6523
 5633TIP3    H238391   3.338   5.784  11.811  0.5380  0.4548 -0.7727
 5634TIP3   OH238392   6.196   1.992  14.870  0.4637 -0.0957  0.2344
 5634TIP3    H138393   6.222   2.002  14.961 -0.2232 -0.9234  0.5378
 5634TIP3    H238394   6.100   1.984  14.874  0.5563 -1.9379 -0.3674
 5635TIP3   OH238395   4.869   1.034  13.826 -0.2278  0.4861 -0.3366
 5635TIP3    H138396   4.963   1.043  13.812 -0.3026 -0.0061 -1.2240
 5635TIP3    H238397   4.838   1.124  13.835  0.0981  0.7511 -1.6735
 5636TIP3   OH238398   0.999   1.482   0.958  0.0721  0.6242  0.1610
 5636TIP3    H138399   0.934   1.467   0.889  0.6246 -0.3933 -0.1452
 5636TIP3    H238400   0.977   1.419   1.027 -0.3384  1.4792  0.8424
 5637TIP3   OH238401   5.506   5.730  17.098 -0.8193 -0.1088  0.2517
 5637TIP3    H138402   5.492   5.752  17.005 -1.4344  0.1755  0.4096
 5637TIP3    H238403   5.574   5.792  17.126  0.1889 -0.9342 -0.2923
 5638TIP3   OH238404   0.488   3.114   0.878  0.1413  0.2477 -0.1866
 5638TIP3    H138405   0.542   3.181   0.921 -0.1729  0.3182  0.1052
 5638TIP3    H238406   0.469   3.051   0.948 -1.6014  1.1146  0.1797
 5639TIP3   OH238407   1.851   5.300   2.577 -0.0653  0.3942  0.1475
 5639TIP3    H138408   1.946   5.287   2.573 -0.1360  0.0264 -0.3481
 5639TIP3    H238409   1.821   5.238   2.643  0.3186  2.1645  2.1197
 5640TIP3   OH238410   5.909   2.945   6.630 -0.6232 -0.2000  0.4832
 5640TIP3    H138411   5.817   2.935   6.653 -1.0505 -0.3596 -1.1644
 5640TIP3    H238412   5.947   2.858   6.642 -0.9245 -0.3732  0.1824
 5641TIP3   OH238413   1.877   3.390  11.495 -0.0206  0.3687 -0.4789
 5641TIP3    H138414   1.860   3.435  11.578 -0.1812 -0.5078 -0.0207
 5641TIP3    H238415   1.939   3.446  11.449  0.4449  0.6393  0.4509
 5642TIP3   OH238416   2.531   2.124  17.215 -0.5608  0.0877  0.0659
 5642TIP3    H138417   2.455   2.076  17.247 -0.1297 -0.5248  0.1800
 5642TIP3    H238418   2.520   2.125  17.120  0.3776 -1.8938 -0.1023
 5643TIP3   OH238419   0.182   3.557  11.948 -0.0041 -0.6297  0.1492
 5643TIP3    H138420   0.165   3.630  12.008 -0.0469  0.3447 -1.0054
 5643TIP3    H238421   0.277   3.552  11.943 -0.0007 -0.4939  0.0569
 5644TIP3   OH238422   3.969   3.966   5.908  0.1066 -0.2508  0.5683
 5644TIP3    H138423   3.900   3.938   5.969 -0.8350  0.6488 -0.0371
 5644TIP3    H238424   3.976   4.060   5.922 -0.7141  0.1320 -1.2410
 5645TIP3   OH238425   1.534   2.051  13.146 -0.3184  0.5465  0.3888
 5645TIP3    H138426   1.526   2.130  13.199 -0.7460 -0.0900  1.2973
 5645TIP3    H238427   1.577   2.080  13.065  0.8178  1.4444  1.2839
 5646TIP3   OH238428   3.839   6.670   1.613 -0.2036  0.0465  0.2530
 5646TIP3    H138429   3.855   6.639   1.702  2.6259 -2.9310 -1.0706
 5646TIP3    H238430   3.899   6.743   1.601  0.3884 -0.3960  0.4419
 5647TIP3   OH238431   4.202   4.695  14.642  0.2147 -0.1920  0.2039
 5647TIP3    H138432   4.157   4.773  14.610 -0.6574 -1.2889 -1.3539
 5647TIP3    H238433   4.166   4.681  14.730 -1.5658 -0.2599 -0.4826
 5648TIP3   OH238434   4.759   5.755   0.094  0.3564 -0.1227 -0.5491
 5648TIP3    H138435   4.826   5.739   0.161 -0.9384  0.5473  0.9764
 5648TIP3    H238436   4.687   5.797   0.142 -0.4620  0.7657 -2.4542
 5649TIP3   OH238437   0.035   5.599   4.142  0.5697 -0.1926  0.3323
 5649TIP3    H138438   0.068   5.610   4.053 -3.0085 -0.8291 -1.2256
 5649TIP3    H238439   0.008   5.688   4.168  1.9721  0.0630  1.0087
 5650TIP3   OH238440   4.091   1.148  11.974  0.3909  0.1711  0.7009
 5650TIP3    H138441   4.058   1.141  12.064  0.2235 -1.0999  0.5670
 5650TIP3    H238442   4.167   1.205  11.980  0.4542  0.0015  1.6778
 5651TIP3   OH238443   6.176   1.231  17.002 -0.0506 -0.7176 -0.4178
 5651TIP3    H138444   6.115   1.231  17.076 -0.4353 -0.3027 -0.7272
 5651TIP3    H238445   6.171   1.321  16.968  0.9696 -0.5881 -0.2526
 5652TIP3   OH238446   2.756   2.893  16.402  0.2552 -0.1303 -0.0537
 5652TIP3    H138447   2.772   2.901  16.496 -1.5832  0.7637  0.2265
 5652TIP3    H238448   2.784   2.805  16.380  2.4113  0.2347  0.9514
 5653TIP3   OH238449   6.621   5.289   5.790  0.5099  0.5134 -0.0514
 5653TIP3    H138450   6.662   5.367   5.826  1.3635 -0.2702  0.7520
 5653TIP3    H238451   6.682   5.218   5.811 -1.5376 -0.8260  1.8558
 5654TIP3   OH238452   2.091   2.160   3.476  0.2431 -0.2437 -0.1056
 5654TIP3    H138453   1.998   2.166   3.454  0.5012 -1.8645 -1.9976
 5654TIP3    H238454   2.135   2.211   3.407  0.7748  0.4571  0.7368
 5655TIP3   OH238455   1.911   2.105  15.179  0.3120 -0.1536 -0.0147
 5655TIP3    H138456   1.821   2.100  15.211  0.2914 -0.3840 -0.1027
 5655TIP3    H238457   1.915   2.188  15.131  0.4329  0.3562  0.8432
 5656TIP3   OH238458   4.116   2.235   1.372 -0.1767  0.1944  0.3700
 5656TIP3    H138459   4.108   2.143   1.398  0.4350 -0.0408 -0.2127
 5656TIP3    H238460   4.146   2.231   1.281  1.0209  0.9539  0.7023
 5657TIP3   OH238461   0.571   4.764  14.749  0.3986  0.2582  0.4380
 5657TIP3    H138462   0.659   4.729  14.759  0.4500  0.7956  2.3822
 5657TIP3    H238463   0.585   4.855  14.720  0.3562 -0.3948 -1.7858
 5658TIP3   OH238464   2.266   2.006   0.428  0.2986 -0.1329 -0.1099
 5658TIP3    H138465   2.253   2.007   0.523  0.5075  0.3115 -0.0832
 5658TIP3    H238466   2.356   1.975   0.418  0.2920 -0.1343 -0.1604
 5659TIP3   OH238467   4.354   0.321  14.926  0.1182 -0.2499 -0.0668
 5659TIP3    H138468   4.334   0.238  14.883  1.2741 -0.4339 -0.2724
 5659TIP3    H238469   4.427   0.357  14.875  0.0350  0.5963  0.3992
 5660TIP3   OH238470   0.295   5.580  16.266 -0.0109 -0.4427 -0.3386
 5660TIP3    H138471   0.223   5.535  16.221  1.3899 -2.7885 -0.4338
 5660TIP3    H238472   0.291   5.547  16.356 -0.2061  0.9261  0.1751
 5661TIP3   OH238473   0.237   3.748   0.152 -0.2582  0.1216  0.6755
 5661TIP3    H138474   0.162   3.723   0.098  0.1590 -3.2511  1.3985
 5661TIP3    H238475   0.204   3.744   0.242  0.5228 -0.5054  0.9486
 5662TIP3   OH238476   3.836   5.137   1.417  0.6609 -0.2969 -0.4218
 5662TIP3    H138477   3.900   5.096   1.475 -0.0886  0.9386  1.3661
 5662TIP3    H238478   3.808   5.216   1.464 -2.7176 -1.1541 -0.7481
 5663TIP3   OH238479   1.781   3.929   0.589  0.3317  0.0504  0.2696
 5663TIP3    H138480   1.693   3.964   0.574  0.4433 -0.0049 -0.5701
 5663TIP3    H238481   1.840   3.996   0.555  0.5678 -0.5723 -0.5976
 5664TIP3   OH238482   6.285   3.776   6.277  0.7082  0.5203 -0.5738
 5664TIP3    H138483   6.316   3.776   6.368  1.8166  0.5328 -0.9417
 5664TIP3    H238484   6.316   3.693   6.241 -0.0040  0.3701 -0.8635
 5665TIP3   OH238485   4.152   6.759   4.840  0.0896  0.3645 -0.1497
 5665TIP3    H138486   4.245   6.769   4.857  0.3143  2.3435 -2.0787
 5665TIP3    H238487   4.122   6.696   4.905  3.0780 -1.6582 -0.5165
 5666TIP3   OH238488   0.901   1.216   3.520  0.1896 -0.0861 -0.1358
 5666TIP3    H138489   0.997   1.226   3.515  0.2747 -1.1233 -1.0058
 5666TIP3    H238490   0.888   1.139   3.576 -0.0878 -0.5369 -0.8061
 5667TIP3   OH238491   6.080   4.916  13.638  0.1224 -0.3035 -0.2111
 5667TIP3    H138492   6.109   4.888  13.551  0.3431 -0.0886 -0.2048
 5667TIP3    H238493   6.028   4.842  13.670 -0.8510  0.0270 -0.9619
 5668TIP3   OH238494   0.840   0.875   4.441  0.1221 -0.3817 -0.7300
 5668TIP3    H138495   0.784   0.797   4.436 -1.3733  0.6234 -0.3299
 5668TIP3    H238496   0.861   0.884   4.534  0.0033 -0.1121 -0.7290
 5669TIP3   OH238497   0.725   1.580   6.041  0.5637 -0.0857  0.1380
 5669TIP3    H138498   0.701   1.627   6.120  0.4928  0.4539 -0.1995
 5669TIP3    H238499   0.650   1.591   5.983  0.9694  0.2671 -0.3279
 5670TIP3   OH238500   2.787   3.031  14.106  0.0808 -0.0807 -0.0479
 5670TIP3    H138501   2.754   2.942  14.119  0.6346 -0.5625 -1.7135
 5670TIP3    H238502   2.711   3.081  14.076  0.2889 -0.6499 -1.6487
 5671TIP3   OH238503   6.347   1.200  12.746 -0.3684  0.3574 -0.0121
 5671TIP3    H138504   6.334   1.232  12.657  0.7414  1.1727  0.0945
 5671TIP3    H238505   6.403   1.123  12.736  0.9946  1.3031  0.0539
 5672TIP3   OH238506   0.384   4.409  10.614 -0.1541 -0.5358  0.4133
 5672TIP3    H138507   0.389   4.323  10.657 -1.5232 -0.7900  0.1248
 5672TIP3    H238508   0.355   4.390  10.525 -0.5813  0.2349  0.3806
 5673TIP3   OH238509   5.229   1.606   1.174 -0.8703  0.0049  0.2065
 5673TIP3    H138510   5.232   1.632   1.082 -0.7466 -0.3569  0.1053
 5673TIP3    H238511   5.321   1.605   1.202 -0.9917  1.3732  0.7003
 5674TIP3   OH238512   6.824   2.853   0.965  0.3922 -0.0065  0.4621
 5674TIP3    H138513   6.873   2.889   0.891  0.0703 -1.5646 -0.5438
 5674TIP3    H238514   6.862   2.896   1.042  0.7750  1.6104 -0.5744
 5675TIP3   OH238515   1.150   2.529   2.883 -0.8213 -0.1665  0.4876
 5675TIP3    H138516   1.122   2.439   2.899 -0.0133 -0.1432  2.2735
 5675TIP3    H238517   1.203   2.524   2.804 -2.0839 -0.9657 -0.3405
 5676TIP3   OH238518   0.262   5.019   6.819  1.4126  0.1930  0.7602
 5676TIP3    H138519   0.240   5.098   6.868 -0.1065 -0.1730  0.7027
 5676TIP3    H238520   0.310   4.964   6.881  3.3354  1.5194  0.5238
 5677TIP3   OH238521   5.653   2.912   6.739 -0.0617 -0.0589 -0.5947
 5677TIP3    H138522   5.591   2.856   6.785 -0.1092 -0.9472 -1.6938
 5677TIP3    H238523   5.624   3.001   6.760 -1.8278 -0.4482 -1.1908
 5678TIP3   OH238524   3.364   4.586  15.448 -0.2992 -0.7797  0.1064
 5678TIP3    H138525   3.297   4.559  15.386  0.3786 -1.0843 -0.5069
 5678TIP3    H238526   3.374   4.511  15.507  0.2858 -1.1901 -0.4903
 5679TIP3   OH238527   5.369   4.646   3.482  0.5439  0.3464 -0.2859
 5679TIP3    H138528   5.423   4.615   3.555  0.7740  0.6375 -0.3324
 5679TIP3    H238529   5.366   4.741   3.492  1.3557  0.4817 -1.1783
 5680TIP3   OH238530   2.838   4.049  15.805 -0.5225 -0.2514 -0.0485
 5680TIP3    H138531   2.757   3.999  15.801 -0.1881 -0.7205 -1.5789
 5680TIP3    H238532   2.858   4.055  15.899 -1.5435 -1.3923  0.2629
 5681TIP3   OH238533   4.741   0.478  14.560 -0.0286  0.0900  0.2273
 5681TIP3    H138534   4.791   0.464  14.480 -0.3448 -1.5778  0.2834
 5681TIP3    H238535   4.802   0.521  14.620  0.9121 -0.6742 -0.1591
 5682TIP3   OH238536   1.828   4.604   2.863 -0.5649 -0.9269  0.2327
 5682TIP3    H138537   1.733   4.607   2.853 -0.6654  1.2544  1.4095
 5682TIP3    H238538   1.857   4.695   2.856  1.3715 -1.4483  0.6259
 5683TIP3   OH238539   4.294   1.782  11.728  0.4435 -0.7650 -0.0832
 5683TIP3    H138540   4.335   1.867  11.713  1.6063 -1.2110  0.4266
 5683TIP3    H238541   4.245   1.765  11.648 -1.9588  1.5037  0.7518
 5684TIP3   OH238542   6.684   6.448   2.246 -0.4513 -0.1658 -0.0308
 5684TIP3    H138543   6.754   6.499   2.205  0.5705 -1.2415  0.3207
 5684TIP3    H238544   6.678   6.369   2.193  1.4970 -2.0031  2.2664
 5685TIP3   OH238545   3.787   5.225   0.830 -0.3183  0.1159 -0.8311
 5685TIP3    H138546   3.779   5.193   0.920  3.1076 -0.4075 -0.5708
 5685TIP3    H238547   3.771   5.147   0.776 -0.6929  0.0299 -0.5986
 5686TIP3   OH238548   2.338   4.945  11.065 -0.5387 -0.1257 -0.0159
 5686TIP3    H138549   2.260   5.000  11.063  0.6302  1.6219 -0.6464
 5686TIP3    H238550   2.309   4.859  11.035 -1.7851  1.1311 -2.7356
 5687TIP3   OH238551   1.710   2.842   0.045  0.0186  0.2838  0.5739
 5687TIP3    H138552   1.710   2.839   0.141  1.0671  3.9651  0.8419
 5687TIP3    H238553   1.618   2.854   0.021 -0.0580  1.2206  1.2872
 5688TIP3   OH238554   5.361   4.715  12.385  0.1270 -0.1222 -0.2213
 5688TIP3    H138555   5.407   4.640  12.421  1.3643  0.8344  0.2906
 5688TIP3    H238556   5.324   4.685  12.302  1.9204 -0.8743 -0.7836
 5689TIP3   OH238557   3.132   5.043   3.130  0.1305  0.0475 -0.1505
 5689TIP3    H138558   3.086   5.049   3.214  1.0264  2.2724  0.2672
 5689TIP3    H238559   3.090   4.970   3.085  0.2302 -1.8248  2.5632
 5690TIP3   OH238560   2.574   0.845  17.230 -0.6404 -0.2532 -0.1395
 5690TIP3    H138561   2.561   0.908  17.301  0.6170 -0.7311  0.5548
 5690TIP3    H238562   2.488   0.836  17.190 -0.9070  1.7248 -0.1209
 5691TIP3   OH238563   3.218   1.263   2.754  0.0748  0.4902  0.0539
 5691TIP3    H138564   3.239   1.172   2.774 -0.6342  0.5476  1.1629
 5691TIP3    H238565   3.300   1.310   2.766  0.2714  0.1064  0.2153
 5692TIP3   OH238566   0.708   4.350   6.560 -0.3232 -0.3448 -0.4926
 5692TIP3    H138567   0.787   4.405   6.552  1.9611 -3.5576 -2.3174
 5692TIP3    H238568   0.716   4.309   6.646  1.4635 -2.4455 -1.5442
 5693TIP3   OH238569   6.216   4.178   5.000  0.1670  0.3450  0.2410
 5693TIP3    H138570   6.218   4.272   5.015 -0.0351 -0.0860  4.0016
 5693TIP3    H238571   6.142   4.147   5.053 -0.0694 -1.9236 -1.2614
 5694TIP3   OH238572   5.407   1.576  12.451  0.4711  0.1624  0.5034
 5694TIP3    H138573   5.413   1.535  12.365 -0.4194 -0.0149  0.5225
 5694TIP3    H238574   5.465   1.652  12.446  0.2167  0.3045 -0.3414
 5695TIP3   OH238575   6.176   4.389   2.602 -0.5665 -0.1707  0.4717
 5695TIP3    H138576   6.197   4.413   2.693 -1.7938 -2.3151  1.4065
 5695TIP3    H238577   6.157   4.295   2.606 -2.3243  0.0068 -1.7081
 5696TIP3   OH238578   0.166   0.022  11.995 -0.0800 -0.0853 -0.1851
 5696TIP3    H138579   0.075  -0.001  12.013 -0.4292  0.7296 -0.8510
 5696TIP3    H238580   0.217  -0.043  12.044 -1.0032  0.1414  1.1445
 5697TIP3   OH238581   6.566   2.870  13.653  0.0642  0.0548 -0.0220
 5697TIP3    H138582   6.522   2.802  13.603 -0.9111  0.4715  0.2362
 5697TIP3    H238583   6.602   2.929  13.587  2.7253 -1.7477 -0.3162
 5698TIP3   OH238584   0.802   0.622   2.119  0.4380  0.1204  0.4885
 5698TIP3    H138585   0.747   0.559   2.072 -0.3842  1.1716  0.0184
 5698TIP3    H238586   0.774   0.614   2.210  0.5929 -0.4343  0.4954
 5699TIP3   OH238587   4.208   0.605   5.218  0.4317  0.6040  0.4204
 5699TIP3    H138588   4.223   0.601   5.313  1.0879 -2.4689  0.2703
 5699TIP3    H238589   4.135   0.546   5.202 -0.9867  2.5801 -0.8436
 5700TIP3   OH238590   5.388   5.963  12.667 -0.1966  0.2281 -0.1923
 5700TIP3    H138591   5.369   5.900  12.736  0.2144 -1.7679 -1.8072
 5700TIP3    H238592   5.303   6.000  12.644 -0.6235 -0.6125 -0.0157
 5701TIP3   OH238593   1.728   2.813  13.545 -0.7081 -0.3956 -0.2374
 5701TIP3    H138594   1.681   2.878  13.597  0.7511  1.4446 -1.0937
 5701TIP3    H238595   1.661   2.777  13.487 -1.2321  1.9006 -1.1835
 5702TIP3   OH238596   2.518   1.829  10.759 -0.0861  0.2228 -0.2250
 5702TIP3    H138597   2.548   1.779  10.835 -1.1507  1.5116  1.1077
 5702TIP3    H238598   2.434   1.791  10.735 -0.9051  1.3148  0.8002
 5703TIP3   OH238599   6.104   4.908   1.962 -0.3838 -0.1530  0.6627
 5703TIP3    H138600   6.024   4.945   2.000 -1.5411  1.0269 -2.5953
 5703TIP3    H238601   6.077   4.821   1.932 -0.6787  0.4669 -0.9551
 5704TIP3   OH238602   5.367   6.785   3.616 -0.1438  0.5102  0.1773
 5704TIP3    H138603   5.353   6.879   3.610 -2.6210  0.2321  0.6399
 5704TIP3    H238604   5.285   6.750   3.651  1.0135 -1.7378  0.8722
 5705TIP3   OH238605   4.842   2.095   4.023  0.3085 -0.3461 -0.5005
 5705TIP3    H138606   4.850   2.002   4.006  0.7545 -0.4092  0.0274
 5705TIP3    H238607   4.857   2.104   4.118  0.7368  0.3096 -0.6212
 5706TIP3   OH238608   2.836   3.623   1.878  0.0428 -0.2819  0.1396
 5706TIP3    H138609   2.929   3.602   1.879  0.2879  0.6065 -1.0228
 5706TIP3    H238610   2.802   3.588   1.960  1.1457 -1.7177  0.0118
 5707TIP3   OH238611   6.165   5.413  14.872 -0.6611 -0.0345  1.0412
 5707TIP3    H138612   6.129   5.409  14.961 -1.3702 -2.8020  0.7332
 5707TIP3    H238613   6.139   5.330  14.832  0.5547  0.6680 -1.4212
 5708TIP3   OH238614   5.082   0.634  13.839 -0.5528 -0.3378  0.4676
 5708TIP3    H138615   4.988   0.634  13.854 -0.9151 -0.6670 -1.5051
 5708TIP3    H238616   5.107   0.726  13.841 -1.3318 -0.0567 -1.0592
 5709TIP3   OH238617   3.570   2.458  15.859 -0.2409 -0.0151  0.0063
 5709TIP3    H138618   3.568   2.497  15.947  2.4365 -1.1097  0.6539
 5709TIP3    H238619   3.520   2.377  15.868 -1.4974  0.7371  0.0058
 5710TIP3   OH238620   1.477   4.866  16.530 -0.3031 -0.1921  0.0820
 5710TIP3    H138621   1.493   4.783  16.575 -2.4919 -0.1046  1.1318
 5710TIP3    H238622   1.516   4.932  16.587  2.1386 -0.4793 -1.1358
 5711TIP3   OH238623   1.046   3.847  14.595 -0.2436 -0.0102  0.0008
 5711TIP3    H138624   1.031   3.937  14.566  0.1099  0.5151  1.3477
 5711TIP3    H238625   1.138   3.846  14.623 -1.1219  0.2738  3.3492
 5712TIP3   OH238626   2.542   2.398  17.162 -0.1608 -0.1310 -0.2871
 5712TIP3    H138627   2.587   2.316  17.180 -1.4182 -0.5664  1.0664
 5712TIP3    H238628   2.512   2.428  17.248  0.6488  2.0023 -0.6791
 5713TIP3   OH238629   2.141   1.882  12.605  0.1528  0.0371 -0.0364
 5713TIP3    H138630   2.062   1.907  12.653  0.1253 -1.9020  1.0267
 5713TIP3    H238631   2.164   1.796  12.640  1.7158 -0.2389 -1.6088
 5714TIP3   OH238632   3.943   6.225   3.747  0.3188 -0.2814  0.1614
 5714TIP3    H138633   4.012   6.288   3.769  1.4685 -1.5677  0.3570
 5714TIP3    H238634   3.873   6.244   3.810 -0.0150  1.7765 -0.7450
 5715TIP3   OH238635   5.310   3.459   0.359  0.0248 -0.0935  0.1352
 5715TIP3    H138636   5.319   3.453   0.264 -1.4589  1.8633 -0.1899
 5715TIP3    H238637   5.261   3.380   0.383  0.2164 -0.4937 -0.7492
 5716TIP3   OH238638   2.460   2.679   2.866 -0.5378  0.0078 -0.0987
 5716TIP3    H138639   2.498   2.705   2.950 -0.6850  0.9323 -0.3045
 5716TIP3    H238640   2.510   2.727   2.801 -1.4389  0.5143 -0.4363
 5717TIP3   OH238641   0.867   4.222  15.940 -0.1013 -0.4350 -0.5743
 5717TIP3    H138642   0.835   4.149  15.888 -0.7314 -1.2858  0.9572
 5717TIP3    H238643   0.798   4.238  16.004  0.9047  0.1769  0.3958
 5718TIP3   OH238644   6.341   3.847  14.051 -0.4327 -0.6083 -0.6207
 5718TIP3    H138645   6.285   3.780  14.090  0.2336 -0.7626  0.0977
 5718TIP3    H238646   6.402   3.799  13.996  0.1118 -0.6146 -0.0244
 5719TIP3   OH238647   3.371   3.969   5.477 -0.3766 -0.0347 -0.2930
 5719TIP3    H138648   3.444   3.937   5.530  0.6870  2.0280 -0.4170
 5719TIP3    H238649   3.309   3.896   5.476  1.1232 -1.4110  0.8342
 5720TIP3   OH238650   6.486   3.898   2.581 -0.1128 -0.5930 -0.1173
 5720TIP3    H138651   6.577   3.881   2.608 -0.0102 -0.3738 -0.3185
 5720TIP3    H238652   6.442   3.814   2.592 -0.1040 -0.4858  0.8494
 5721TIP3   OH238653   0.095   6.499   4.599  0.1124 -1.2067  0.1050
 5721TIP3    H138654   0.168   6.561   4.595 -0.6887 -0.2685 -0.5828
 5721TIP3    H238655   0.038   6.535   4.667 -0.9578 -0.4751 -1.1408
 5722TIP3   OH238656   0.756   3.195   2.405  0.1166  0.1782 -0.7807
 5722TIP3    H138657   0.733   3.105   2.425 -2.8661  1.0867  0.3347
 5722TIP3    H238658   0.780   3.194   2.312  0.0338 -1.6961 -0.8154
 5723TIP3   OH238659   0.141   3.607   1.587 -0.0430  0.0146 -0.0207
 5723TIP3    H138660   0.076   3.541   1.563  0.0424  0.6839 -2.2737
 5723TIP3    H238661   0.141   3.607   1.683  0.3825 -3.6304  0.0994
 5724TIP3   OH238662   3.211   3.266  14.695  0.0021 -0.4205  0.3147
 5724TIP3    H138663   3.245   3.299  14.612 -1.5033  0.3130 -0.0412
 5724TIP3    H238664   3.159   3.190  14.670 -0.5881 -0.0999  0.5626
 5725TIP3   OH238665   5.097   2.369  13.768  0.5905 -0.7741 -0.1208
 5725TIP3    H138666   5.133   2.286  13.738  1.2632 -0.4035 -0.3348
 5725TIP3    H238667   5.070   2.352  13.859 -0.0037 -1.4417 -0.4151
 5726TIP3   OH238668   5.522   4.564  11.315  0.3982 -0.2624 -0.1309
 5726TIP3    H138669   5.593   4.556  11.252  1.8061  0.9434  1.2280
 5726TIP3    H238670   5.552   4.515  11.392 -0.4754 -0.1940  0.2652
 5727TIP3   OH238671   1.572   2.263   2.697 -0.5188  0.1538 -0.5047
 5727TIP3    H138672   1.506   2.194   2.698 -1.2168  0.7983 -0.7339
 5727TIP3    H238673   1.526   2.340   2.662  0.3741  0.5999 -0.7381
 5728TIP3   OH238674   6.201   0.390   0.927  0.0165  0.0645 -0.0891
 5728TIP3    H138675   6.296   0.400   0.938 -0.2488  0.9377  1.7166
 5728TIP3    H238676   6.178   0.455   0.860  0.8327 -1.0879 -1.5693
 5729TIP3   OH238677   0.293   4.388   1.689  0.2191 -0.1815  0.3005
 5729TIP3    H138678   0.362   4.393   1.755 -0.6340  0.8566  1.1445
 5729TIP3    H238679   0.220   4.346   1.735 -0.3697  0.5213  0.0184
 5730TIP3   OH238680   0.690   4.327  16.945 -0.2205 -0.3512 -0.4268
 5730TIP3    H138681   0.752   4.261  16.912  0.2975  0.1201 -0.4057
 5730TIP3    H238682   0.679   4.305  17.037  0.8375  0.2581 -0.1319
 5731TIP3   OH238683   4.476   3.877  16.650  0.0307 -0.1066 -0.4422
 5731TIP3    H138684   4.428   3.868  16.733 -0.7151 -0.4776 -0.9042
 5731TIP3    H238685   4.567   3.859  16.673  0.1984  2.0071  0.7255
 5732TIP3   OH238686   6.019   2.471   4.512  0.5003  0.4969 -0.6540
 5732TIP3    H138687   6.067   2.554   4.515  1.0559  0.2244 -1.6900
 5732TIP3    H238688   6.034   2.432   4.598  0.7580  1.1708 -0.3827
 5733TIP3   OH238689   2.923   6.072  15.859  0.1051 -0.4352 -0.5205
 5733TIP3    H138690   3.002   6.034  15.899 -0.4772  0.2545  1.3999
 5733TIP3    H238691   2.924   6.163  15.888 -1.9470 -0.6813  0.4648
 5734TIP3   OH238692   5.872   3.733   0.515 -0.0977 -0.0561 -0.2427
 5734TIP3    H138693   5.796   3.760   0.463  0.3369  0.9020 -0.4010
 5734TIP3    H238694   5.837   3.713   0.602 -0.5459  0.2367 -0.3572
 5735TIP3   OH238695   4.065   6.808   2.722 -0.1067  0.6673  0.6387
 5735TIP3    H138696   4.094   6.772   2.806  0.7854 -0.3050 -0.0560
 5735TIP3    H238697   4.092   6.900   2.726  1.1550  0.3126  0.8978
 5736TIP3   OH238698   2.768   5.212   2.513  1.1825  0.4081 -0.2846
 5736TIP3    H138699   2.698   5.211   2.579  1.5418  0.0494  0.0986
 5736TIP3    H238700   2.723   5.200   2.430  0.8612 -0.7519  0.0369
 5737TIP3   OH238701   3.842   5.008   4.245  0.5048  0.8619  0.4298
 5737TIP3    H138702   3.907   4.960   4.297  0.0027 -0.5557 -0.2062
 5737TIP3    H238703   3.847   4.968   4.158 -0.4615  1.4713  0.0815
 5738TIP3   OH238704   3.335   3.985  12.393  0.4858  0.1768  0.4613
 5738TIP3    H138705   3.329   4.003  12.299  0.6106 -0.2548  0.3722
 5738TIP3    H238706   3.365   3.895  12.399  0.7887  0.3056  0.9184
 5739TIP3   OH238707   1.304   6.309   3.681  0.1348 -0.2127  0.4356
 5739TIP3    H138708   1.339   6.355   3.757 -0.8453 -2.3888  2.3650
 5739TIP3    H238709   1.222   6.354   3.662  1.6870  2.0997 -1.2375
 5740TIP3   OH238710   3.561   2.658  16.046  0.1654  0.0226  0.0927
 5740TIP3    H138711   3.528   2.746  16.031  0.3358  0.5897  2.7202
 5740TIP3    H238712   3.494   2.616  16.100  1.0828 -0.7396  0.6659
 5741TIP3   OH238713   5.517   0.593  12.868  1.2289  0.1158  0.0994
 5741TIP3    H138714   5.523   0.523  12.933  1.4397 -2.3984 -2.4347
 5741TIP3    H238715   5.461   0.659  12.909  0.4784 -1.8196  2.4029
 5742TIP3   OH238716   1.852   3.769   4.779 -0.0222 -0.2098 -0.1997
 5742TIP3    H138717   1.855   3.809   4.692 -2.2196  0.9040  0.1653
 5742TIP3    H238718   1.810   3.684   4.766  0.0187 -0.2180 -0.2781
 5743TIP3   OH238719   6.274   2.560  15.032  0.7748  0.1180  0.6877
 5743TIP3    H138720   6.298   2.478  15.076  1.8015 -0.9267 -1.6351
 5743TIP3    H238721   6.206   2.535  14.969  1.4630  0.9015 -0.4070
 5744TIP3   OH238722   5.039   6.762  16.950 -0.2244  0.4208 -0.6311
 5744TIP3    H138723   4.974   6.830  16.932  0.6094  1.1392 -1.0365
 5744TIP3    H238724   5.079   6.788  17.033  1.6323  1.7045 -1.8520
 5745TIP3   OH238725   3.877   3.421  12.248 -0.3520  0.3267  0.0803
 5745TIP3    H138726   3.923   3.393  12.327  0.4543  1.4944  0.0522
 5745TIP3    H238727   3.784   3.420  12.272 -0.2687 -1.1998  0.4165
 5746TIP3   OH238728   3.064   5.511   0.793  0.0199 -0.3151  0.2582
 5746TIP3    H138729   3.070   5.436   0.853  2.2860 -0.7666 -0.4343
 5746TIP3    H238730   3.116   5.484   0.716  2.2608  2.5020  0.6207
 5747TIP3   OH238731   4.587   1.041  13.026  0.7148  0.4585  0.1492
 5747TIP3    H138732   4.541   1.071  13.105 -1.6844 -0.1380 -0.9074
 5747TIP3    H238733   4.648   1.111  13.005 -0.6306  1.9442  0.9685
 5748TIP3   OH238734   4.540   4.946  11.231  0.4367 -0.1681 -0.1628
 5748TIP3    H138735   4.579   4.873  11.182  0.7035 -0.2601  0.1823
 5748TIP3    H238736   4.615   4.994  11.266  0.2643  0.3855 -0.5460
 5749TIP3   OH238737   4.910   0.846  11.792 -0.3076  0.0577 -0.1617
 5749TIP3    H138738   4.943   0.757  11.781 -0.2971  0.2543 -2.0244
 5749TIP3    H238739   4.961   0.882  11.864 -2.9865 -2.6502  3.5077
 5750TIP3   OH238740   5.070   2.733   4.708  0.0448  0.4584 -0.1716
 5750TIP3    H138741   5.020   2.770   4.780  0.7896  0.6684  0.2435
 5750TIP3    H238742   5.150   2.785   4.704  0.5995 -0.3833 -0.3098
 5751TIP3   OH238743   5.088   6.628  14.181  0.2075  0.3251 -0.2644
 5751TIP3    H138744   5.071   6.715  14.217 -0.2160  0.3930 -0.6139
 5751TIP3    H238745   5.132   6.645  14.097 -1.4979  0.2850 -1.2160
 5752TIP3   OH238746   6.668   1.056  11.639  0.0642 -0.0925  0.4186
 5752TIP3    H138747   6.682   1.149  11.652 -0.9017  0.0120  0.7637
 5752TIP3    H238748   6.615   1.049  11.560  2.7626 -0.5480 -1.5042
 5753TIP3   OH238749   6.775   6.373  11.825  0.3910  0.4805  0.3503
 5753TIP3    H138750   6.826   6.454  11.825 -0.1692  0.8458  0.7402
 5753TIP3    H238751   6.706   6.388  11.760  0.5093  0.1694  0.1530
 5754TIP3   OH238752   4.179   4.263  11.222 -0.1442  0.3991 -0.4946
 5754TIP3    H138753   4.171   4.168  11.212  1.9145  0.1946 -0.5145
 5754TIP3    H238754   4.273   4.279  11.224 -0.4525  2.5125 -1.0178
 5755TIP3   OH238755   6.777   4.433  12.519 -0.3787 -0.0933  0.3164
 5755TIP3    H138756   6.779   4.430  12.423  2.5925  0.4667  0.2716
 5755TIP3    H238757   6.717   4.505  12.539  0.3431  0.9863 -1.1979
 5756TIP3   OH238758   0.499   2.587   3.386  0.3136  0.5072 -0.5051
 5756TIP3    H138759   0.488   2.511   3.443 -1.0553  0.3920 -0.8669
 5756TIP3    H238760   0.409   2.614   3.365  0.7460  0.4615 -2.7014
 5757TIP3   OH238761   3.463   2.992  16.244  0.4536 -0.2624  0.7763
 5757TIP3    H138762   3.466   2.982  16.148  0.1388  4.2106  0.1021
 5757TIP3    H238763   3.546   2.956  16.274  2.0379  1.0866 -1.6369
 5758TIP3   OH238764   2.346   1.372   1.433  0.2709  0.0236  0.0546
 5758TIP3    H138765   2.368   1.354   1.524 -1.6156  0.8800  0.7404
 5758TIP3    H238766   2.366   1.291   1.387  2.1684 -0.1127  1.0202
 5759TIP3   OH238767   5.743   1.398   0.907  0.0572 -0.4965  0.2019
 5759TIP3    H138768   5.666   1.377   0.960 -1.1346 -0.6969 -1.5089
 5759TIP3    H238769   5.817   1.371   0.960 -0.9782  0.4998  2.2974
 5760TIP3   OH238770   0.297   6.793   4.363  0.1955  0.1599  0.0783
 5760TIP3    H138771   0.290   6.698   4.371  1.1521  0.1635  1.2622
 5760TIP3    H238772   0.387   6.812   4.391  0.2845  1.3331 -0.9347
 5761TIP3   OH238773   4.204   4.105  16.298  0.1348 -0.2712 -0.1028
 5761TIP3    H138774   4.175   4.192  16.269  1.0989 -0.0702 -0.5081
 5761TIP3    H238775   4.169   4.097  16.387 -3.1452 -1.0399 -1.3321
 5762TIP3   OH238776   5.023   0.976  11.500 -0.2449  0.0962  0.1556
 5762TIP3    H138777   4.983   0.963  11.586 -1.9313  0.5274 -0.5168
 5762TIP3    H238778   5.112   1.006  11.518 -0.6444  0.3753  1.7357
 5763TIP3   OH238779   3.824   4.097   0.656  0.1582 -0.2296 -0.1177
 5763TIP3    H138780   3.839   4.132   0.568  0.1207 -0.0596 -0.0568
 5763TIP3    H238781   3.730   4.078   0.658  0.0027  0.5009  0.1461
 5764TIP3   OH238782   2.942   6.185   1.293  0.5645  0.3377  0.0740
 5764TIP3    H138783   2.952   6.236   1.213  0.4500 -1.2515 -0.9840
 5764TIP3    H238784   2.877   6.119   1.272 -0.1507  0.4464  1.7859
 5765TIP3   OH238785   5.433   6.069  17.144 -0.3903 -0.5653 -0.0299
 5765TIP3    H138786   5.466   5.985  17.113  0.5159 -0.5758  0.9368
 5765TIP3    H238787   5.510   6.116  17.175 -0.6093  1.3480 -2.0970
 5766TIP3   OH238788   6.248   1.894  12.512  0.7515 -0.3819  0.1143
 5766TIP3    H138789   6.205   1.947  12.445  1.0225  0.1554  0.3587
 5766TIP3    H238790   6.219   1.931  12.595  2.3500  0.5713  0.2904
 5767TIP3   OH238791   2.661   2.501   0.887 -0.3841 -0.4013  0.4635
 5767TIP3    H138792   2.632   2.523   0.976 -1.7447 -0.7164  0.1162
 5767TIP3    H238793   2.609   2.558   0.831 -0.2036 -0.8661 -0.1808
 5768TIP3   OH238794   2.032   3.621   3.408  0.0296 -0.0037  0.1976
 5768TIP3    H138795   2.045   3.668   3.490  0.2549 -0.9686  0.7316
 5768TIP3    H238796   1.938   3.618   3.396 -0.0558 -0.8650  1.0274
 5769TIP3   OH238797   2.412   5.459   5.442  0.1695 -0.9130 -0.1033
 5769TIP3    H138798   2.354   5.384   5.455 -0.2150 -0.5176  0.5537
 5769TIP3    H238799   2.428   5.492   5.531 -0.1953  0.1666 -0.4267
 5770TIP3   OH238800   3.917   2.550   2.825 -0.0559 -0.0206  0.0744
 5770TIP3    H138801   3.830   2.526   2.795  0.0564  0.4033 -0.6201
 5770TIP3    H238802   3.920   2.645   2.815  0.5267 -0.0475 -0.0223
 5771TIP3   OH238803   4.687   4.780  10.566 -0.2164 -0.4049  0.0692
 5771TIP3    H138804   4.608   4.805  10.517 -0.1100 -0.1900  0.0061
 5771TIP3    H238805   4.700   4.688  10.544  0.8508  0.1229 -1.7273
 5772TIP3   OH238806   5.519   0.375  16.438 -0.2642  0.8420 -0.2887
 5772TIP3    H138807   5.454   0.393  16.505 -1.6678 -1.0664 -1.0510
 5772TIP3    H238808   5.564   0.296  16.468  0.4782  1.1056 -0.6571
 5773TIP3   OH238809   1.797   2.581  11.989  0.2960 -0.3817  0.0286
 5773TIP3    H138810   1.880   2.590  12.035 -0.2910 -0.6812  1.1914
 5773TIP3    H238811   1.757   2.502  12.025 -0.3251 -0.4603 -0.7914
 5774TIP3   OH238812   5.147   6.215  14.661 -0.1596  0.3209  0.5041
 5774TIP3    H138813   5.128   6.167  14.580 -1.5808  1.3564  0.1841
 5774TIP3    H238814   5.090   6.175  14.727  1.2211 -0.7298  1.1139
 5775TIP3   OH238815   3.811   3.825  12.183  0.3140  0.1380 -0.4045
 5775TIP3    H138816   3.752   3.870  12.122 -1.2254 -0.8259  0.3076
 5775TIP3    H238817   3.767   3.832  12.268  1.4220 -0.2973  0.2153
 5776TIP3   OH238818   1.475   1.956   0.848 -0.0897  0.1994 -0.3032
 5776TIP3    H138819   1.515   1.874   0.817  1.0444  0.5070  0.2820
 5776TIP3    H238820   1.511   1.968   0.936  0.3952  1.7373 -0.6819
 5777TIP3   OH238821   5.347   3.246   4.208 -0.0768  0.0170 -0.4964
 5777TIP3    H138822   5.301   3.270   4.288  0.1469  2.0962 -0.9420
 5777TIP3    H238823   5.423   3.305   4.205  1.7843 -2.2313 -0.5871
 5778TIP3   OH238824   2.154   4.230   0.575 -0.3450  0.9943  0.3246
 5778TIP3    H138825   2.240   4.215   0.613 -0.2028 -0.0933 -0.3998
 5778TIP3    H238826   2.095   4.234   0.651 -0.4336 -3.4022  0.7440
 5779TIP3   OH238827   6.118   0.511  14.629  0.1515 -0.1097  0.0723
 5779TIP3    H138828   6.099   0.603  14.649  1.2604  0.1325  0.0369
 5779TIP3    H238829   6.045   0.484  14.573 -1.7910 -0.1226  2.4059
 5780TIP3   OH238830   6.172   0.497  11.367  0.0787 -0.0482  0.0637
 5780TIP3    H138831   6.156   0.514  11.460 -0.1714 -1.2767  0.2595
 5780TIP3    H238832   6.260   0.459  11.365 -0.0496 -0.3361 -0.1652
 5781TIP3   OH238833   5.935   0.809   4.265  0.2102 -0.3142  0.2868
 5781TIP3    H138834   5.993   0.859   4.323  1.2579 -1.3110  0.1305
 5781TIP3    H238835   5.934   0.858   4.183  0.9958 -0.3914  0.2268
 5782TIP3   OH238836   4.091   3.524   0.641  0.2425 -0.5037  0.4894
 5782TIP3    H138837   4.111   3.432   0.659  0.3858  0.0417  3.5953
 5782TIP3    H238838   4.139   3.544   0.561  2.1161 -2.4946  1.0334
 5783TIP3   OH238839   4.395   3.045  12.461 -0.0220  1.1242 -0.1979
 5783TIP3    H138840   4.383   3.018  12.370 -0.5780 -0.5638  0.3444
 5783TIP3    H238841   4.322   3.004  12.508  1.0355  0.7991  1.2341
 5784TIP3   OH238842   2.841   5.394  14.993  0.2094 -0.2988 -0.0574
 5784TIP3    H138843   2.824   5.488  15.001 -0.2316 -0.1838 -1.8668
 5784TIP3    H238844   2.843   5.362  15.083 -0.4631  1.2982  0.5599
 5785TIP3   OH238845   6.689   3.311   3.512 -0.7929 -0.1254  0.4106
 5785TIP3    H138846   6.727   3.379   3.457  2.1503 -2.6712 -0.9467
 5785TIP3    H238847   6.707   3.340   3.601 -0.5650  1.3359 -0.0816
 5786TIP3   OH238848   0.729   3.227   4.752 -0.1308 -0.2033  0.1651
 5786TIP3    H138849   0.771   3.161   4.696  1.7218  0.8405  0.2309
 5786TIP3    H238850   0.637   3.225   4.727 -0.1170 -2.7252  0.1130
 5787TIP3   OH238851   3.692   5.314  14.280 -0.5957 -0.1759 -0.4181
 5787TIP3    H138852   3.708   5.224  14.253 -1.6048 -0.9049  1.2728
 5787TIP3    H238853   3.744   5.326  14.359 -0.5607  0.6933 -0.5583
 5788TIP3   OH238854   4.324   4.107   1.290 -0.1891  0.3654 -0.1691
 5788TIP3    H138855   4.316   4.013   1.273  0.4712  0.2466  0.1449
 5788TIP3    H238856   4.396   4.135   1.233  0.4423  0.4325  0.6518
 5789TIP3   OH238857   2.737   6.457   3.986  0.1594  0.0891 -0.2054
 5789TIP3    H138858   2.675   6.388   4.005  0.7037 -0.5497 -0.7062
 5789TIP3    H238859   2.754   6.449   3.892  1.1758  0.0882 -0.0351
 5790TIP3   OH238860   2.863   2.883   0.400 -0.1095 -0.6024 -0.1007
 5790TIP3    H138861   2.852   2.964   0.351  1.7053 -1.1019 -1.4339
 5790TIP3    H238862   2.777   2.839   0.394 -0.2845 -0.0761 -1.7961
 5791TIP3   OH238863   2.378   3.197  12.306 -0.0922  0.2018 -0.4890
 5791TIP3    H138864   2.320   3.238  12.370  0.1347  1.1292 -0.8569
 5791TIP3    H238865   2.464   3.198  12.346 -0.2560 -0.8925 -0.0716
 5792TIP3   OH238866   1.781   2.873  10.750 -0.7099  0.0167 -0.1161
 5792TIP3    H138867   1.844   2.943  10.734 -1.5021  1.1805  1.6031
 5792TIP3    H238868   1.827   2.793  10.724  0.7547  1.0135 -0.7061
 5793TIP3   OH238869   2.815   5.340   2.115  0.2447  0.0191 -0.4971
 5793TIP3    H138870   2.803   5.307   2.026  0.4269  1.0438 -0.9144
 5793TIP3    H238871   2.740   5.397   2.130 -0.1947 -0.7459  0.3103
 5794TIP3   OH238872   5.936   4.176   4.224 -0.2228 -0.4037 -0.0726
 5794TIP3    H138873   5.904   4.222   4.146  1.0418  1.6226  0.5296
 5794TIP3    H238874   5.882   4.210   4.295  1.1283  0.6955  0.4766
 5795TIP3   OH238875   6.724   3.831  14.834  0.1355 -0.0666 -0.3321
 5795TIP3    H138876   6.720   3.839  14.930 -0.9467 -1.1297 -0.2737
 5795TIP3    H238877   6.633   3.837  14.806  0.4426  0.1680 -1.3044
 5796TIP3   OH238878   1.746   6.144  12.162 -0.3152  0.5373 -0.1550
 5796TIP3    H138879   1.753   6.063  12.212 -2.7446 -0.2151 -0.8843
 5796TIP3    H238880   1.808   6.204  12.204  1.6627 -1.7067  0.3131
 5797TIP3   OH238881   1.454   5.140   1.510 -0.0906 -0.4732  0.3044
 5797TIP3    H138882   1.450   5.062   1.566  0.5671 -0.2336  0.6989
 5797TIP3    H238883   1.418   5.210   1.565  2.3526  0.1832  1.2129
 5798TIP3   OH238884   2.619   4.060  16.403 -0.3120  0.5980 -0.6171
 5798TIP3    H138885   2.609   3.975  16.360 -0.9027 -0.4782  1.4840
 5798TIP3    H238886   2.699   4.052  16.454  0.6591  2.0217 -1.8484
 5799TIP3   OH238887   1.591   6.238   1.227 -0.0001 -0.1955  0.0460
 5799TIP3    H138888   1.577   6.158   1.178  1.1056 -1.3043  1.4416
 5799TIP3    H238889   1.686   6.252   1.222 -0.3273  1.9847 -1.5541
 5800TIP3   OH238890   4.482   5.541   2.881 -0.0717  0.4982  0.4286
 5800TIP3    H138891   4.443   5.627   2.897 -0.5802  0.0619  1.6415
 5800TIP3    H238892   4.557   5.538   2.939  1.7824  1.2622 -1.7709
 5801TIP3   OH238893   4.695   2.975   0.866  0.1432 -0.0960 -0.1368
 5801TIP3    H138894   4.605   2.984   0.835  0.0356 -2.1479 -0.5426
 5801TIP3    H238895   4.750   2.990   0.789  0.2568  2.2105  0.3223
 5802TIP3   OH238896   4.755   1.789  11.952  0.7147 -0.3464  0.1487
 5802TIP3    H138897   4.716   1.867  11.913 -0.0428 -1.9364 -2.5653
 5802TIP3    H238898   4.848   1.808  11.958  0.3344  1.3413  1.1263
 5803TIP3   OH238899   2.780   6.371   1.905  0.3485 -0.2477  0.3815
 5803TIP3    H138900   2.779   6.409   1.817  0.1789  0.3795  0.6482
 5803TIP3    H238901   2.805   6.279   1.891 -0.6636 -0.4194 -0.4179
 5804TIP3   OH238902   1.968   5.923   2.044 -0.4553  0.4814  0.0956
 5804TIP3    H138903   2.018   5.903   2.124  0.2011 -0.6807 -0.5801
 5804TIP3    H238904   1.990   5.852   1.984 -1.4378  1.0010 -0.9068
 5805TIP3   OH238905   4.990   3.928   5.413  0.4636  0.1511  0.2985
 5805TIP3    H138906   4.917   3.868   5.423  0.3302  0.0653 -1.0233
 5805TIP3    H238907   5.049   3.907   5.485  0.8349 -2.1514 -0.6093
 5806TIP3   OH238908   0.827   3.550  14.110 -0.8594  0.2344  0.2694
 5806TIP3    H138909   0.816   3.478  14.048 -1.3955  0.8408 -0.3638
 5806TIP3    H238910   0.890   3.518  14.174  2.7272  0.8948 -2.6135
 5807TIP3   OH238911   2.648   2.877   3.328  0.2358 -0.4969 -0.0780
 5807TIP3    H138912   2.648   2.793   3.374 -3.2330 -0.0226  1.0621
 5807TIP3    H238913   2.611   2.857   3.242  1.5156 -0.4365 -0.6716
 5808TIP3   OH238914   6.405   1.236   5.988 -0.1202  0.2123 -0.5045
 5808TIP3    H138915   6.467   1.293   6.033 -0.5300  0.2321  0.0472
 5808TIP3    H238916   6.419   1.255   5.895 -1.3955  2.5279 -0.3250
 5809TIP3   OH238917   4.968   3.913   3.888 -0.0705  0.4416 -0.2009
 5809TIP3    H138918   4.978   4.008   3.889  1.9525  0.2873 -0.0090
 5809TIP3    H238919   5.058   3.880   3.881 -0.6821 -1.4633  0.2809
 5810TIP3   OH238920   5.819   3.491   2.926  0.0797  0.4781  0.5267
 5810TIP3    H138921   5.781   3.433   2.991  0.1867 -0.3608 -0.1343
 5810TIP3    H238922   5.904   3.452   2.905 -1.0390 -0.8457 -2.0639
 5811TIP3   OH238923   3.983   5.358  11.343 -0.0116  0.2904  0.0397
 5811TIP3    H138924   3.971   5.271  11.382 -1.4921 -0.2878 -1.5214
 5811TIP3    H238925   4.050   5.345  11.276 -1.2090 -0.0547 -1.1521
 5812TIP3   OH238926   6.408   6.367   3.820 -0.3629 -0.4440 -0.4545
 5812TIP3    H138927   6.404   6.275   3.795 -0.0036 -0.7114  0.4256
 5812TIP3    H238928   6.384   6.415   3.740  0.3000 -1.2655 -1.1767
 5813TIP3   OH238929   4.384   3.506   2.000 -0.5991 -0.1014  0.3166
 5813TIP3    H138930   4.410   3.470   2.085  1.5602 -1.6411 -0.8792
 5813TIP3    H238931   4.467   3.530   1.958 -1.7179  2.4999 -0.6353
 5814TIP3   OH238932   3.524   2.575  12.553 -0.1626 -0.7834 -0.6012
 5814TIP3    H138933   3.462   2.648  12.558  1.2135  0.4832 -1.4934
 5814TIP3    H238934   3.521   2.547  12.462  2.4914  1.0853 -1.3649
 5815TIP3   OH238935   5.640   2.338   3.588 -0.3193  0.7167  0.0208
 5815TIP3    H138936   5.673   2.371   3.505  0.1608 -1.3909 -0.6903
 5815TIP3    H238937   5.547   2.360   3.587  0.1281  2.7676  0.0194
 5816TIP3   OH238938   1.979   5.444  13.805 -0.0809 -0.5885  0.6942
 5816TIP3    H138939   1.923   5.519  13.825 -2.3127 -1.7129 -0.8983
 5816TIP3    H238940   1.992   5.448  13.710  1.5745 -1.0656  0.8651
 5817TIP3   OH238941   1.413   5.447  11.011 -0.0719  0.0670  0.0456
 5817TIP3    H138942   1.439   5.530  10.972 -0.3941 -0.1540 -0.6579
 5817TIP3    H238943   1.338   5.469  11.066 -1.1199  0.0140 -1.3235
 5818TIP3   OH238944   1.138   4.179   5.275  0.8408  0.0175 -0.2286
 5818TIP3    H138945   1.106   4.120   5.207  1.9362  1.8440 -2.4638
 5818TIP3    H238946   1.228   4.200   5.249  1.4697  0.4748  2.0386
 5819TIP3   OH238947   1.953   6.434   2.337 -0.0510 -0.2677  0.2187
 5819TIP3    H138948   2.011   6.360   2.355  0.7074  0.5446  1.2098
 5819TIP3    H238949   1.987   6.471   2.255  0.0782 -0.5284  0.1538
 5820TIP3   OH238950   2.474   0.068  16.199 -0.4473 -0.0651 -0.3322
 5820TIP3    H138951   2.550   0.013  16.214  1.6571  2.6558 -0.1637
 5820TIP3    H238952   2.504   0.157  16.221 -2.6214  1.6563 -3.5478
 5821TIP3   OH238953   2.905   6.187  14.895 -0.3590  0.4075 -0.6830
 5821TIP3    H138954   2.985   6.210  14.942 -0.0111 -0.8502 -0.6164
 5821TIP3    H238955   2.901   6.250  14.822 -0.3455  1.6836  0.3903
 5822TIP3   OH238956   5.668   5.227  15.344 -0.1311  0.5009 -0.3721
 5822TIP3    H138957   5.692   5.144  15.303 -0.0820  0.9181 -1.2146
 5822TIP3    H238958   5.600   5.263  15.287 -0.7387  0.6693  0.4326
 5823TIP3   OH238959   5.447   5.217  14.130 -0.1479  0.1092  0.0789
 5823TIP3    H138960   5.464   5.123  14.136 -3.0928 -0.5243  0.2221
 5823TIP3    H238961   5.387   5.235  14.203  0.4065  2.1423  0.0986
 5824TIP3   OH238962   3.200   2.378   1.848  0.3156  0.2975 -0.3137
 5824TIP3    H138963   3.145   2.452   1.874  0.0168  0.0363 -0.1862
 5824TIP3    H238964   3.139   2.316   1.807  0.6581  0.3731 -0.9544
 5825TIP3   OH238965   5.690   0.115   6.049 -0.3628 -0.4033 -0.5384
 5825TIP3    H138966   5.672   0.073   6.133  1.9595 -1.8776 -0.6777
 5825TIP3    H238967   5.659   0.051   5.984  0.5335 -0.6092 -0.7700
 5826TIP3   OH238968   5.560   6.027   3.607  0.4027 -0.1253 -0.4392
 5826TIP3    H138969   5.572   5.932   3.596 -0.3511 -0.0450 -2.5955
 5826TIP3    H238970   5.593   6.046   3.694  1.8501 -2.1656 -0.4675
 5827TIP3   OH238971   3.236   4.717   2.994  0.0327 -0.4702  0.1982
 5827TIP3    H138972   3.255   4.652   3.062 -2.2649  0.1027  1.4812
 5827TIP3    H238973   3.182   4.670   2.931 -2.2843  0.3120  1.5194
 5828TIP3   OH238974   5.734   1.806   1.512 -0.0587  0.2036  0.7503
 5828TIP3    H138975   5.739   1.763   1.427 -0.7638  0.0749  0.7706
 5828TIP3    H238976   5.641   1.826   1.524  0.0441  0.3036  1.4445
 5829TIP3   OH238977   3.239   0.967  15.343  0.1677 -0.1118  0.3771
 5829TIP3    H138978   3.159   0.927  15.378  0.2089  0.1019  0.7177
 5829TIP3    H238979   3.279   1.010  15.418  1.0206 -0.8899  0.3917
 5830TIP3   OH238980   4.906   5.896   0.483  0.0205  0.0674 -0.1542
 5830TIP3    H138981   4.930   5.876   0.574  0.4681 -0.0412 -0.2930
 5830TIP3    H238982   4.819   5.935   0.490  0.1001  0.1764  0.3360
 5831TIP3   OH238983   1.671   1.631   0.479 -0.5472  0.0848  0.7017
 5831TIP3    H138984   1.751   1.679   0.456 -1.0921  0.8805  0.4151
 5831TIP3    H238985   1.692   1.540   0.461 -0.2770  0.4517 -1.1234
 5832TIP3   OH238986   4.667   3.220   1.485  0.9580  0.2816  0.0809
 5832TIP3    H138987   4.718   3.176   1.553 -0.7377 -1.6160  0.2393
 5832TIP3    H238988   4.660   3.155   1.415 -0.6369  0.7075 -0.1922
 5833TIP3   OH238989   1.201   1.813   5.669 -0.2098  0.3911  0.7971
 5833TIP3    H138990   1.173   1.768   5.748 -0.8038  0.1956  0.4852
 5833TIP3    H238991   1.202   1.906   5.693 -0.8486  0.3748  0.9099
 5834TIP3   OH238992   4.385   2.581  11.126  0.0220  0.9433  0.0013
 5834TIP3    H138993   4.459   2.591  11.066 -0.7264 -0.8830 -1.3300
 5834TIP3    H238994   4.413   2.622  11.207  1.5603  2.3927 -1.2169
 5835TIP3   OH238995   0.619   1.482  10.592  0.1101 -0.0433  0.3865
 5835TIP3    H138996   0.581   1.431  10.520 -0.0749 -0.0493  0.4868
 5835TIP3    H238997   0.713   1.482  10.575  0.2301 -1.3496  0.9859
 5836TIP3   OH238998   3.493   6.175  14.482  0.8716 -0.5424 -0.1827
 5836TIP3    H138999   3.568   6.189  14.539  2.5094  1.5439 -2.5879
 5836TIP3    H239000   3.418   6.207  14.532  2.2138  1.0911  0.8815
 5837TIP3   OH239001   1.291   3.061  11.287 -0.2593  0.3338 -0.5633
 5837TIP3    H139002   1.330   3.141  11.251 -2.5574  1.5023 -0.6888
 5837TIP3    H239003   1.312   3.064  11.380  2.8435 -0.9489 -1.0993
 5838TIP3   OH239004   5.087   4.427  14.423 -0.4821 -0.0140  0.2256
 5838TIP3    H139005   5.121   4.354  14.369 -0.1866 -0.5594  1.1296
 5838TIP3    H239006   5.010   4.390  14.467 -1.6897  0.9077 -1.0095
 5839TIP3   OH239007   1.500   5.987   4.961  0.2237 -0.4653  0.3333
 5839TIP3    H139008   1.421   5.933   4.952  0.9150 -1.2668 -1.3533
 5839TIP3    H239009   1.569   5.926   4.986  1.0481 -0.4612 -1.7392
 5840TIP3   OH239010   1.016   3.910  12.449 -0.2263  0.3368 -0.4938
 5840TIP3    H139011   1.105   3.943  12.446  0.2159 -0.8755 -2.1955
 5840TIP3    H239012   0.964   3.982  12.486  1.4807  0.9059  0.9204
 5841TIP3   OH239013   5.171   3.057   3.338  0.2673  0.3275 -0.8040
 5841TIP3    H139014   5.256   3.094   3.316 -0.4851 -0.0450 -5.5939
 5841TIP3    H239015   5.185   2.962   3.337  0.0267  0.2793 -0.1441
 5842TIP3   OH239016   0.780   3.032   3.615 -0.2831  0.6699  0.3121
 5842TIP3    H139017   0.788   3.065   3.526 -0.4728  0.6027  0.2704
 5842TIP3    H239018   0.706   2.972   3.612  1.7797 -2.0929 -0.3454
 5843TIP3   OH239019   0.201   0.269   3.729 -0.3097 -0.3207  0.3070
 5843TIP3    H139020   0.158   0.224   3.801 -1.5430 -0.8307 -0.6993
 5843TIP3    H239021   0.170   0.360   3.735 -1.6494 -0.6940 -0.4402
 5844TIP3   OH239022   0.395   3.016   1.177  0.2346  0.1730 -0.0197
 5844TIP3    H139023   0.377   2.928   1.210  0.8014 -0.7540 -2.0399
 5844TIP3    H239024   0.488   3.030   1.194  0.0285  0.6340  0.7944
 5845TIP3   OH239025   2.475   1.262  15.323  0.1986 -0.5135  0.9576
 5845TIP3    H139026   2.537   1.329  15.295  0.4511 -0.7150  1.0307
 5845TIP3    H239027   2.398   1.311  15.354 -0.2025 -0.2777 -0.3288
 5846TIP3   OH239028   4.060   5.253  16.607 -0.5451 -0.4542  0.1645
 5846TIP3    H139029   4.050   5.171  16.558 -0.3659  0.3844 -1.3358
 5846TIP3    H239030   4.147   5.246  16.647 -0.2664 -0.7309 -0.4743
 5847TIP3   OH239031   6.722   4.120  13.665 -0.3354  0.7059 -0.0017
 5847TIP3    H139032   6.729   4.205  13.623 -0.1878  0.4829 -0.4394
 5847TIP3    H239033   6.813   4.092  13.676 -0.3578  0.9187  0.8012
 5848TIP3   OH239034   5.694   5.419   2.636 -0.2292 -0.9504  0.0729
 5848TIP3    H139035   5.625   5.460   2.689 -0.2161  0.2123 -0.7686
 5848TIP3    H239036   5.771   5.419   2.693  0.1539  1.5226 -0.3150
 5849TIP3   OH239037   1.758   5.590  15.536  0.3777 -0.1592 -0.4277
 5849TIP3    H139038   1.801   5.535  15.602  1.7305  0.7390 -0.5334
 5849TIP3    H239039   1.809   5.577  15.457  1.3312  1.9715 -0.2166
 5850TIP3   OH239040   3.565   5.482  14.857  0.5271 -0.2180 -0.2553
 5850TIP3    H139041   3.609   5.424  14.920  0.0608 -0.7217 -0.3815
 5850TIP3    H239042   3.565   5.568  14.899 -0.6097 -0.7382  0.8635
 5851TIP3   OH239043   6.495   1.884   5.523  0.3115  0.0745  0.3452
 5851TIP3    H139044   6.571   1.937   5.544 -0.2922  1.2680 -0.3979
 5851TIP3    H239045   6.530   1.796   5.507  1.5858  0.7200 -0.4941
 5852TIP3   OH239046   4.323   1.424   3.702  0.3363  0.2376 -0.2221
 5852TIP3    H139047   4.294   1.374   3.626 -1.1751 -0.4303  0.7378
 5852TIP3    H239048   4.361   1.359   3.761 -0.8193  0.3368  0.6582
 5853TIP3   OH239049   4.125   0.580   3.415  0.1017 -0.5818 -0.0130
 5853TIP3    H139050   4.211   0.578   3.456  0.0443  0.1141  0.1600
 5853TIP3    H239051   4.081   0.501   3.446 -0.1706  0.2219  1.7986
 5854TIP3   OH239052   4.869   2.545   1.922 -0.0598 -0.1768 -0.0918
 5854TIP3    H139053   4.936   2.531   1.855 -2.7011 -0.2367 -2.9291
 5854TIP3    H239054   4.897   2.491   1.996  1.6760 -2.3129 -2.1471
 5855TIP3   OH239055   4.821   0.263   3.343 -0.0701  0.3957 -0.4845
 5855TIP3    H139056   4.764   0.306   3.279 -2.2856  0.8024  1.6031
 5855TIP3    H239057   4.763   0.205   3.391  1.2398  0.9012  1.8513
 5856TIP3   OH239058   2.210   1.957   3.238  0.8351 -0.7716  0.3803
 5856TIP3    H139059   2.299   1.992   3.230  0.4171  0.1537 -0.4373
 5856TIP3    H239060   2.221   1.869   3.274  2.2204 -1.4374 -1.5267
 5857TIP3   OH239061   1.829   3.342  13.827 -0.3426 -0.0763  0.1988
 5857TIP3    H139062   1.894   3.386  13.883 -2.0020  0.9428  1.4059
 5857TIP3    H239063   1.868   3.345  13.740  0.4175  2.2377  0.5392
 5858TIP3   OH239064   4.743   0.301  15.520  0.3360 -0.0861  0.4676
 5858TIP3    H139065   4.719   0.302  15.427  0.4581 -0.2811  0.4331
 5858TIP3    H239066   4.664   0.273  15.565  0.5633 -0.9504  0.3357
 5859TIP3   OH239067   4.606   1.156   2.685 -0.2178  0.5215  0.3238
 5859TIP3    H139068   4.585   1.243   2.650  1.7157  0.5725 -0.8630
 5859TIP3    H239069   4.694   1.166   2.722 -0.3527 -0.7008  1.0191
 5860TIP3   OH239070   4.711   4.654   1.949 -0.4215  0.0739 -0.3544
 5860TIP3    H139071   4.783   4.644   2.011 -0.2067  0.3735 -0.5491
 5860TIP3    H239072   4.662   4.730   1.980 -0.2433  0.2975 -0.6178
 5861TIP3   OH239073   0.803   3.404   2.047 -0.1752 -1.1685 -0.4489
 5861TIP3    H139074   0.779   3.412   1.955  1.9839 -0.1119 -0.9701
 5861TIP3    H239075   0.792   3.311   2.067  1.7562 -1.9220 -2.5291
 5862TIP3   OH239076   3.803   1.563  16.976 -0.1373 -0.2823  0.2404
 5862TIP3    H139077   3.885   1.532  17.015 -1.5503 -2.4638  1.6965
 5862TIP3    H239078   3.750   1.591  17.051 -1.0575  0.3233 -0.6096
 5863TIP3   OH239079   2.145   3.466   5.709 -0.1472  0.2482 -0.5550
 5863TIP3    H139080   2.096   3.498   5.785  1.1981  0.0970  0.4099
 5863TIP3    H239081   2.192   3.389   5.741 -1.0903 -1.0260 -2.0912
 5864TIP3   OH239082   2.993   6.334  15.943  0.6938 -0.4803 -0.2257
 5864TIP3    H139083   2.949   6.418  15.930  0.8605 -0.5143 -1.0764
 5864TIP3    H239084   3.065   6.353  16.002  1.0548  0.0933 -0.8353
 5865TIP3   OH239085   6.689   0.343   1.802 -0.6202  0.5465 -0.1299
 5865TIP3    H139086   6.649   0.427   1.822 -0.1793  0.7555 -0.1163
 5865TIP3    H239087   6.699   0.299   1.887 -0.9565  0.4325 -0.1497
 5866TIP3   OH239088   1.312   3.604  14.871 -0.5227 -0.3269  0.3358
 5866TIP3    H139089   1.326   3.698  14.883 -1.2158 -0.2393  0.5335
 5866TIP3    H239090   1.398   3.564  14.885 -0.6117  0.0954  2.3316
 5867TIP3   OH239091   0.886   0.663   1.486  0.5224  0.0567  0.0805
 5867TIP3    H139092   0.840   0.683   1.567  1.2856 -0.8211  0.7479
 5867TIP3    H239093   0.978   0.658   1.511  0.9264  1.0268 -1.0881
 5868TIP3   OH239094   4.731   4.957  13.088 -0.0902  0.4752  0.3282
 5868TIP3    H139095   4.696   5.023  13.028 -0.2711  0.1116  0.0319
 5868TIP3    H239096   4.669   4.885  13.084  0.9426 -0.3973 -0.6185
 5869TIP3   OH239097   3.675   2.783   3.401  0.7406 -0.1477 -0.5107
 5869TIP3    H139098   3.692   2.788   3.307  0.3574 -1.6368 -0.6925
 5869TIP3    H239099   3.614   2.854   3.419 -0.3289 -0.7303 -1.6813
 5870TIP3   OH239100   3.306   0.162  11.934  0.3826  0.2659  0.1455
 5870TIP3    H139101   3.246   0.234  11.951  0.0682  0.0814 -0.1762
 5870TIP3    H239102   3.282   0.130  11.847 -1.2744 -1.9771  1.3454
 5871TIP3   OH239103   0.555   5.288  11.752 -0.0539 -0.5253 -0.2282
 5871TIP3    H139104   0.630   5.281  11.811 -0.0385 -0.2071 -0.2033
 5871TIP3    H239105   0.585   5.250  11.670 -0.0313 -0.8488 -0.0721
 5872TIP3   OH239106   3.345   6.593   4.209  0.2270 -0.7234 -0.5276
 5872TIP3    H139107   3.359   6.528   4.278 -0.8132  0.7969  1.2265
 5872TIP3    H239108   3.399   6.668   4.235  1.9580 -1.0525 -2.8681
 5873TIP3   OH239109   0.217   4.676  10.770  0.1040 -0.3192 -0.2845
 5873TIP3    H139110   0.182   4.761  10.745  0.0289 -0.2815 -0.0590
 5873TIP3    H239111   0.306   4.675  10.733  0.3134  0.0917  0.1876
 5874TIP3   OH239112   2.249   1.903  10.992  0.0761 -0.4309 -0.6637
 5874TIP3    H139113   2.214   1.950  11.067  1.0478 -0.9144  0.1177
 5874TIP3    H239114   2.314   1.844  11.029  0.0746 -1.1825 -1.8150
 5875TIP3   OH239115   0.348   2.360   0.336 -0.2390  0.3146  0.7433
 5875TIP3    H139116   0.295   2.320   0.405 -1.1964  1.0427  0.4474
 5875TIP3    H239117   0.284   2.393   0.273  0.6120 -1.2603 -1.0474
 5876TIP3   OH239118   0.289   6.342   2.266 -0.3288 -0.2658 -0.1848
 5876TIP3    H139119   0.380   6.317   2.277 -0.6275 -2.3933 -1.7266
 5876TIP3    H239120   0.276   6.342   2.171 -2.0802 -0.7927  0.0132
 5877TIP3   OH239121   1.729   2.749   3.787  0.2733  0.4635  0.7013
 5877TIP3    H139122   1.643   2.721   3.818  0.0332  0.2745 -0.1023
 5877TIP3    H239123   1.755   2.682   3.723  1.2065  0.2916  1.2347
 5878TIP3   OH239124   3.973   4.517  14.113 -0.5154  0.2171  0.3838
 5878TIP3    H139125   4.056   4.470  14.121 -1.5494 -1.4510  2.3147
 5878TIP3    H239126   3.922   4.466  14.049 -0.1826  1.1158 -0.6366
 5879TIP3   OH239127   4.071   2.431  15.138  0.0389  0.3857  0.8451
 5879TIP3    H139128   4.050   2.360  15.198 -0.2391  1.3439  1.9056
 5879TIP3    H239129   3.995   2.437  15.080  0.6375 -1.0506 -0.1425
 5880TIP3   OH239130   2.509   1.010  15.145 -0.4301  0.2691 -0.3551
 5880TIP3    H139131   2.440   0.999  15.080  1.1143  0.8514 -2.1589
 5880TIP3    H239132   2.492   1.096  15.185 -1.4967 -0.1809  0.1855
 5881TIP3   OH239133   1.917   0.177   4.192 -0.2879 -0.2692  0.0220
 5881TIP3    H139134   1.945   0.091   4.223 -1.7105  0.2689  3.2251
 5881TIP3    H239135   1.965   0.239   4.248 -1.0157  0.9374 -0.6504
 5882TIP3   OH239136   3.802   3.120  11.093 -0.1731  0.6632  0.2919
 5882TIP3    H139137   3.852   3.048  11.132  0.2078  0.5790 -0.3465
 5882TIP3    H239138   3.856   3.151  11.020 -1.9283 -0.7304 -1.7227
 5883TIP3   OH239139   2.241   0.859  15.094  0.1612 -0.2452 -0.0596
 5883TIP3    H139140   2.163   0.811  15.067 -0.5223  0.0597  1.2812
 5883TIP3    H239141   2.213   0.910  15.170  1.0973  1.5725 -0.8605
 5884TIP3   OH239142   4.851   2.328  15.755 -0.4560  0.0280  0.2037
 5884TIP3    H139143   4.834   2.305  15.846 -2.8433 -0.1896 -0.2465
 5884TIP3    H239144   4.921   2.268  15.728  0.9915  0.7309  2.1078
 5885TIP3   OH239145   6.507   0.569   2.475  0.0757 -0.5356 -0.0633
 5885TIP3    H139146   6.548   0.486   2.497  0.2218 -0.1379  1.1966
 5885TIP3    H239147   6.568   0.636   2.505 -1.4037  0.0726  1.7600
 5886TIP3   OH239148   6.376   4.609   2.501 -0.1612  0.0902 -0.4898
 5886TIP3    H139149   6.309   4.552   2.539  1.0467 -1.7238 -0.9220
 5886TIP3    H239150   6.448   4.604   2.564  0.2888  0.4244 -0.9782
 5887TIP3   OH239151   2.937   1.335  12.491  0.1168 -0.1764  0.0562
 5887TIP3    H139152   2.867   1.296  12.437 -0.1873 -0.5356  0.7018
 5887TIP3    H239153   3.000   1.369  12.427 -0.5927  0.0591 -0.5377
 5888TIP3   OH239154   6.355   3.256   4.133 -0.2535  0.4233  0.4634
 5888TIP3    H139155   6.366   3.233   4.225  0.5990 -1.1062  0.0146
 5888TIP3    H239156   6.296   3.189   4.098 -0.2775  0.7692 -0.1764
 5889TIP3   OH239157   0.632   2.624   5.674 -0.4829  0.4440 -0.4968
 5889TIP3    H139158   0.724   2.603   5.689 -0.5058 -1.1609 -2.2757
 5889TIP3    H239159   0.628   2.720   5.679  1.0234  0.4746  0.7583
 5890TIP3   OH239160   6.351   5.084  16.322  0.4549 -0.5762  0.3057
 5890TIP3    H139161   6.384   5.088  16.412 -2.2297  0.9317  1.3467
 5890TIP3    H239162   6.271   5.033  16.328 -0.1964  0.2207 -1.0730
 5891TIP3   OH239163   1.212   3.390   5.931  0.1535  0.3013 -0.1353
 5891TIP3    H139164   1.239   3.389   6.023  1.7177 -0.9488 -0.5784
 5891TIP3    H239165   1.117   3.377   5.934  0.3871 -1.3808  1.2408
 5892TIP3   OH239166   5.822   0.995  16.379  0.1684 -0.6094  0.1663
 5892TIP3    H139167   5.741   0.950  16.355 -0.0646  0.4880 -1.2257
 5892TIP3    H239168   5.807   1.027  16.468 -0.8358 -0.6212  0.0129
 5893TIP3   OH239169   2.732   0.692  15.616 -0.1699 -0.2399 -0.1126
 5893TIP3    H139170   2.786   0.740  15.679 -0.6536 -0.2297  0.2969
 5893TIP3    H239171   2.783   0.695  15.534  0.3803 -0.1060  0.2266
 5894TIP3   OH239172   5.059   4.776  12.512 -0.5203 -0.7339 -0.2653
 5894TIP3    H139173   5.133   4.725  12.478  0.8828  1.6857 -1.0751
 5894TIP3    H239174   5.097   4.861  12.536 -2.4706 -0.4702  2.3633
 5895TIP3   OH239175   1.402   4.773  17.150  0.0844 -0.0674 -0.2226
 5895TIP3    H139176   1.431   4.847  17.204  0.0627  0.6827 -1.2271
 5895TIP3    H239177   1.456   4.777  17.072 -1.9864  0.7403 -1.6907
 5896TIP3   OH239178   1.279   5.347  11.468  0.2777  0.5302  0.1155
 5896TIP3    H139179   1.304   5.304  11.550 -1.5325 -0.9319 -0.0461
 5896TIP3    H239180   1.210   5.292  11.432 -0.1464  2.0723 -1.5643
 5897TIP3   OH239181   3.211   3.871   0.987 -0.4782  0.4386  0.5483
 5897TIP3    H139182   3.164   3.953   1.004 -0.2212  0.6775  0.1214
 5897TIP3    H239183   3.302   3.898   0.978 -0.3990  0.1069  0.3674
 5898TIP3   OH239184   1.288   3.737  13.115 -0.0686  0.2113 -0.2149
 5898TIP3    H139185   1.320   3.649  13.100 -1.6291 -0.2636 -0.9661
 5898TIP3    H239186   1.295   3.780  13.029  1.0105  0.9423  0.2251
 5899TIP3   OH239187   1.693   3.576   6.000  0.0645  0.1208  0.0260
 5899TIP3    H139188   1.634   3.650   6.008  0.9199  0.7819  0.3153
 5899TIP3    H239189   1.643   3.501   6.032 -0.3283  0.8120  1.0515
 5900TIP3   OH239190   3.086   3.738  13.936 -0.4182 -0.6966 -0.2312
 5900TIP3    H139191   3.133   3.817  13.911 -0.9624  0.3809  1.9103
 5900TIP3    H239192   3.057   3.699  13.853 -0.6682  1.6832 -1.3262
 5901TIP3   OH239193   2.765   3.351  14.086  0.2033  0.0873 -0.3761
 5901TIP3    H139194   2.763   3.392  14.172 -1.8324 -0.8605  0.0807
 5901TIP3    H239195   2.832   3.283  14.094 -2.1187 -2.1914  1.6268
 5902TIP3   OH239196   5.003   4.759   0.769  0.3952  0.0310  0.4334
 5902TIP3    H139197   4.937   4.691   0.756  2.7581 -2.3306  0.1193
 5902TIP3    H239198   5.041   4.772   0.682  0.7282  1.0122  0.7050
 5903TIP3   OH239199   5.613   6.666   5.974  0.3726  0.3434  0.2115
 5903TIP3    H139200   5.562   6.703   6.046  0.6925 -0.5121  0.8811
 5903TIP3    H239201   5.577   6.578   5.961  1.1440  0.0321  0.1506
 5904TIP3   OH239202   6.102   2.280  14.687  0.0205  0.2067  0.7892
 5904TIP3    H139203   6.061   2.212  14.635  2.0581 -0.7668  0.3459
 5904TIP3    H239204   6.187   2.243  14.712  0.3803  1.8443  2.1966
 5905TIP3   OH239205   4.476   2.045   3.520 -0.5372  0.2950  0.1161
 5905TIP3    H139206   4.432   2.009   3.443 -1.0608  1.2955 -0.0737
 5905TIP3    H239207   4.474   2.140   3.506 -1.5016  0.5560  1.8103
 5906TIP3   OH239208   3.026   3.450   0.982  0.2355  0.2327 -0.0911
 5906TIP3    H139209   3.000   3.496   1.062 -1.5564 -0.4150 -0.2614
 5906TIP3    H239210   3.121   3.440   0.990  0.2217  1.0575  1.4746
 5907TIP3   OH239211   0.340   5.932  14.099 -0.1004 -0.1802  0.6126
 5907TIP3    H139212   0.259   5.958  14.054  1.0103  0.1265 -1.3050
 5907TIP3    H239213   0.366   5.850  14.057  0.3078 -0.5733  1.6001
 5908TIP3   OH239214   2.897   5.549   3.973 -0.2010 -0.1968 -0.4153
 5908TIP3    H139215   2.833   5.615   4.001  0.6695 -0.0838  1.4742
 5908TIP3    H239216   2.937   5.518   4.055  1.2022 -1.2485 -1.4453
 5909TIP3   OH239217   5.166   1.749  13.716 -0.0278  0.5856 -0.1774
 5909TIP3    H139218   5.237   1.757  13.652 -0.0226  0.1912 -0.2253
 5909TIP3    H239219   5.132   1.660  13.703 -1.0230  1.0223 -0.6662
 5910TIP3   OH239220   2.808   4.315   5.691  0.2122 -0.2929 -0.6099
 5910TIP3    H139221   2.895   4.308   5.652  0.0354  0.7394 -1.2076
 5910TIP3    H239222   2.819   4.283   5.781  1.0704 -0.7195 -0.8598
 5911TIP3   OH239223   5.593   2.705  15.577 -0.2351 -0.0334 -0.3784
 5911TIP3    H139224   5.633   2.621  15.597 -1.2859 -0.3920  0.2824
 5911TIP3    H239225   5.559   2.737  15.660  0.1709  1.0647 -0.6152
 5912TIP3   OH239226   5.064   5.980  10.752 -0.3954 -0.7903 -0.0073
 5912TIP3    H139227   5.086   5.903  10.700  0.2327 -0.0613 -0.8370
 5912TIP3    H239228   4.970   5.993  10.737 -1.4731 -3.5754  3.1118
 5913TIP3   OH239229   3.418   4.244   3.674  0.4971  0.4382 -0.0268
 5913TIP3    H139230   3.491   4.229   3.613  0.9645  1.1710  0.3423
 5913TIP3    H239231   3.453   4.303   3.740 -0.9616  2.4112 -0.9032
 5914TIP3   OH239232   2.837   2.863   2.511 -0.0803  0.1807  0.5436
 5914TIP3    H139233   2.927   2.832   2.525 -0.9124 -1.6920  2.4178
 5914TIP3    H239234   2.847   2.949   2.470  2.5212 -0.5284 -0.5584
 5915TIP3   OH239235   3.654   5.221  16.567 -0.0691  0.2623 -0.3142
 5915TIP3    H139236   3.569   5.235  16.611 -0.1539  0.4856 -0.5496
 5915TIP3    H239237   3.651   5.279  16.491  0.1279 -0.0394 -0.5509
 5916TIP3   OH239238   1.291   6.233  11.234  0.2101  0.4898 -0.9066
 5916TIP3    H139239   1.273   6.327  11.224  0.1013  0.5050 -0.5989
 5916TIP3    H239240   1.321   6.205  11.148  0.2430  0.8088 -1.0014
 5917TIP3   OH239241   2.484   0.907   0.994  0.0317 -0.1301 -0.2738
 5917TIP3    H139242   2.463   0.814   1.000 -0.6717 -0.2079 -2.7720
 5917TIP3    H239243   2.406   0.951   1.029  0.6177 -0.4242  1.5095
 5918TIP3   OH239244   1.093   6.264  14.614 -0.2370 -0.8963 -0.0215
 5918TIP3    H139245   1.129   6.199  14.674  0.9960 -1.1839 -1.0221
 5918TIP3    H239246   1.136   6.346  14.638  0.5826 -1.0952 -0.7494
 5919TIP3   OH239247   2.781   0.666   5.531 -0.0776  0.2082  0.0007
 5919TIP3    H139248   2.873   0.683   5.554 -0.4344  1.6608  0.4922
 5919TIP3    H239249   2.764   0.725   5.458 -0.5828 -0.1600 -0.1793
 5920TIP3   OH239250   5.659   6.397  13.977  0.3174 -0.2701  0.3170
 5920TIP3    H139251   5.709   6.378  13.898 -0.8898  0.9001 -0.7892
 5920TIP3    H239252   5.680   6.488  13.998  0.7471 -0.6090  1.4653
 5921TIP3   OH239253   3.499   3.125   5.459 -0.6990  0.1726  0.5802
 5921TIP3    H139254   3.490   3.172   5.376 -1.6441  1.2557  1.2681
 5921TIP3    H239255   3.575   3.166   5.501 -0.0851 -0.5224  0.1879
 5922TIP3   OH239256   5.694   0.165   2.469  0.0218  0.0428 -0.2735
 5922TIP3    H139257   5.680   0.108   2.394 -0.5199  0.2337 -0.3219
 5922TIP3    H239258   5.704   0.106   2.544 -1.0777 -0.1060 -0.2346
 5923TIP3   OH239259   2.779   6.471  16.449 -0.1917  0.0949  0.4235
 5923TIP3    H139260   2.844   6.529  16.410  0.0667 -1.6909 -2.1121
 5923TIP3    H239261   2.742   6.520  16.521  0.1836  3.2915 -1.3814
 5924TIP3   OH239262   5.263   5.503   0.402 -0.6189  0.8008  0.4772
 5924TIP3    H139263   5.334   5.481   0.463 -0.4545  1.7638  0.6631
 5924TIP3    H239264   5.201   5.432   0.410  0.3495 -0.0914  0.2803
 5925TIP3   OH239265   3.040   0.165   2.004 -0.4156  0.2118  0.0408
 5925TIP3    H139266   3.018   0.121   1.922 -0.5629  0.0133  0.1843
 5925TIP3    H239267   3.005   0.254   1.994 -1.2211 -0.0794  0.2379
 5926TIP3   OH239268   1.991   4.888   3.880 -0.5837 -0.2969 -0.0596
 5926TIP3    H139269   1.983   4.801   3.917  1.0847 -0.9127 -1.0303
 5926TIP3    H239270   1.962   4.879   3.789 -1.7732  0.5046  0.2192
 5927TIP3   OH239271   2.633   4.291  14.394  0.2482 -0.3266 -0.1056
 5927TIP3    H139272   2.576   4.338  14.455 -0.2141 -0.6117 -0.3116
 5927TIP3    H239273   2.574   4.233  14.346  0.5743  0.0412 -0.9700
 5928TIP3   OH239274   0.164   6.539  12.978 -0.1809 -0.7302 -0.0862
 5928TIP3    H139275   0.227   6.468  12.968 -0.3687 -1.0377  0.8353
 5928TIP3    H239276   0.079   6.497  12.963 -0.1303  0.1113 -3.6471
 5929TIP3   OH239277   2.965   4.602   3.957 -0.1873  0.3680 -0.4479
 5929TIP3    H139278   2.978   4.509   3.978  2.5665  0.8876  0.5591
 5929TIP3    H239279   2.904   4.601   3.883  0.8462 -2.3309 -1.3971
 5930TIP3   OH239280   5.651   6.804   4.292  0.4870  0.2104  0.1996
 5930TIP3    H139281   5.736   6.836   4.261 -0.0151  0.1540 -1.2942
 5930TIP3    H239282   5.609   6.880   4.331  0.3213  0.8035 -1.0889
 5931TIP3   OH239283   6.169   6.010  14.248 -0.3389 -0.2284  0.1439
 5931TIP3    H139284   6.130   6.071  14.311  0.3005  0.3410  0.0036
 5931TIP3    H239285   6.149   6.047  14.163 -2.4754 -1.7622 -0.0986
 5932TIP3   OH239286   0.617   3.439   5.837 -0.3398 -0.3590 -0.2938
 5932TIP3    H139287   0.677   3.448   5.911 -0.2922 -1.9152 -0.1099
 5932TIP3    H239288   0.673   3.410   5.765 -1.0172 -3.8049  0.3656
 5933TIP3   OH239289   1.518   4.007   4.703  0.5310  0.7912  0.0381
 5933TIP3    H139290   1.597   3.987   4.654 -0.1655 -1.6069 -0.2525
 5933TIP3    H239291   1.540   3.985   4.794  0.3119  0.4805  0.0161
 5934TIP3   OH239292   0.581   2.043   4.585 -0.0265  0.1494 -0.7521
 5934TIP3    H139293   0.630   2.114   4.626  1.6689 -2.2650  1.6960
 5934TIP3    H239294   0.615   1.963   4.625 -2.2390 -2.0703 -2.9259
 5935TIP3   OH239295   0.939   0.340   0.841 -0.2411  0.5551  0.1367
 5935TIP3    H139296   0.882   0.417   0.838  1.6595  2.0339  0.1882
 5935TIP3    H239297   0.948   0.320   0.934  0.3280  1.1237  0.2095
 5936TIP3   OH239298   6.807   1.483   5.469  0.1726 -0.5256 -0.4204
 5936TIP3    H139299   6.865   1.460   5.396  0.2699 -0.6605 -0.3009
 5936TIP3    H239300   6.764   1.401   5.492 -1.0676 -0.1729 -1.3765
 5937TIP3   OH239301   5.754   3.939   0.046  0.2109 -0.1655  0.4223
 5937TIP3    H139302   5.725   3.871  -0.015  0.0001  0.0527  0.2797
 5937TIP3    H239303   5.789   3.891   0.121  1.6435 -0.4684 -0.3966
 5938TIP3   OH239304   0.448   6.698   2.347  0.3744  0.9127 -0.3740
 5938TIP3    H139305   0.375   6.691   2.409  1.0512 -0.0028  0.3465
 5938TIP3    H239306   0.516   6.744   2.395  1.4214 -1.0262  0.1046
 5939TIP3   OH239307   0.299   2.972   5.269 -0.1775 -0.4666 -0.5751
 5939TIP3    H139308   0.242   3.035   5.227 -0.6850  0.1542  0.9724
 5939TIP3    H239309   0.240   2.904   5.303  0.1522 -0.6374 -0.3321
 5940TIP3   OH239310   2.012   4.416  15.356 -0.1962 -0.0412 -0.4493
 5940TIP3    H139311   1.932   4.423  15.409 -1.3340 -0.7173 -1.9763
 5940TIP3    H239312   1.990   4.460  15.274  0.3936 -1.6694 -1.5295
 5941TIP3   OH239313   0.254   3.603   1.163  0.4206 -0.0065 -0.1079
 5941TIP3    H139314   0.243   3.675   1.226  1.4501 -0.7769  0.9872
 5941TIP3    H239315   0.261   3.647   1.078  1.6841  1.2565  0.6065
 5942TIP3   OH239316   0.603   1.021   0.290 -0.1043 -0.1276 -0.5209
 5942TIP3    H139317   0.511   1.019   0.265 -0.5481  0.1430  0.9609
 5942TIP3    H239318   0.617   1.110   0.322  0.5028 -0.3402 -0.1687
 5943TIP3   OH239319   3.275   5.780  10.568 -0.2014  0.0512 -0.2554
 5943TIP3    H139320   3.350   5.790  10.508  0.8123  2.7090  1.2751
 5943TIP3    H239321   3.211   5.843  10.536 -0.2144  0.4918  0.6300
 5944TIP3   OH239322   5.180   4.913   6.705 -0.4835  0.2955 -0.1944
 5944TIP3    H139323   5.259   4.959   6.732 -1.5386  2.6738 -0.9426
 5944TIP3    H239324   5.158   4.858   6.780  1.8444 -0.4376  0.0188
 5945TIP3   OH239325   4.262   2.880  11.517 -0.2096  0.1960  0.5644
 5945TIP3    H139326   4.196   2.947  11.499 -1.0771 -1.1834 -1.7764
 5945TIP3    H239327   4.336   2.904  11.461 -0.6026 -0.8618 -0.4394
 5946TIP3   OH239328   3.843   2.068   1.676  0.4875 -0.1021 -0.3471
 5946TIP3    H139329   3.805   2.136   1.621 -0.8490  0.1875  0.8756
 5946TIP3    H239330   3.932   2.099   1.695  1.2864 -0.6066 -2.9257
 5947TIP3   OH239331   3.427   1.423   2.490 -0.4313  0.1898 -0.4881
 5947TIP3    H139332   3.434   1.507   2.445 -0.3152  0.4814  0.0696
 5947TIP3    H239333   3.500   1.423   2.553  0.1777 -0.7484 -1.1628
 5948TIP3   OH239334   5.077   0.171   1.877 -0.3239  0.2621  0.0009
 5948TIP3    H139335   5.051   0.207   1.962  0.4082  0.1906  0.2596
 5948TIP3    H239336   5.039   0.083   1.876  0.9562 -0.3354  0.9268
 5949TIP3   OH239337   2.740   2.540  11.480  0.7147 -0.1346 -0.2535
 5949TIP3    H139338   2.821   2.498  11.454  0.3685 -1.0420  0.1149
 5949TIP3    H239339   2.711   2.493  11.558 -0.7272 -0.5447 -0.9997
 5950TIP3   OH239340   1.235   5.546  16.786  0.9697 -0.5422  0.1811
 5950TIP3    H139341   1.291   5.623  16.779  1.0558 -0.6138  0.0754
 5950TIP3    H239342   1.272   5.497  16.860  0.1275  0.1590  1.0904
 5951TIP3   OH239343   3.552   2.593   1.058  0.1870 -0.0621  0.2024
 5951TIP3    H139344   3.641   2.608   1.026  0.2142  0.3708  0.4706
 5951TIP3    H239345   3.562   2.576   1.152  0.2358 -2.5968 -0.1925
 5952TIP3   OH239346   3.083   1.365  14.392 -0.3644  0.2104  0.8421
 5952TIP3    H139347   3.139   1.306  14.341 -0.8637  1.1061 -0.7978
 5952TIP3    H239348   3.064   1.316  14.472  2.4609 -0.2801  1.3409
 5953TIP3   OH239349   5.885   6.117  11.928  0.0175 -0.0062 -0.1303
 5953TIP3    H139350   5.860   6.068  11.850  0.7799 -0.5250 -0.0504
 5953TIP3    H239351   5.964   6.074  11.960 -0.0290  0.4817  0.6724
 5954TIP3   OH239352   1.560   1.285   2.725 -0.6139 -0.3642 -0.1939
 5954TIP3    H139353   1.641   1.234   2.731 -0.5168 -0.2113 -0.1876
 5954TIP3    H239354   1.566   1.348   2.797 -1.6283 -1.6036  1.0490
 5955TIP3   OH239355   3.869   1.043   4.580 -0.5207  0.3584  0.6701
 5955TIP3    H139356   3.960   1.073   4.574  0.4462 -2.5713 -2.4770
 5955TIP3    H239357   3.817   1.115   4.543  0.6249  1.5713  1.3408
 5956TIP3   OH239358   0.063   1.617   3.007 -0.0683 -0.5463 -0.3789
 5956TIP3    H139359  -0.031   1.614   2.985  0.2476 -0.6101 -1.8149
 5956TIP3    H239360   0.105   1.644   2.926  1.0848  0.4117  0.5229
 5957TIP3   OH239361   5.966   0.621  14.023  0.4479  0.0768 -0.2064
 5957TIP3    H139362   6.028   0.575  14.079  0.3423  0.3928  0.1772
 5957TIP3    H239363   5.952   0.704  14.067  0.2648  0.2763 -0.6425
 5958TIP3   OH239364   5.606   5.921   4.093  0.2415 -0.1214 -0.2125
 5958TIP3    H139365   5.645   6.008   4.086  2.0235 -0.7961  0.7047
 5958TIP3    H239366   5.608   5.901   4.187  0.4672 -1.4059 -0.4733
 5959TIP3   OH239367   3.481   5.078  15.801  0.0835  0.0529  0.0116
 5959TIP3    H139368   3.513   5.062  15.890 -0.3686  1.3569  0.4396
 5959TIP3    H239369   3.399   5.029  15.796  1.8279 -3.0768 -0.9973
 5960TIP3   OH239370   0.865   5.116  15.758 -0.2634  0.6415 -0.0600
 5960TIP3    H139371   0.948   5.160  15.778  0.4877 -0.3533 -0.8920
 5960TIP3    H239372   0.798   5.183  15.776  0.7187  1.5200  0.4532
 5961TIP3   OH239373   2.672   4.183  13.366 -0.3844 -0.4091 -0.1340
 5961TIP3    H139374   2.600   4.239  13.394 -0.5411  0.0230 -1.3245
 5961TIP3    H239375   2.712   4.151  13.447  0.6346  2.5723  0.6440
 5962TIP3   OH239376   5.431   4.659  13.227  0.5022  0.2519  0.2435
 5962TIP3    H139377   5.437   4.625  13.317  1.7180  1.5937  0.7047
 5962TIP3    H239378   5.468   4.590  13.173  0.2131 -0.3711  0.8251
 5963TIP3   OH239379   2.020   2.973   0.667  0.2392  0.1179  0.2043
 5963TIP3    H139380   1.979   3.056   0.692 -1.8169 -1.4494  2.4667
 5963TIP3    H239381   1.994   2.911   0.735  1.1792 -2.5779 -1.6951
 5964TIP3   OH239382   3.576   5.504   2.850 -0.1871 -0.1748 -0.8444
 5964TIP3    H139383   3.513   5.541   2.787 -3.0934 -0.6944  1.4944
 5964TIP3    H239384   3.646   5.569   2.855 -0.2309  0.2694 -3.8945
 5965TIP3   OH239385   3.837   2.060   5.711 -0.1615 -0.3177 -0.0522
 5965TIP3    H139386   3.867   1.993   5.650  0.1583  0.4662 -0.7610
 5965TIP3    H239387   3.892   2.048   5.789  0.4452 -0.3628 -0.4811
 5966TIP3   OH239388   1.743   3.886   3.604  0.0056  0.5211  0.5378
 5966TIP3    H139389   1.759   3.802   3.561 -1.8526  0.7308 -0.6424
 5966TIP3    H239390   1.710   3.863   3.691 -1.1840  0.0056 -0.0424
 5967TIP3   OH239391   1.791   1.317  10.927  0.1425 -0.2050 -0.2476
 5967TIP3    H139392   1.789   1.250  10.858  0.5823 -0.1182 -0.3472
 5967TIP3    H239393   1.883   1.341  10.934  0.1666 -0.5072  0.6546
 5968TIP3   OH239394   5.409   3.251  14.654  0.3016 -0.3326 -0.4256
 5968TIP3    H139395   5.505   3.250  14.651  0.3905  1.1098  0.6807
 5968TIP3    H239396   5.388   3.305  14.730 -1.3867  1.0094 -1.7427
 5969TIP3   OH239397   1.402   0.900   4.188  0.4220 -0.2112  0.5585
 5969TIP3    H139398   1.489   0.910   4.148 -0.6378  1.2346 -1.5357
 5969TIP3    H239399   1.378   0.809   4.170  0.2798  0.2061 -1.5692
 5970TIP3   OH239400   1.102   1.755  14.485  0.9688 -0.3899 -0.7462
 5970TIP3    H139401   1.099   1.673  14.534 -0.1952 -0.3923 -0.7935
 5970TIP3    H239402   1.021   1.756  14.436  1.3211  0.4477 -1.3268
 5971TIP3   OH239403   0.458   6.287  14.732 -0.0192  0.6822 -0.5572
 5971TIP3    H139404   0.425   6.209  14.687 -0.4969 -0.2963  1.3805
 5971TIP3    H239405   0.505   6.335  14.664 -0.1951 -0.9954 -1.9546
 5972TIP3   OH239406   2.703   5.741  10.992  0.0400  0.0078 -0.8150
 5972TIP3    H139407   2.749   5.807  11.044 -1.0526 -0.0254  0.2409
 5972TIP3    H239408   2.624   5.722  11.042  0.5026 -2.4237 -0.8776
 5973TIP3   OH239409   2.348   3.001   5.242 -0.8085  0.2205 -0.0212
 5973TIP3    H139410   2.367   3.016   5.335  1.8161  2.1649 -0.7690
 5973TIP3    H239411   2.405   2.929   5.218  1.4132  2.1675 -0.9045
 5974TIP3   OH239412   0.811   5.943  14.558 -0.3401 -0.0251 -0.0740
 5974TIP3    H139413   0.758   5.917  14.483  1.3695 -1.0039 -0.9950
 5974TIP3    H239414   0.787   6.034  14.575 -0.5709  0.2943 -1.9768
 5975TIP3   OH239415   4.164   3.887   5.382 -0.7517 -0.3223  0.6564
 5975TIP3    H139416   4.171   3.794   5.402 -0.7790 -0.8419 -1.4901
 5975TIP3    H239417   4.117   3.891   5.299 -1.9411  1.7036  1.3393
 5976TIP3   OH239418   3.114   3.938   2.892 -0.1043  0.4488 -0.5289
 5976TIP3    H139419   3.052   3.910   2.959 -0.0637  0.9680 -0.2723
 5976TIP3    H239420   3.200   3.918   2.928 -0.1028 -2.3498 -1.7756
 5977TIP3   OH239421   5.044   6.082   4.279  0.3090  0.1284  0.8546
 5977TIP3    H139422   5.106   6.088   4.206 -0.3995  0.8862  0.2872
 5977TIP3    H239423   5.079   6.013   4.335  0.7655 -0.6287 -0.3132
 5978TIP3   OH239424   0.686   3.516  16.841  0.5787  0.2279  0.5111
 5978TIP3    H139425   0.649   3.512  16.929  0.0254  0.7081  0.3067
 5978TIP3    H239426   0.728   3.603  16.838 -0.5197  0.7499 -0.1272
 5979TIP3   OH239427   5.162   0.763   4.162 -0.0507 -0.1684 -0.0231
 5979TIP3    H139428   5.194   0.678   4.132 -0.2274 -0.6350  1.0450
 5979TIP3    H239429   5.090   0.741   4.222 -0.4200  0.7551 -0.1137
 5980TIP3   OH239430   1.506   2.879   3.177  0.3518 -0.1504  0.2883
 5980TIP3    H139431   1.446   2.938   3.131 -1.6274 -0.9001  1.7523
 5980TIP3    H239432   1.487   2.793   3.141  0.9287 -0.3307  0.4115
 5981TIP3   OH239433   5.735   3.217  11.249  0.5666 -0.2593  0.1096
 5981TIP3    H139434   5.755   3.197  11.157 -0.5382 -0.9694  0.0087
 5981TIP3    H239435   5.773   3.304  11.263  0.3240  0.0826 -1.1785
 5982TIP3   OH239436   0.231   2.202  13.891 -0.1042  0.5189  0.0469
 5982TIP3    H139437   0.154   2.147  13.904 -1.0093  1.0153 -2.5976
 5982TIP3    H239438   0.211   2.253  13.812  2.3464  1.7323  0.1183
 5983TIP3   OH239439   0.911   5.803  14.814 -0.4526 -0.0413  0.0852
 5983TIP3    H139440   0.893   5.869  14.747 -2.4440 -0.6299 -0.0193
 5983TIP3    H239441   0.910   5.720  14.766  2.4161 -0.2106  0.1410
 5984TIP3   OH239442   6.216   3.162  13.728 -0.0285  0.4185 -0.2018
 5984TIP3    H139443   6.151   3.150  13.798 -1.8089 -0.6375 -1.9519
 5984TIP3    H239444   6.279   3.092  13.742 -1.3845 -0.9540 -0.6902
 5985TIP3   OH239445   2.786   1.848  13.994  0.2301  0.2905 -0.5789
 5985TIP3    H139446   2.738   1.772  13.961 -0.3689  0.5782 -0.3883
 5985TIP3    H239447   2.853   1.811  14.052 -2.3175  0.0110  2.4422
 5986TIP3   OH239448   3.445   5.782  14.598  0.3913  0.0332  0.7781
 5986TIP3    H139449   3.446   5.829  14.514 -1.4313  0.1013  0.7454
 5986TIP3    H239450   3.436   5.851  14.664  0.1650 -0.1080  0.8977
 5987TIP3   OH239451   6.384   0.199  17.192 -0.4932  0.5981  0.0403
 5987TIP3    H139452   6.406   0.142  17.266 -1.2770  0.0796 -0.1114
 5987TIP3    H239453   6.461   0.254  17.180  0.3368 -0.5030  0.1238
 5988TIP3   OH239454   0.726   0.538   2.367 -0.0489 -0.0507  0.2127
 5988TIP3    H139455   0.645   0.489   2.379 -0.6319  0.9090  0.2520
 5988TIP3    H239456   0.750   0.567   2.455 -0.1147  0.3869  0.0843
 5989TIP3   OH239457   1.501   1.357   1.752  0.3741 -0.0944 -0.4235
 5989TIP3    H139458   1.536   1.440   1.786 -0.8697 -0.5763  2.3085
 5989TIP3    H239459   1.419   1.382   1.710  0.8631  0.2276 -1.2320
 5990TIP3   OH239460   2.834   6.560   2.606 -0.3501  0.5223 -0.1354
 5990TIP3    H139461   2.840   6.468   2.582 -0.6967  0.8261 -1.4387
 5990TIP3    H239462   2.921   6.596   2.587 -1.1698  1.2206 -3.0851
 5991TIP3   OH239463   5.869   4.544   0.106  0.8666  0.4640 -0.1560
 5991TIP3    H139464   5.921   4.612   0.062  1.9094 -1.0108 -1.2669
 5991TIP3    H239465   5.841   4.486   0.036 -0.5097  0.0315  0.7143
 5992TIP3   OH239466   5.987   0.943   5.837 -0.1139  0.3804 -0.2215
 5992TIP3    H139467   5.919   0.966   5.901  0.4182 -1.8681  1.2708
 5992TIP3    H239468   5.951   0.868   5.791  0.6578  0.2654 -0.6484
 5993TIP3   OH239469   5.923   2.228  13.573 -0.1782  0.2194  0.0104
 5993TIP3    H139470   5.985   2.155  13.577  0.0408  0.4573  2.5986
 5993TIP3    H239471   5.978   2.306  13.563 -0.2040  0.2722  0.2838
 5994TIP3   OH239472   4.078   2.106  10.880  0.3933  0.2388  0.0590
 5994TIP3    H139473   4.055   2.125  10.790  1.5773  1.4997 -0.0060
 5994TIP3    H239474   4.021   2.162  10.933 -1.5749 -1.7695  0.2463
 5995TIP3   OH239475   4.483   1.723   4.105  0.4710 -0.9466  0.0648
 5995TIP3    H139476   4.548   1.663   4.143  0.2028 -1.4783 -0.2910
 5995TIP3    H239477   4.488   1.706   4.011 -0.2455 -1.0537  0.0448
 5996TIP3   OH239478   6.783   1.796   1.066  0.4757  0.7928 -0.0425
 5996TIP3    H139479   6.690   1.778   1.077  0.5332 -0.8270 -1.8504
 5996TIP3    H239480   6.798   1.873   1.122 -2.2836  2.1750 -0.9956
 5997TIP3   OH239481   5.692   3.413   3.499 -0.4592 -0.2317  0.2367
 5997TIP3    H139482   5.645   3.494   3.480 -2.5508 -1.4080  0.0819
 5997TIP3    H239483   5.709   3.417   3.593  0.4901  0.8431  0.0565
 5998TIP3   OH239484   6.666   0.305   3.343  0.3092  0.2183 -1.0727
 5998TIP3    H139485   6.636   0.386   3.385 -0.3322  0.6396 -2.2744
 5998TIP3    H239486   6.761   0.310   3.346  0.3383 -0.5188  1.6719
 5999TIP3   OH239487   0.849   1.422  13.629 -0.5980 -0.0631 -0.2133
 5999TIP3    H139488   0.864   1.335  13.665  0.1838 -0.2039 -0.8659
 5999TIP3    H239489   0.763   1.447  13.664 -2.0885 -2.1617 -2.0376
 6000TIP3   OH239490   0.126   4.098   3.984  0.0357 -0.2577  0.2349
 6000TIP3    H139491   0.068   4.173   3.973 -0.4921 -0.7867 -0.6534
 6000TIP3    H239492   0.188   4.127   4.051 -0.1282  0.9853 -0.1100
 6001TIP3   OH239493   1.828   1.580  10.357 -0.4144  0.5598  0.7201
 6001TIP3    H139494   1.892   1.554  10.424  1.2757  0.8550 -0.7218
 6001TIP3    H239495   1.866   1.658  10.316 -0.8302 -0.2756 -1.3585
 6002TIP3   OH239496   6.662   3.009  15.461 -0.2677 -0.4801 -0.0551
 6002TIP3    H139497   6.613   3.024  15.542 -1.9647 -1.3284 -0.8603
 6002TIP3    H239498   6.753   3.005  15.489 -0.6492  0.8689  1.5631
 6003TIP3   OH239499   2.099   0.460  17.042  0.0315 -0.0031  0.1417
 6003TIP3    H139500   2.079   0.551  17.020  0.8035 -0.2950 -2.0260
 6003TIP3    H239501   2.055   0.409  16.975  0.1560 -1.1935  0.9407
 6004TIP3   OH239502   5.512   0.924  12.468  0.4419  0.0082 -0.0802
 6004TIP3    H139503   5.597   0.940  12.427  0.6061  0.5328  0.4583
 6004TIP3    H239504   5.533   0.881  12.551  0.0597 -2.1817 -1.0398
 6005TIP3   OH239505   0.346   0.056   0.631 -0.1736  0.5947  0.2705
 6005TIP3    H139506   0.276  -0.004   0.606 -0.8172  1.7938 -0.9208
 6005TIP3    H239507   0.424   0.001   0.638 -0.6582 -0.3185 -1.1890
 6006TIP3   OH239508   2.944   5.375  16.413 -0.5875 -0.3891 -0.0673
 6006TIP3    H139509   2.917   5.467  16.417 -2.5998 -0.9480  0.7475
 6006TIP3    H239510   2.863   5.327  16.394  0.2278 -2.0711  0.4799
 6007TIP3   OH239511   4.693   2.498   2.421  0.5449  0.0220 -0.0196
 6007TIP3    H139512   4.655   2.545   2.347 -2.7125 -0.8990  0.9056
 6007TIP3    H239513   4.735   2.566   2.474  1.4463  0.9237 -1.8102
 6008TIP3   OH239514   1.801   0.805   4.838 -0.1669  0.0300 -0.5716
 6008TIP3    H139515   1.773   0.875   4.779  0.6953  0.2514 -0.7259
 6008TIP3    H239516   1.894   0.819   4.850  0.3690 -2.0123 -1.8488
 6009TIP3   OH239517   5.556   3.796  12.525  0.5936  0.7064 -0.6798
 6009TIP3    H139518   5.557   3.783  12.620 -0.5477 -0.2800 -0.7799
 6009TIP3    H239519   5.644   3.770  12.496  0.1193 -1.6436 -0.1808
 6010TIP3   OH239520   5.600   4.975   3.620 -0.1322 -0.1600 -0.1132
 6010TIP3    H139521   5.686   4.981   3.577 -0.3289 -1.3275 -0.6891
 6010TIP3    H239522   5.621   4.979   3.714  0.4834  0.3112 -0.2635
 6011TIP3   OH239523   0.905   5.089   3.668  0.4324  0.0071 -0.2784
 6011TIP3    H139524   0.907   5.117   3.577  0.3055 -1.1780 -0.6486
 6011TIP3    H239525   0.997   5.082   3.694  0.4674  0.6900 -0.1941
 6012TIP3   OH239526   4.157   4.820  15.496  0.1097 -0.0530  0.2561
 6012TIP3    H139527   4.135   4.745  15.551  1.7936  0.4316  1.6689
 6012TIP3    H239528   4.072   4.859  15.474 -0.8674 -2.6425 -1.0373
 6013TIP3   OH239529   0.147   6.322   3.074 -0.1570  0.4001  0.1465
 6013TIP3    H139530   0.122   6.290   3.160 -1.2915 -1.5029 -0.8310
 6013TIP3    H239531   0.187   6.408   3.091  1.1624 -0.6036  2.7094
 6014TIP3   OH239532   6.551   4.321  17.016 -0.1843 -0.2107 -0.1683
 6014TIP3    H139533   6.470   4.321  17.067  0.6327 -0.2175  1.1820
 6014TIP3    H239534   6.616   4.358  17.076  0.6026  0.7865 -1.5899
 6015TIP3   OH239535   3.121   5.244  15.593  0.0632 -0.9532 -0.3757
 6015TIP3    H139536   3.213   5.225  15.573  0.0577 -0.8951 -0.4566
 6015TIP3    H239537   3.072   5.200  15.523  0.0760 -0.1900 -0.8775
 6016TIP3   OH239538   1.813   2.009  15.758 -0.2310  0.3141  0.2361
 6016TIP3    H139539   1.719   2.016  15.773 -0.1622  1.7409  0.1197
 6016TIP3    H239540   1.834   2.085  15.704  0.8569 -0.4391 -0.4400
 6017TIP3   OH239541   2.443   5.131  14.063  0.1084  0.1437  0.1973
 6017TIP3    H139542   2.477   5.070  14.129  0.5608  0.0916 -0.0772
 6017TIP3    H239543   2.520   5.157  14.013  0.0098  1.4078  0.6751
 6018TIP3   OH239544   4.709   2.333   4.745  0.4513  0.1179  0.2785
 6018TIP3    H139545   4.743   2.309   4.658 -0.4965 -1.3296  0.2723
 6018TIP3    H239546   4.716   2.252   4.796  1.4487  1.0759  1.7234
 6019TIP3   OH239547   6.786   4.832  15.849 -0.4040 -0.7166  0.1972
 6019TIP3    H139548   6.711   4.888  15.829 -0.8124 -1.2785  0.1445
 6019TIP3    H239549   6.793   4.835  15.945  2.0236  2.5937  0.1051
 6020TIP3   OH239550   2.776   4.246  12.246  0.1990 -0.2477 -0.1419
 6020TIP3    H139551   2.788   4.333  12.286  2.6364 -0.4016 -0.3528
 6020TIP3    H239552   2.859   4.230  12.199 -0.7357 -2.1037 -1.2781
 6021TIP3   OH239553   5.129   0.375  15.147  0.0636 -0.9532 -0.3259
 6021TIP3    H139554   5.170   0.415  15.071 -0.9625  0.8210 -0.0281
 6021TIP3    H239555   5.200   0.362  15.209  0.5860 -0.4410 -0.8058
 6022TIP3   OH239556   4.309   0.969   2.073 -0.2785  0.1425  0.4474
 6022TIP3    H139557   4.305   0.879   2.041 -1.5217  0.2641  0.2206
 6022TIP3    H239558   4.326   0.961   2.167  1.5868 -0.2614  0.1121
 6023TIP3   OH239559   4.711   3.308  14.686 -0.5900 -0.1408 -0.7769
 6023TIP3    H139560   4.722   3.233  14.745  1.2722  0.6037 -0.0964
 6023TIP3    H239561   4.634   3.286  14.634  0.2966 -2.9017 -1.1243
 6024TIP3   OH239562   6.094   0.652   1.050  0.3274 -0.1185 -0.0182
 6024TIP3    H139563   6.100   0.557   1.039 -0.5006 -0.5950  2.7998
 6024TIP3    H239564   6.016   0.676   1.001  0.9915 -0.7110 -1.4400
 6025TIP3   OH239565   6.001   4.630   4.145  0.1504 -0.3317 -0.2646
 6025TIP3    H139566   5.918   4.610   4.100 -0.0459  0.1525 -0.1214
 6025TIP3    H239567   5.980   4.622   4.238 -0.2283  1.6216 -0.1572
 6026TIP3   OH239568   5.336   2.579   0.320 -0.3632  0.7763 -0.2148
 6026TIP3    H139569   5.313   2.663   0.361  1.2235  1.0114  0.2683
 6026TIP3    H239570   5.406   2.600   0.258 -0.7270 -0.0336 -0.9211
 6027TIP3   OH239571   0.121   5.687  11.837  0.5061  0.1764  0.1166
 6027TIP3    H139572   0.210   5.717  11.855  0.4799  0.2335  0.1500
 6027TIP3    H239573   0.104   5.715  11.747  1.2191 -1.4785 -0.5721
 6028TIP3   OH239574   0.686   2.183  15.585 -0.8066  0.7237 -0.1940
 6028TIP3    H139575   0.634   2.212  15.659  0.2379 -0.8515  1.2451
 6028TIP3    H239576   0.637   2.108  15.549 -0.7763  0.8137 -0.4264
 6029TIP3   OH239577   6.670   1.747  15.691 -0.2027 -0.0525  0.7086
 6029TIP3    H139578   6.753   1.717  15.728  0.6301  1.2375 -0.0760
 6029TIP3    H239579   6.683   1.743  15.596 -0.9524  0.3933  0.5801
 6030TIP3   OH239580   2.306   1.714  12.101  0.2250 -0.2427 -0.1291
 6030TIP3    H139581   2.233   1.770  12.126  0.2301  0.2713 -1.2032
 6030TIP3    H239582   2.273   1.664  12.026  0.7012 -0.6340 -0.0825
 6031TIP3   OH239583   4.520   0.215  11.624 -0.1648 -0.0897  0.0116
 6031TIP3    H139584   4.441   0.224  11.571 -0.7133  0.2132  0.8489
 6031TIP3    H239585   4.588   0.260  11.574 -1.0775  1.7933  0.3674
 6032TIP3   OH239586   4.926   0.519   0.878  0.4418 -0.4420  0.0405
 6032TIP3    H139587   4.973   0.474   0.809 -0.5340 -0.2627 -0.7634
 6032TIP3    H239588   4.984   0.515   0.954  2.0216  0.3218 -1.0735
 6033TIP3   OH239589   2.555   2.808   5.249 -0.3807 -0.4513 -0.1187
 6033TIP3    H139590   2.569   2.795   5.342  1.1732 -1.0359 -0.4005
 6033TIP3    H239591   2.533   2.721   5.215  0.3774 -0.5128 -0.4851
 6034TIP3   OH239592   3.038   4.286  14.022 -0.8103  0.1143  0.0856
 6034TIP3    H139593   3.046   4.381  14.031  0.0719  0.0258  0.4044
 6034TIP3    H239594   2.998   4.257  14.104  1.4689 -0.0437  1.2394
 6035TIP3   OH239595   4.404   4.242  15.369  0.0402 -0.0350 -0.8425
 6035TIP3    H139596   4.357   4.173  15.416  1.3065  0.0569  0.6734
 6035TIP3    H239597   4.336   4.305  15.344 -1.0146 -1.3791 -1.4595
 6036TIP3   OH239598   4.992   4.246   4.990  0.5258 -0.1367 -0.0318
 6036TIP3    H139599   4.987   4.336   4.959 -0.3000 -0.8970 -2.2821
 6036TIP3    H239600   5.086   4.229   5.002  0.7137  0.8393 -0.0976
 6037TIP3   OH239601   0.843   1.701  12.167 -0.0076  0.0012 -0.2783
 6037TIP3    H139602   0.800   1.616  12.164  0.0528 -0.0373 -0.0988
 6037TIP3    H239603   0.862   1.715  12.260  0.2065  0.0972 -0.3345
 6038TIP3   OH239604   6.156   4.042   4.175  0.2825 -0.1105  0.3552
 6038TIP3    H139605   6.217   4.092   4.229 -0.7769  2.1056 -0.3857
 6038TIP3    H239606   6.072   4.086   4.186 -0.6324 -1.4923 -0.6900
 6039TIP3   OH239607   0.369   6.640   3.551 -0.3868  0.1405  0.1409
 6039TIP3    H139608   0.360   6.586   3.630  0.4725 -0.0598  0.1076
 6039TIP3    H239609   0.395   6.726   3.583  0.1708  0.0025  0.0677
 6040TIP3   OH239610   1.563   2.790  14.103 -0.4775 -0.1161  0.9516
 6040TIP3    H139611   1.479   2.764  14.143 -0.5700  0.7650  1.3461
 6040TIP3    H239612   1.581   2.721  14.040 -1.7394 -0.0884  0.5292
 6041TIP3   OH239613   1.623   2.523  13.481  0.1899 -0.0499  0.0045
 6041TIP3    H139614   1.592   2.575  13.555  0.4486 -0.6672  0.5614
 6041TIP3    H239615   1.718   2.528  13.487  0.2414 -1.5179  0.7599
 6042TIP3   OH239616   3.902   1.289  14.040  0.2083  0.0343 -0.3428
 6042TIP3    H139617   3.973   1.350  14.020 -0.8005  0.8384 -1.5752
 6042TIP3    H239618   3.879   1.309  14.131  0.6725  0.6863 -0.3588
 6043TIP3   OH239619   2.254   0.623  16.573  0.2240 -0.1715 -0.1419
 6043TIP3    H139620   2.192   0.690  16.602  0.0530 -0.5960  0.4821
 6043TIP3    H239621   2.203   0.566  16.515  0.2444 -0.0606 -0.2723
 6044TIP3   OH239622   4.527   4.674   0.066  0.3511 -0.1353 -0.2065
 6044TIP3    H139623   4.617   4.694   0.091  0.5434  0.6002 -1.3761
 6044TIP3    H239624   4.482   4.656   0.148  0.2123  4.9974  1.2070
 6045TIP3   OH239625   0.766   0.832   0.250  0.3459  0.2424  0.4125
 6045TIP3    H139626   0.706   0.901   0.278  1.7563  1.8624 -0.4183
 6045TIP3    H239627   0.747   0.759   0.309 -0.9088  1.4685  1.5991
 6046TIP3   OH239628   4.712   5.031  16.050  0.3575  0.2474 -0.5464
 6046TIP3    H139629   4.664   5.114  16.044  0.1201  0.0437 -1.6197
 6046TIP3    H239630   4.646   4.968  16.082  0.3630  0.3256 -0.3783
 6047TIP3   OH239631   4.534   2.312  10.963 -0.3097 -0.0549 -1.0523
 6047TIP3    H139632   4.550   2.402  10.990  0.0729 -0.0947 -1.1403
 6047TIP3    H239633   4.610   2.289  10.910  1.0764 -1.3420  1.2770
 6048TIP3   OH239634   4.978   0.144  11.968  0.6576  0.0892 -0.3584
 6048TIP3    H139635   4.894   0.147  11.923  0.2582  0.0214  0.3710
 6048TIP3    H239636   5.007   0.235  11.970  0.3446  0.1859 -0.1369
 6049TIP3   OH239637   1.904   1.176  16.173  0.7540  0.7629  0.2718
 6049TIP3    H139638   1.981   1.201  16.225 -0.1439 -0.8802  2.5748
 6049TIP3    H239639   1.893   1.082  16.191  0.5021 -0.0063 -3.1785
 6050TIP3   OH239640   0.202   1.245   5.760  0.2648 -0.0157 -0.1947
 6050TIP3    H139641   0.227   1.290   5.842 -2.4979  1.2602  0.0754
 6050TIP3    H239642   0.256   1.286   5.693  0.4976  1.0385  0.6083
 6051TIP3   OH239643   5.756   1.779   3.969  0.5200  0.2826 -0.0896
 6051TIP3    H139644   5.836   1.728   3.957  1.6215  1.9658 -0.2100
 6051TIP3    H239645   5.769   1.856   3.914 -1.2160  0.5647 -0.1367
 6052TIP3   OH239646   5.799   5.172  13.842 -0.7971 -0.9701  0.2724
 6052TIP3    H139647   5.789   5.267  13.854 -1.3273 -0.7718 -1.5005
 6052TIP3    H239648   5.878   5.150  13.892 -1.1992  0.2251  1.4965
 6053TIP3   OH239649   0.567   0.883  13.768 -0.4445  0.2310  0.3224
 6053TIP3    H139650   0.481   0.841  13.775  0.4007 -1.6229  0.2148
 6053TIP3    H239651   0.603   0.881  13.857 -0.6227  1.2736  0.4250
 6054TIP3   OH239652   0.849   0.583   4.818 -0.3033  0.5663  0.5437
 6054TIP3    H139653   0.861   0.617   4.907 -1.3613  0.9108  0.5643
 6054TIP3    H239654   0.756   0.562   4.812 -0.2038  0.3499 -0.4155
 6055TIP3   OH239655   4.099   2.511  17.222 -0.3446  0.0667  0.1285
 6055TIP3    H139656   4.010   2.547  17.223 -0.2679  0.5729 -2.6091
 6055TIP3    H239657   4.088   2.418  17.238 -2.1916 -0.9778 -5.1127
 6056TIP3   OH239658   4.825   2.359  15.469  0.0366  0.0403 -0.8689
 6056TIP3    H139659   4.903   2.415  15.463 -0.3911  0.6480 -0.9145
 6056TIP3    H239660   4.806   2.355  15.563 -1.0721  1.6190 -0.9810
 6057TIP3   OH239661   0.565   4.242  12.329  1.0784 -0.1793 -0.0328
 6057TIP3    H139662   0.560   4.337  12.325  0.4549 -0.1630  0.7511
 6057TIP3    H239663   0.655   4.221  12.305  0.9806  0.5393 -1.1164
 6058TIP3   OH239664   0.698   3.175   6.072 -0.0894  0.3199  0.6653
 6058TIP3    H139665   0.752   3.247   6.040 -1.2846  1.0151  0.1391
 6058TIP3    H239666   0.714   3.103   6.010  1.0226  0.1445  1.1306
 6059TIP3   OH239667   0.480   3.145  14.077  0.2072  0.5110 -0.1868
 6059TIP3    H139668   0.516   3.215  14.131 -1.2221  0.3938  0.9583
 6059TIP3    H239669   0.505   3.065  14.121 -1.0663  0.4178  0.4111
 6060TIP3   OH239670   3.776   2.033   1.130  0.0379 -0.4866  0.2337
 6060TIP3    H139671   3.781   2.069   1.218 -0.6014 -0.6768  0.3499
 6060TIP3    H239672   3.853   1.977   1.123 -0.4987 -1.3425  1.0683
 6061TIP3   OH239673   2.888   3.706  12.288  0.3228 -0.5705  0.2110
 6061TIP3    H139674   2.949   3.780  12.294  0.4572 -0.7061  0.5323
 6061TIP3    H239675   2.834   3.713  12.366 -0.7202  0.1082 -0.5541
 6062TIP3   OH239676   5.338   3.917  12.011  0.3615 -0.1891  0.2492
 6062TIP3    H139677   5.288   3.989  11.972  0.1315  0.2563  1.3207
 6062TIP3    H239678   5.407   3.960  12.061 -0.3635 -0.6435  1.6996
 6063TIP3   OH239679   4.248   3.099   1.543  0.5685  0.4153 -0.0361
 6063TIP3    H139680   4.256   3.055   1.627  1.4168  0.8527  0.1235
 6063TIP3    H239681   4.192   3.042   1.491  0.3632 -0.0554  0.6915
 6064TIP3   OH239682   2.950   5.150   1.102 -0.0818  0.2220  0.3802
 6064TIP3    H139683   2.858   5.124   1.099  0.4024 -1.6068 -1.3476
 6064TIP3    H239684   2.988   5.094   1.170  0.1994 -0.9529 -0.6881
 6065TIP3   OH239685   0.503   6.646  11.493 -0.0773 -0.1544 -0.0085
 6065TIP3    H139686   0.418   6.689  11.484 -0.8873 -1.7593 -0.2791
 6065TIP3    H239687   0.509   6.625  11.586  0.8785  1.5829  0.3671
 6066TIP3   OH239688   3.182   6.171   0.687 -0.1760  0.0053 -0.3859
 6066TIP3    H139689   3.127   6.244   0.657  0.8546  0.8985 -0.1633
 6066TIP3    H239690   3.263   6.180   0.637  0.4973 -0.1658  0.6440
 6067TIP3   OH239691   5.541   2.212  15.936  0.3256 -0.2476  0.4725
 6067TIP3    H139692   5.451   2.203  15.970  0.9662 -0.7200  2.1575
 6067TIP3    H239693   5.595   2.223  16.014  1.5934  1.6212 -0.5957
 6068TIP3   OH239694   3.960   5.593   2.452  0.3029 -0.1314  0.1666
 6068TIP3    H139695   4.039   5.577   2.400 -0.1401  3.5176 -2.0049
 6068TIP3    H239696   3.991   5.639   2.530  0.3790  1.6397 -0.8653
 6069TIP3   OH239697   3.217   0.109   5.061 -0.0856  0.0183 -0.1485
 6069TIP3    H139698   3.166   0.129   5.139  0.1238 -0.8138  0.2100
 6069TIP3    H239699   3.307   0.102   5.093  0.0707  0.1707 -0.5523
 6070TIP3   OH239700   0.862   4.813   3.461 -0.2865 -0.6806  0.4052
 6070TIP3    H139701   0.830   4.872   3.392  0.0651  1.3562  1.8999
 6070TIP3    H239702   0.955   4.835   3.470 -0.4971 -0.3424  2.0363
 6071TIP3   OH239703   2.594   4.837   4.470 -0.1589 -0.1975 -0.3159
 6071TIP3    H139704   2.614   4.907   4.407 -1.2924  0.2319 -0.2271
 6071TIP3    H239705   2.553   4.883   4.543 -1.4260 -1.0125 -0.4909
 6072TIP3   OH239706   5.152   5.609   3.469  0.4025 -0.1058 -0.4953
 6072TIP3    H139707   5.133   5.631   3.560  0.7376 -0.9197 -0.2147
 6072TIP3    H239708   5.186   5.690   3.431 -0.5494  0.4703 -0.1329
 6073TIP3   OH239709   1.174   5.219   5.545  0.3658  0.0927 -0.2105
 6073TIP3    H139710   1.169   5.313   5.562 -0.7823 -0.0359  0.2391
 6073TIP3    H239711   1.164   5.212   5.450  2.0842  0.5087 -0.4573
 6074TIP3   OH239712   2.203   1.768   4.302  0.0770  0.0105  0.1693
 6074TIP3    H139713   2.185   1.843   4.245  1.8963  0.5418  0.2453
 6074TIP3    H239714   2.266   1.801   4.366 -0.2493 -1.1844  1.1413
 6075TIP3   OH239715   0.123   2.774  15.717 -0.3695 -0.0021  0.1552
 6075TIP3    H139716   0.124   2.762  15.812 -1.2832  3.2262  0.6864
 6075TIP3    H239717   0.034   2.751  15.691  0.1456 -1.8272 -0.1499
 6076TIP3   OH239718   5.369   6.365   4.095 -0.2420  0.1205  0.2312
 6076TIP3    H139719   5.393   6.289   4.043 -1.1754  0.2050 -0.3396
 6076TIP3    H239720   5.289   6.398   4.055  1.2810  2.7463 -0.9282
 6077TIP3   OH239721   2.973   1.990  12.264 -0.3714  0.1088 -0.2516
 6077TIP3    H139722   3.048   2.046  12.286 -0.2777  0.1714 -0.7331
 6077TIP3    H239723   2.923   2.040  12.200 -0.6774 -0.0535 -0.1431
 6078TIP3   OH239724   6.337   2.889   0.645  0.1020 -1.0303  0.4390
 6078TIP3    H139725   6.419   2.907   0.690 -0.4203 -1.5103  1.6167
 6078TIP3    H239726   6.310   2.803   0.677 -0.4848 -1.2087 -0.4953
 6079TIP3   OH239727   4.357   5.856  16.473  0.1499  0.0233 -0.1951
 6079TIP3    H139728   4.430   5.837  16.415 -0.0166 -3.1839  0.4590
 6079TIP3    H239729   4.396   5.859  16.561 -0.1004  1.4581 -0.0992
 6080TIP3   OH239730   3.098   2.360   4.394 -0.7192 -0.0423 -0.1277
 6080TIP3    H139731   3.101   2.305   4.316 -2.4324 -0.6053  0.1639
 6080TIP3    H239732   3.126   2.303   4.465  0.5285  0.3794 -0.2599
 6081TIP3   OH239733   2.359   0.744   1.797  0.0720  0.2988 -0.4067
 6081TIP3    H139734   2.345   0.814   1.861 -1.8975  1.4634 -1.9647
 6081TIP3    H239735   2.446   0.762   1.761 -0.2728  1.8735 -0.5724
 6082TIP3   OH239736   3.954   4.496  11.653  0.2530 -0.6455 -0.0959
 6082TIP3    H139737   3.927   4.407  11.629  0.4006 -0.6526 -0.2340
 6082TIP3    H239738   4.034   4.511  11.603  1.3263 -1.1685  1.3866
 6083TIP3   OH239739   5.008   0.113  16.150  0.7522 -0.6763  0.0377
 6083TIP3    H139740   5.083   0.145  16.100  1.1718 -1.6234  0.0376
 6083TIP3    H239741   4.940   0.099  16.085  0.8089 -0.4674 -0.0652
 6084TIP3   OH239742   1.011   5.846   0.610 -0.2174 -0.5909  0.5103
 6084TIP3    H139743   1.099   5.880   0.599 -0.6455  0.4010 -0.0461
 6084TIP3    H239744   1.014   5.757   0.575  0.4387 -0.3725 -0.0023
 6085TIP3   OH239745   6.528   0.045  11.237  0.1996 -0.0463 -0.1242
 6085TIP3    H139746   6.437   0.021  11.220 -0.5306  2.2318  0.1240
 6085TIP3    H239747   6.576   0.017  11.159 -0.8942 -0.4244 -0.6797
 6086TIP3   OH239748   1.725   0.471   5.241 -0.1360  0.2176 -0.0803
 6086TIP3    H139749   1.787   0.531   5.283 -0.2929  1.4717 -1.5741
 6086TIP3    H239750   1.720   0.501   5.150 -1.3038 -1.2019 -0.5185
 6087TIP3   OH239751   3.554   5.607   3.871  0.5659 -0.1693 -0.0204
 6087TIP3    H139752   3.596   5.522   3.881  0.8366 -0.1720 -1.0028
 6087TIP3    H239753   3.495   5.615   3.946  0.1160 -1.4742 -0.2082
 6088TIP3   OH239754   0.252   2.359  15.358  0.1346  0.5338  0.8462
 6088TIP3    H139755   0.245   2.326  15.447  2.7560  0.4328  1.1107
 6088TIP3    H239756   0.282   2.284  15.306 -2.3852  0.2919 -0.4221
 6089TIP3   OH239757   6.732   5.026  11.813 -0.3685  0.5009  0.3062
 6089TIP3    H139758   6.826   5.019  11.826 -0.2367  0.2018 -0.7178
 6089TIP3    H239759   6.702   5.081  11.885  1.2401  4.4346 -1.6849
 6090TIP3   OH239760   1.625   1.281   5.657 -0.3040  0.5999  0.8523
 6090TIP3    H139761   1.702   1.288   5.714  0.4230  1.8888 -0.2325
 6090TIP3    H239762   1.554   1.320   5.707 -0.3924 -0.9481  2.0223
 6091TIP3   OH239763   1.129   0.094  16.086 -0.1440  0.3512  0.2160
 6091TIP3    H139764   1.219   0.126  16.076 -0.8558  2.6468  0.4830
 6091TIP3    H239765   1.130   0.046  16.169  0.6962  0.8983  0.5385
 6092TIP3   OH239766   2.319   1.538  16.163  0.3143 -0.7535  0.3779
 6092TIP3    H139767   2.237   1.587  16.176 -1.2237 -3.0850  0.1014
 6092TIP3    H239768   2.333   1.494  16.247  0.6772 -1.2148  0.0792
 6093TIP3   OH239769   3.035   6.389   2.377 -0.5028  0.0155 -0.2832
 6093TIP3    H139770   2.991   6.370   2.460 -1.0110 -3.4195 -1.1897
 6093TIP3    H239771   2.964   6.396   2.314 -0.0639  1.6664 -0.6329
 6094TIP3   OH239772   0.958   0.546  14.690 -0.2278  0.1884 -0.2655
 6094TIP3    H139773   0.878   0.595  14.671 -1.1428 -1.2477 -0.2819
 6094TIP3    H239774   0.994   0.526  14.604  0.1640  0.8472 -0.2579
 6095TIP3   OH239775   3.910   0.260   1.163  0.3300 -0.1415 -0.0821
 6095TIP3    H139776   4.000   0.270   1.194  0.0176  0.5942  0.6194
 6095TIP3    H239777   3.875   0.349   1.159 -0.0465 -0.3247 -1.3774
 6096TIP3   OH239778   0.158   5.004  11.877 -0.2998  0.3025 -0.4668
 6096TIP3    H139779   0.205   5.023  11.958 -2.7016 -1.4073  1.5069
 6096TIP3    H239780   0.199   5.060  11.811  1.9728  1.5583  1.8369
 6097TIP3   OH239781   0.829   0.081  17.063 -0.7260  0.0832 -0.3689
 6097TIP3    H139782   0.822   0.106  17.155 -2.4002 -2.0413  0.1630
 6097TIP3    H239783   0.766   0.137  17.018 -2.6636 -1.3338  0.4233
 6098TIP3   OH239784   2.120   4.524  13.271 -0.6442 -0.6227  0.3753
 6098TIP3    H139785   2.178   4.545  13.344 -1.0396 -1.0478  0.8202
 6098TIP3    H239786   2.032   4.546  13.304 -0.6708  0.8175 -0.5827
 6099TIP3   OH239787   0.997   6.091  16.925  0.3327 -0.2162 -0.2429
 6099TIP3    H139788   0.953   6.037  16.859  1.0407 -1.6253  0.3811
 6099TIP3    H239789   1.090   6.088  16.900  0.2567  1.8796 -0.9703
 6100TIP3   OH239790   4.493   6.527   3.357  0.0918  0.5450 -0.1235
 6100TIP3    H139791   4.481   6.433   3.343  1.5015  0.3374 -0.0825
 6100TIP3    H239792   4.573   6.548   3.309 -1.2724  2.1584 -1.8487
 6101TIP3   OH239793   2.864   5.928   0.095  0.4990 -0.1439  0.1937
 6101TIP3    H139794   2.957   5.949   0.087  0.8563 -0.5200  2.6403
 6101TIP3    H239795   2.819   6.008   0.068  1.4962  0.1046 -0.8415
 6102TIP3   OH239796   1.843   2.789   0.536  0.5272 -0.7600  0.3647
 6102TIP3    H139797   1.846   2.775   0.631  2.4680 -2.7174  0.0843
 6102TIP3    H239798   1.923   2.838   0.516  0.8731 -1.6368 -0.4370
 6103TIP3   OH239799   4.138   4.303  16.928  0.0041  0.5385 -0.0796
 6103TIP3    H139800   4.112   4.367  16.861  0.9290 -0.4381 -1.4427
 6103TIP3    H239801   4.211   4.344  16.973  1.0445  0.2163 -1.4018
 6104TIP3   OH239802   0.153   5.224   3.199 -0.2187  0.3561 -0.4274
 6104TIP3    H139803   0.095   5.175   3.140 -0.2831 -0.3156  0.1720
 6104TIP3    H239804   0.231   5.242   3.147  0.3700 -1.5516 -0.2919
 6105TIP3   OH239805   0.360   6.081  12.351  0.2793 -0.3048 -0.2164
 6105TIP3    H139806   0.312   6.038  12.280  0.2017 -0.6491  0.0447
 6105TIP3    H239807   0.415   6.012  12.388 -0.9444 -0.5951  1.1864
 6106TIP3   OH239808   0.191   3.384   3.766  1.0985 -0.6205  0.2778
 6106TIP3    H139809   0.106   3.340   3.771  0.1497  1.2005  3.5768
 6106TIP3    H239810   0.213   3.403   3.858  1.5122  5.2820 -0.6619
 6107TIP3   OH239811   2.105   3.673   3.665  0.0869  0.4331  0.2751
 6107TIP3    H139812   2.141   3.759   3.687  0.5343  0.5248 -0.7608
 6107TIP3    H239813   2.134   3.615   3.736 -0.5978  1.2121  1.2171
 6108TIP3   OH239814   0.027   4.387   3.785  0.1940  0.6687  0.6180
 6108TIP3    H139815   0.117   4.358   3.777 -0.2948 -0.9223  0.5090
 6108TIP3    H239816  -0.006   4.343   3.863 -0.6588  0.7326  0.3096
 6109TIP3   OH239817   0.300   5.237  11.841  0.1696 -0.3835  0.0705
 6109TIP3    H139818   0.381   5.260  11.797  0.8203 -0.3826  1.2387
 6109TIP3    H239819   0.327   5.184  11.916 -1.0708 -2.5146 -0.8897
 6110TIP3   OH239820   2.559   6.055   1.097  0.9055 -0.6461 -0.5570
 6110TIP3    H139821   2.643   6.020   1.125  1.4634  0.2667 -1.0647
 6110TIP3    H239822   2.566   6.149   1.110  0.0154 -0.5374 -0.7477
 6111TIP3   OH239823   1.578   3.840   4.119  0.3130  0.0141  0.4488
 6111TIP3    H139824   1.631   3.803   4.190  1.3907  2.2123  0.8872
 6111TIP3    H239825   1.515   3.896   4.164  1.1470  1.6085 -0.2882
 6112TIP3   OH239826   1.600   4.183   2.869  0.1521  0.0019 -0.4640
 6112TIP3    H139827   1.537   4.171   2.940  0.5186 -1.6185 -0.3610
 6112TIP3    H239828   1.547   4.205   2.793 -0.7736 -2.8043 -0.7486
 6113TIP3   OH239829   4.373   6.442  13.432  0.4921  0.1942 -0.2966
 6113TIP3    H139830   4.381   6.347  13.428 -1.5870 -0.1243  1.4299
 6113TIP3    H239831   4.295   6.462  13.380  0.5409  0.9000 -0.1115
 6114TIP3   OH239832   6.201   1.285   2.916 -0.3862 -0.4976 -0.7138
 6114TIP3    H139833   6.159   1.369   2.899 -0.6339 -0.6457 -0.8361
 6114TIP3    H239834   6.268   1.278   2.848 -0.6917 -0.6213 -1.0077
 6115TIP3   OH239835   1.445   1.943  15.523  0.0234  0.3854  0.5876
 6115TIP3    H139836   1.488   1.988  15.595  0.0904  3.9574 -1.4900
 6115TIP3    H239837   1.512   1.886  15.486  1.3973  1.9193  0.6373
 6116TIP3   OH239838   2.716   0.753  15.086  0.0035 -0.3760 -0.4560
 6116TIP3    H139839   2.748   0.837  15.054 -0.1358 -0.3193 -0.4452
 6116TIP3    H239840   2.626   0.770  15.113  0.4031 -0.1849  0.8658
 6117TIP3   OH239841   0.275   4.617  12.637  0.2982  0.0132 -0.2062
 6117TIP3    H139842   0.343   4.563  12.597 -1.8436 -0.8497 -2.9882
 6117TIP3    H239843   0.249   4.568  12.715  0.0481 -1.8094 -1.3758
 6118TIP3   OH239844   5.845   0.827  13.781 -0.0558  0.5245 -0.0268
 6118TIP3    H139845   5.904   0.822  13.706  0.3408 -1.6213  0.3659
 6118TIP3    H239846   5.802   0.742  13.783 -0.1169  0.5510  2.1184
 6119TIP3   OH239847   3.819   0.018   5.509 -0.1123 -0.5329  0.7283
 6119TIP3    H139848   3.888  -0.017   5.565  2.6353  2.1092 -0.7089
 6119TIP3    H239849   3.809  -0.049   5.440  0.4461 -1.3065  1.3763
 6120TIP3   OH239850   5.516   1.653   1.139 -0.0334 -0.0858  0.4610
 6120TIP3    H139851   5.514   1.588   1.068 -1.8110  0.4203 -0.0101
 6120TIP3    H239852   5.602   1.641   1.180  1.5794  0.3804 -2.4800
 6121TIP3   OH239853   4.238   1.529   0.438  0.4843 -0.3114  0.5841
 6121TIP3    H139854   4.307   1.592   0.459  0.7722 -0.9921  1.8085
 6121TIP3    H239855   4.209   1.497   0.523 -1.2885 -0.1245  0.0894
 6122TIP3   OH239856   0.996   2.720  10.872  0.5366  0.1260 -0.2067
 6122TIP3    H139857   1.068   2.752  10.817  0.3588  0.5166 -0.2141
 6122TIP3    H239858   0.935   2.679  10.810 -0.2408  1.6151 -0.4666
 6123TIP3   OH239859   1.434   1.589  16.125 -0.3140  0.0784 -0.0016
 6123TIP3    H139860   1.379   1.514  16.103 -3.0446  1.5133  1.4518
 6123TIP3    H239861   1.457   1.626  16.040  1.6174 -2.6379 -0.7816
 6124TIP3   OH239862   2.185   1.632  12.757  0.0500  0.5112  0.6588
 6124TIP3    H139863   2.252   1.596  12.699 -0.1751  0.5718  0.3570
 6124TIP3    H239864   2.114   1.567  12.756 -0.9941  1.5820 -1.0461
 6125TIP3   OH239865   4.126   4.354  15.327 -0.5654 -0.1741 -0.0149
 6125TIP3    H139866   4.081   4.269  15.322 -1.3138  0.0974  1.4518
 6125TIP3    H239867   4.069   4.414  15.279 -1.2390 -0.0620  0.8881
 6126TIP3   OH239868   0.460   6.579   6.016 -0.3962  0.2390 -0.3057
 6126TIP3    H139869   0.552   6.568   6.038  0.1996  1.8348 -1.8210
 6126TIP3    H239870   0.431   6.652   6.070 -0.6512  0.0639 -0.2016
 6127TIP3   OH239871   0.591   5.499   5.093  0.3978  0.0915  0.2465
 6127TIP3    H139872   0.630   5.567   5.038 -0.4943  1.1476  0.8659
 6127TIP3    H239873   0.636   5.419   5.068  2.6475  1.1579  0.6021
 6128TIP3   OH239874   2.863   6.371   3.445 -0.1546  0.3843 -0.0762
 6128TIP3    H139875   2.780   6.410   3.470 -0.6959 -0.2328 -0.8469
 6128TIP3    H239876   2.926   6.442   3.452 -0.7903  0.9188  0.2950
 6129TIP3   OH239877   3.279   2.634   4.902 -0.1132 -0.7387  0.3172
 6129TIP3    H139878   3.241   2.565   4.848  0.9021 -1.5243  0.5948
 6129TIP3    H239879   3.218   2.708   4.892 -0.0427 -0.9098 -1.7698
 6130TIP3   OH239880   4.611   1.820   2.395  0.5201  0.0290  0.0291
 6130TIP3    H139881   4.644   1.909   2.406  1.4349 -0.1554 -0.9878
 6130TIP3    H239882   4.689   1.765   2.401 -0.0964 -0.7560  1.1198
 6131TIP3   OH239883   3.734   0.868  14.589  0.6551  0.6531 -0.7815
 6131TIP3    H139884   3.795   0.841  14.658 -1.6613  1.0101  1.5492
 6131TIP3    H239885   3.722   0.961  14.603 -1.8688  0.2557  0.1235
 6132TIP3   OH239886   2.367   1.248  10.672 -0.6076 -0.3745  0.1313
 6132TIP3    H139887   2.375   1.161  10.712  2.8114 -0.2260  0.0218
 6132TIP3    H239888   2.327   1.230  10.586  1.2448 -2.0940 -0.4530
 6133TIP3   OH239889   6.430   1.764   5.139  0.3262  0.5305 -0.0328
 6133TIP3    H139890   6.387   1.748   5.223 -0.1727  1.2328 -0.1479
 6133TIP3    H239891   6.408   1.855   5.117  1.2376  0.6550 -0.4697
 6134TIP3   OH239892   3.942   3.478  16.284  0.0746  0.2414 -0.1617
 6134TIP3    H139893   3.937   3.565  16.324  0.1191  1.1355 -1.9663
 6134TIP3    H239894   3.892   3.422  16.343  0.8725  1.2657  1.5715
 6135TIP3   OH239895   2.832   0.258   3.287 -0.4365 -0.0792  0.1031
 6135TIP3    H139896   2.830   0.180   3.232 -1.0834 -0.1044  0.1601
 6135TIP3    H239897   2.792   0.230   3.369  2.0021 -0.5277  1.2517
 6136TIP3   OH239898   4.361   1.598   1.011 -0.6371 -0.5187  0.2067
 6136TIP3    H139899   4.425   1.664   0.985 -1.5599 -0.0193 -0.9139
 6136TIP3    H239900   4.318   1.573   0.929 -0.6137 -2.2066  0.6696
 6137TIP3   OH239901   0.154   4.515  14.440  0.7532  0.0411 -0.2874
 6137TIP3    H139902   0.113   4.449  14.385 -1.4678  0.9144  0.2104
 6137TIP3    H239903   0.122   4.496  14.528  1.5534  0.6808  0.1581
 6138TIP3   OH239904   6.510   0.736  17.137  0.0784  0.3314  0.4192
 6138TIP3    H139905   6.489   0.829  17.147  1.9017  0.8254 -0.0792
 6138TIP3    H239906   6.542   0.728  17.047  2.5102 -0.2201  1.2713
 6139TIP3   OH239907   1.210   1.601   0.672  0.4559 -0.1257  0.1942
 6139TIP3    H139908   1.270   1.648   0.615 -1.0018  2.2328  0.4270
 6139TIP3    H239909   1.248   1.610   0.760  0.5826 -0.0432  0.1303
 6140TIP3   OH239910   2.778   4.243   3.173 -0.0319 -0.6547 -0.4607
 6140TIP3    H139911   2.847   4.178   3.160  1.9003  1.2675 -0.4074
 6140TIP3    H239912   2.791   4.274   3.263 -1.0827 -0.3614 -0.3982
 6141TIP3   OH239913   0.813   3.525   1.519  0.2174 -0.4831  0.3051
 6141TIP3    H139914   0.870   3.463   1.474 -0.8350 -1.0019 -0.3529
 6141TIP3    H239915   0.783   3.584   1.449 -1.5266 -1.3616  0.2579
 6142TIP3   OH239916   4.701   3.353  15.478 -0.3407 -0.4837  0.1040
 6142TIP3    H139917   4.718   3.323  15.567  0.6149  0.3187  0.2013
 6142TIP3    H239918   4.732   3.443  15.476  1.2070 -0.9816 -1.4797
 6143TIP3   OH239919   3.060   3.156  15.496 -0.8526  0.3883 -0.0052
 6143TIP3    H139920   3.041   3.194  15.411  0.3249  0.5964 -0.1854
 6143TIP3    H239921   2.979   3.112  15.521 -1.3898  0.8074 -0.9698
 6144TIP3   OH239922   6.531   1.281  15.573  0.0968  0.1447  0.0572
 6144TIP3    H139923   6.528   1.364  15.524  1.9349 -0.3616 -1.0307
 6144TIP3    H239924   6.441   1.265  15.599 -0.9222  0.7333 -2.7356
 6145TIP3   OH239925   0.159   5.315   5.679  0.0123 -0.5010 -0.5741
 6145TIP3    H139926   0.169   5.234   5.630  0.4912 -0.0695 -1.2153
 6145TIP3    H239927   0.119   5.376   5.617 -1.9689 -0.7233  0.4171
 6146TIP3   OH239928   2.801   3.966  11.641 -0.1080  0.4512 -0.2803
 6146TIP3    H139929   2.804   3.903  11.713  0.6891  1.5593  0.6982
 6146TIP3    H239930   2.764   3.916  11.568 -2.1233 -0.3719  1.1933
 6147TIP3   OH239931   6.682   0.481   4.431 -0.0707  0.2176  0.7871
 6147TIP3    H139932   6.611   0.513   4.375  1.2477 -0.6293 -1.5027
 6147TIP3    H239933   6.738   0.557   4.445 -0.8107  0.6187  1.6656
 6148TIP3   OH239934   2.684   4.405  13.844  0.4567 -0.2924  0.1207
 6148TIP3    H139935   2.709   4.368  13.760  2.0839  1.3520 -0.1878
 6148TIP3    H239936   2.754   4.466  13.865 -1.7862  2.2511  0.7844
 6149TIP3   OH239937   3.057   0.010   0.404  0.2420  0.6550  0.4821
 6149TIP3    H139938   3.038  -0.082   0.422  0.1454  0.5357 -0.2032
 6149TIP3    H239939   3.147   0.022   0.435 -0.0590  0.5705  1.4099
 6150TIP3   OH239940   4.047   5.056  11.916 -0.4014  0.1794 -0.2995
 6150TIP3    H139941   4.138   5.056  11.887 -1.0576  2.0449 -2.5762
 6150TIP3    H239942   4.017   5.146  11.903 -2.4206 -0.2524  0.9698
 6151TIP3   OH239943   3.642   3.565   3.833 -0.2927  0.1433  0.2711
 6151TIP3    H139944   3.550   3.561   3.810  0.2122  1.3228 -2.3859
 6151TIP3    H239945   3.681   3.621   3.766  2.5193 -1.0616  0.7350
 6152TIP3   OH239946   4.969   3.807   2.511  0.3887 -0.0570  0.3579
 6152TIP3    H139947   4.984   3.821   2.604  3.7024  0.0145 -0.0532
 6152TIP3    H239948   5.056   3.817   2.471 -1.0149  0.6969 -2.8476
 6153TIP3   OH239949   1.086   4.814   4.554 -0.1381  0.1810 -0.8039
 6153TIP3    H139950   1.127   4.774   4.631  0.0971 -0.6197 -1.3329
 6153TIP3    H239951   1.012   4.757   4.535 -1.7140  1.7578  0.2982
 6154TIP3   OH239952   2.719   3.321  12.408  0.2492  0.2767 -0.3820
 6154TIP3    H139953   2.810   3.342  12.389 -0.2335  2.8676 -0.2652
 6154TIP3    H239954   2.670   3.397  12.375 -2.1006 -1.8942 -2.3297
 6155TIP3   OH239955   5.830   6.057   3.210 -0.2210 -0.1413  0.0648
 6155TIP3    H139956   5.833   6.114   3.133 -0.7952  0.3015  0.3648
 6155TIP3    H239957   5.788   6.110   3.277 -1.8468 -1.2919  0.0235
 6156TIP3   OH239958   5.377   4.649  16.109  0.0212 -0.4838  0.3842
 6156TIP3    H139959   5.321   4.697  16.048 -1.1286 -2.0900  0.1298
 6156TIP3    H239960   5.449   4.710  16.127 -0.6718  0.8139 -0.9524
 6157TIP3   OH239961   5.949   3.369   4.686 -0.1317 -0.0917 -0.4215
 6157TIP3    H139962   5.905   3.287   4.706 -1.2685  0.5623 -0.1000
 6157TIP3    H239963   5.884   3.419   4.635 -0.2623  1.3930  1.0996
 6158TIP3   OH239964   5.827   6.547  14.930 -0.2855  0.2671  0.0890
 6158TIP3    H139965   5.889   6.617  14.909  1.0093 -0.3978  1.4755
 6158TIP3    H239966   5.799   6.567  15.019 -2.6644  0.9260 -0.7358
 6159TIP3   OH239967   4.721   5.855  13.693  0.1897  0.3965  0.1532
 6159TIP3    H139968   4.686   5.865  13.604  0.4280  1.6918  0.1842
 6159TIP3    H239969   4.655   5.897  13.749  0.0732 -0.3537  0.5865
 6160TIP3   OH239970   5.806   2.448   5.414 -0.1179 -0.9146  0.0041
 6160TIP3    H139971   5.734   2.506   5.438  1.9942  1.4013  1.1741
 6160TIP3    H239972   5.788   2.423   5.323 -2.1008 -0.0373  0.1157
 6161TIP3   OH239973   6.417   0.496  13.969  0.3254 -0.0808 -0.2260
 6161TIP3    H139974   6.374   0.547  14.038 -1.0965 -1.4848 -0.0289
 6161TIP3    H239975   6.351   0.489  13.900  1.0614 -0.3273 -0.9240
 6162TIP3   OH239976   5.800   2.411  14.893  0.3771  0.0351 -0.0051
 6162TIP3    H139977   5.807   2.399  14.799 -0.9034 -0.1611 -0.0968
 6162TIP3    H239978   5.707   2.399  14.912  0.2609  2.0594  1.0070
 6163TIP3   OH239979   3.029   6.623   1.927 -0.2962 -0.5338 -0.2818
 6163TIP3    H139980   2.953   6.631   1.986  0.5980 -2.6323  1.2750
 6163TIP3    H239981   3.044   6.712   1.896 -0.6508  0.7865  2.9313
 6164TIP3   OH239982   5.201   2.416   5.503 -1.0650 -0.1976 -0.1970
 6164TIP3    H139983   5.289   2.387   5.529 -1.3204 -0.5458  0.2732
 6164TIP3    H239984   5.144   2.387   5.574 -1.5512  0.1002 -0.4651
 6165TIP3   OH239985   0.713   1.831   4.724  0.5106  0.3769  0.0214
 6165TIP3    H139986   0.737   1.820   4.816 -0.7261 -0.1077  0.3165
 6165TIP3    H239987   0.793   1.814   4.675  1.2083  0.7374  1.0136
 6166TIP3   OH239988   4.478   2.599   4.504  0.3669 -0.1027  0.2342
 6166TIP3    H139989   4.394   2.575   4.544  1.0942 -0.0459  1.8916
 6166TIP3    H239990   4.497   2.527   4.444 -1.3477  0.3961 -0.9724
 6167TIP3   OH239991   2.840   5.914  11.148  0.2753 -0.0031 -0.1536
 6167TIP3    H139992   2.898   5.990  11.139 -1.4151  1.6526  1.8966
 6167TIP3    H239993   2.891   5.852  11.200  0.7881  0.7967  0.3252
 6168TIP3   OH239994   0.245   6.409  12.434  0.0531 -0.0462  0.0827
 6168TIP3    H139995   0.323   6.372  12.393 -0.5853 -0.9807 -0.3303
 6168TIP3    H239996   0.172   6.374  12.382 -0.8702 -1.8807  2.4222
 6169TIP3   OH239997   3.193   1.156  11.954  0.4771 -0.0861 -0.0673
 6169TIP3    H139998   3.112   1.160  12.005  1.0029  1.0526  0.7150
 6169TIP3    H239999   3.191   1.235  11.901  0.7161 -0.4468 -0.6108
 6170TIP3   OH240000   6.449   4.258   0.135 -0.3061 -0.2621  0.0523
 6170TIP3    H140001   6.535   4.300   0.144 -0.2730 -0.5665  1.2137
 6170TIP3    H240002   6.449   4.188   0.200 -0.2941 -2.2290 -1.9317
 6171TIP3   OH240003   1.014   4.142   4.839 -1.1823  0.2919  0.4002
 6171TIP3    H140004   0.986   4.201   4.770 -0.5675  1.1632  0.8763
 6171TIP3    H240005   1.002   4.054   4.803 -3.4354  0.6376  0.1679
 6172TIP3   OH240006   1.110   3.175   0.925  0.7736 -0.1479 -0.0449
 6172TIP3    H140007   1.061   3.246   0.883 -1.6233 -0.6075  1.7649
 6172TIP3    H240008   1.167   3.219   0.988  0.0021  0.2606  0.3877
 6173TIP3   OH240009   3.170   3.979  14.680 -0.1479 -0.0848  0.3660
 6173TIP3    H140010   3.101   3.921  14.646 -0.7934  0.3791  0.8600
 6173TIP3    H240011   3.232   3.987  14.607 -0.8150 -0.2050 -0.2323
 6174TIP3   OH240012   3.642   4.056  11.005 -0.1222  1.0312 -0.5927
 6174TIP3    H140013   3.617   4.020  10.920 -1.1182  1.0221 -0.3027
 6174TIP3    H240014   3.689   4.137  10.983 -1.0611  1.4471 -1.1436
 6175TIP3   OH240015   0.428   4.697  16.996  0.4508  0.9498 -0.7124
 6175TIP3    H140016   0.410   4.734  16.909  1.7413  1.7314 -0.6663
 6175TIP3    H240017   0.400   4.765  17.057  1.0464  1.0706 -0.5699
 6176TIP3   OH240018   4.656   6.100  14.422  0.4416 -0.3248 -0.1604
 6176TIP3    H140019   4.594   6.073  14.354  1.0017  1.3164 -1.3794
 6176TIP3    H240020   4.701   6.176  14.385  1.1314  0.3095  1.8553
 6177TIP3   OH240021   6.362   3.904   4.581  0.1510  0.2106 -0.6703
 6177TIP3    H140022   6.403   3.866   4.659 -0.1545  1.3136  0.0691
 6177TIP3    H240023   6.434   3.944   4.533  0.2071  0.4528 -0.3878
 6178TIP3   OH240024   2.026   3.627  11.717  0.1390 -0.1050 -0.0858
 6178TIP3    H140025   2.095   3.577  11.759 -0.3703  0.9054  2.0958
 6178TIP3    H240026   2.044   3.718  11.741 -2.8958  0.0681  2.2749
 6179TIP3   OH240027   3.874   0.760   6.393 -0.2123 -0.1546 -0.1841
 6179TIP3    H140028   3.810   0.822   6.357 -0.1965 -1.0354 -1.7895
 6179TIP3    H240029   3.931   0.738   6.319  0.6666 -0.9981  0.7155
 6180TIP3   OH240030   2.403   3.423  15.293  0.2404  0.2395  0.2313
 6180TIP3    H140031   2.362   3.436  15.208  1.6314 -0.7090 -0.6375
 6180TIP3    H240032   2.484   3.474  15.289  1.1926 -1.2080  0.2681
 6181TIP3   OH240033   2.545   2.075  13.718 -0.2705  0.5703  0.6423
 6181TIP3    H140034   2.599   2.076  13.639 -1.3899 -2.7351 -0.3709
 6181TIP3    H240035   2.489   2.152  13.710  1.4657  1.7968 -0.3431
 6182TIP3   OH240036   0.609   3.132  14.387  0.1539  0.3383  0.1551
 6182TIP3    H140037   0.701   3.114  14.408 -0.2529  0.2550  2.0947
 6182TIP3    H240038   0.575   3.048  14.355  0.4950  0.0758  0.4655
 6183TIP3   OH240039   4.710   5.251  14.229 -0.0420  0.0867  0.3208
 6183TIP3    H140040   4.759   5.172  14.206 -0.4574  0.5840 -2.7554
 6183TIP3    H240041   4.619   5.224  14.228 -0.3137  0.8260 -2.3906
 6184TIP3   OH240042   4.011   3.474  12.775 -0.0293 -0.2811  0.0326
 6184TIP3    H140043   4.075   3.539  12.746 -1.1026  1.1981  0.8582
 6184TIP3    H240044   3.979   3.507  12.859 -0.6488 -1.8704  0.4568
 6185TIP3   OH240045   0.700   3.836   2.566 -0.3413  0.0471  0.2384
 6185TIP3    H140046   0.652   3.754   2.553 -1.3282  0.9290 -2.2706
 6185TIP3    H240047   0.632   3.901   2.584  0.1932  0.7420 -0.2115
 6186TIP3   OH240048   2.413   3.871  14.351  0.2408 -0.8216  0.1270
 6186TIP3    H140049   2.401   3.785  14.393  0.0645 -1.1382 -0.5606
 6186TIP3    H240050   2.348   3.928  14.393 -2.5803 -2.0371 -2.2415
 6187TIP3   OH240051   6.326   2.163  15.884 -0.0941  0.1373 -0.2970
 6187TIP3    H140052   6.368   2.219  15.949 -0.5096 -0.4825  0.5357
 6187TIP3    H240053   6.393   2.100  15.859  0.9823  2.0707 -2.6440
 6188TIP3   OH240054   3.333   4.926   0.812  0.9228 -0.1077  0.0426
 6188TIP3    H140055   3.249   4.962   0.842  1.2950  0.9874 -0.1758
 6188TIP3    H240056   3.311   4.876   0.734  0.4460 -0.0052  0.1069
 6189TIP3   OH240057   0.819   2.462   1.428 -0.1920  0.2132 -0.0706
 6189TIP3    H140058   0.764   2.465   1.350 -0.9751  0.2245  0.4660
 6189TIP3    H240059   0.850   2.371   1.432 -3.0335 -0.8198  1.4963
 6190TIP3   OH240060   6.716   1.312  11.669 -0.2198 -0.1601 -0.9184
 6190TIP3    H140061   6.790   1.373  11.675 -1.0736  0.7491  3.4494
 6190TIP3    H240062   6.650   1.359  11.620  0.0388  1.4903  0.2433
 6191TIP3   OH240063   5.623   3.362   0.429 -0.0804  0.3522 -0.2826
 6191TIP3    H140064   5.607   3.270   0.452  2.6427 -0.4772 -1.2524
 6191TIP3    H240065   5.540   3.406   0.445 -1.3749 -2.2094  0.5712
 6192TIP3   OH240066   4.414   4.419  14.358  0.0269  0.1134  0.0674
 6192TIP3    H140067   4.348   4.391  14.422  0.9150 -1.6832  0.2569
 6192TIP3    H240068   4.452   4.498  14.397 -1.2626  0.5793  0.4522
 6193TIP3   OH240069   5.540   0.712  11.501  0.0242 -0.1976  0.0607
 6193TIP3    H140070   5.584   0.719  11.586 -1.4871 -1.2186  0.9793
 6193TIP3    H240071   5.583   0.637  11.459  0.1961 -0.2380  0.3021
 6194TIP3   OH240072   4.170   4.228  11.527  0.0704 -0.5468  0.0190
 6194TIP3    H140073   4.185   4.245  11.620 -1.6200 -1.4632  0.5018
 6194TIP3    H240074   4.187   4.311  11.484  0.4508  0.0054  1.2048
 6195TIP3   OH240075   1.764   1.568  15.888  0.3654  0.1193 -0.4819
 6195TIP3    H140076   1.771   1.474  15.905 -1.6227  0.3284  2.1647
 6195TIP3    H240077   1.839   1.606  15.933  0.3018 -0.0769 -0.2090
 6196TIP3   OH240078   6.574   3.163  14.048 -0.0322 -0.3883 -0.8260
 6196TIP3    H140079   6.529   3.238  14.086  0.0130 -0.6777 -0.1895
 6196TIP3    H240080   6.572   3.096  14.117 -0.4755 -1.1350 -1.5449
 6197TIP3   OH240081   6.405   5.446  15.871 -0.6379 -0.3443 -0.0324
 6197TIP3    H140082   6.322   5.419  15.832 -0.8826  0.5610 -0.1476
 6197TIP3    H240083   6.383   5.521  15.926  0.1935  0.2568 -0.5002
 6198TIP3   OH240084   4.408   0.992  15.069 -0.2233  0.4543  0.4026
 6198TIP3    H140085   4.384   1.038  14.989  0.2729  0.3346  0.1863
 6198TIP3    H240086   4.328   0.945  15.094 -0.2984  0.2588 -0.1828
 6199TIP3   OH240087   6.784   2.394  16.865 -0.1922  0.1428  0.6187
 6199TIP3    H140088   6.797   2.404  16.771 -0.7883  0.0529  0.5204
 6199TIP3    H240089   6.852   2.333  16.892  0.4598  0.7570  0.3824
 6200TIP3   OH240090   4.891   0.497   5.756 -0.5521  0.0530  0.2717
 6200TIP3    H140091   4.901   0.434   5.827 -3.0185  0.4749  1.0889
 6200TIP3    H240092   4.863   0.578   5.799 -1.1881  0.5914 -1.0888
 6201TIP3   OH240093   4.411   4.172  13.256  0.0160 -0.4477 -0.0994
 6201TIP3    H140094   4.411   4.081  13.285  0.7321 -1.1513 -2.1856
 6201TIP3    H240095   4.499   4.203  13.274 -0.3263 -0.0142  0.9383
 6202TIP3   OH240096   3.854   2.222  13.988 -0.0021  0.6139 -0.1527
 6202TIP3    H140097   3.811   2.215  13.903  0.2845 -1.7974 -0.1799
 6202TIP3    H240098   3.946   2.241  13.968  0.0709  0.0172 -0.4035
 6203TIP3   OH240099   6.172   4.495   4.440 -0.2048 -0.0952 -0.0085
 6203TIP3    H140100   6.215   4.542   4.368  0.8003  0.3975  0.8815
 6203TIP3    H240101   6.192   4.547   4.517 -0.8777 -0.8699  0.7026
 6204TIP3   OH240102   0.161   1.523  14.003  0.0885  0.4760 -0.6620
 6204TIP3    H140103   0.096   1.580  14.043 -2.9520 -0.9528 -3.1599
 6204TIP3    H240104   0.170   1.450  14.065 -2.6027 -0.4774 -1.2817
 6205TIP3   OH240105   2.920   3.772   3.075  0.3787 -0.6818 -0.1431
 6205TIP3    H140106   2.855   3.727   3.021  1.1412 -3.2304  0.8828
 6205TIP3    H240107   2.978   3.702   3.106  3.2919  1.3400 -0.5293
 6206TIP3   OH240108   1.087   3.316   3.516 -0.2324 -0.0147 -0.3005
 6206TIP3    H140109   1.122   3.374   3.449  0.5603  0.2125  0.2854
 6206TIP3    H240110   1.165   3.278   3.558 -0.7267 -0.9093 -0.1657
 6207TIP3   OH240111   6.703   4.401  17.226  0.3915  0.2509  0.1725
 6207TIP3    H140112   6.700   4.459  17.302  0.6491  0.5982 -0.0785
 6207TIP3    H240113   6.781   4.429  17.177 -0.2374  0.5964 -0.6589
 6208TIP3   OH240114   6.589   2.353   5.626 -0.1173  0.2584  0.0682
 6208TIP3    H140115   6.500   2.347   5.593 -0.5045 -2.4595  1.3577
 6208TIP3    H240116   6.580   2.380   5.717  0.4579  0.7676 -0.0124
 6209TIP3   OH240117   3.023   2.955  14.320  0.2137  0.0497  0.1728
 6209TIP3    H140118   3.057   2.907  14.245 -1.2185 -0.6695 -0.0569
 6209TIP3    H240119   2.947   2.903  14.349 -2.0904  2.6515 -0.7598
 6210TIP3   OH240120   0.044   0.727   4.950 -0.0375  0.0309  0.1637
 6210TIP3    H140121  -0.044   0.689   4.939 -0.9497  1.6556  1.3403
 6210TIP3    H240122   0.082   0.725   4.862 -1.2892 -0.6008 -0.3989
 6211TIP3   OH240123   4.358   6.763   3.577  0.3410 -0.0998 -1.0729
 6211TIP3    H140124   4.296   6.836   3.589  0.7685  0.0917  0.1649
 6211TIP3    H240125   4.392   6.775   3.489 -2.9556 -1.4497 -2.7180
 6212TIP3   OH240126   1.632   6.640   1.155 -0.1959 -0.1787  0.4209
 6212TIP3    H140127   1.693   6.702   1.116  2.3171 -2.1447  0.9825
 6212TIP3    H240128   1.645   6.650   1.250 -0.2707 -1.0338  0.5322
 6213TIP3   OH240129   3.787   5.239  14.942 -0.0539  0.2185  0.3864
 6213TIP3    H140130   3.732   5.239  15.020 -1.9320  0.2172 -0.8486
 6213TIP3    H240131   3.831   5.323  14.943  0.3437  0.0062  1.6944
 6214TIP3   OH240132   4.990   0.576  12.549 -0.9683 -0.1987  0.7874
 6214TIP3    H140133   4.983   0.556  12.643 -1.0689 -0.4186  0.7333
 6214TIP3    H240134   4.900   0.567  12.516 -0.8251 -0.7659  0.5432
 6215TIP3   OH240135   5.899   2.620  16.069  0.2140  0.1023  0.5533
 6215TIP3    H140136   5.956   2.544  16.079  0.8670  0.3091 -1.2787
 6215TIP3    H240137   5.956   2.695  16.082 -0.2383  0.3148  1.4227
 6216TIP3   OH240138   3.016   0.687  14.898  0.5770  0.1312 -0.5593
 6216TIP3    H140139   2.966   0.685  14.817 -0.3918  0.5152  0.0148
 6216TIP3    H240140   3.074   0.763  14.889 -3.0553  3.4171  1.0793
 6217TIP3   OH240141   0.631   5.834  15.174  0.5949 -0.1259  0.2184
 6217TIP3    H140142   0.671   5.805  15.255  1.2603  0.2484  0.0307
 6217TIP3    H240143   0.644   5.762  15.113 -1.9360 -1.4080  1.0357
 6218TIP3   OH240144   1.891   4.145  16.908  0.2677 -0.2426 -0.2305
 6218TIP3    H140145   1.967   4.087  16.900  0.4531 -0.0892  0.3966
 6218TIP3    H240146   1.928   4.229  16.936 -0.2062 -0.3793  0.8399
 6219TIP3   OH240147   6.099   0.867  15.518 -0.3273 -0.7969 -0.1346
 6219TIP3    H140148   6.046   0.856  15.597 -0.3480 -2.9346 -0.4032
 6219TIP3    H240149   6.189   0.876  15.550 -0.6561  1.7886  0.2629
 6220TIP3   OH240150   3.218   5.870  15.706  1.1999  0.1486 -0.7203
 6220TIP3    H140151   3.206   5.798  15.645  1.7836 -0.0842 -0.5685
 6220TIP3    H240152   3.130   5.889  15.739  1.1906 -1.3767  0.2338
 6221TIP3   OH240153   3.187   2.381  16.971 -0.0636 -0.1189 -0.2651
 6221TIP3    H140154   3.237   2.346  16.897  0.5370  0.3043 -0.0691
 6221TIP3    H240155   3.161   2.303  17.021  1.2980 -0.2937  0.1939
 6222TIP3   OH240156   3.868   0.107  15.561 -0.6866  0.2880 -0.6807
 6222TIP3    H140157   3.874   0.161  15.482 -0.8162  0.1189 -0.8054
 6222TIP3    H240158   3.870   0.017  15.529 -2.5885  0.1951 -0.6380
 6223TIP3   OH240159   5.211   1.525  15.920 -0.4167 -0.4921  0.0654
 6223TIP3    H140160   5.188   1.586  15.990 -0.9117 -0.3525 -0.2178
 6223TIP3    H240161   5.233   1.580  15.846  1.9952 -0.5720  0.6424
 6224TIP3   OH240162   0.591   5.961  13.450 -0.1818  0.0569  0.0356
 6224TIP3    H140163   0.640   5.902  13.507  0.3008  0.3814 -0.0290
 6224TIP3    H240164   0.580   6.041  13.502  1.4373  0.8498 -0.7732
 6225TIP3   OH240165   6.803   4.048   5.735 -0.2788  0.5268 -0.2710
 6225TIP3    H140166   6.871   4.088   5.789  1.0474 -2.9317  0.9463
 6225TIP3    H240167   6.731   4.031   5.795 -0.7361  0.8471 -0.7163
 6226TIP3   OH240168   4.516   3.742  12.404  0.3816 -0.2608 -0.1687
 6226TIP3    H140169   4.609   3.763  12.390  0.5929  0.0684  1.5238
 6226TIP3    H240170   4.485   3.714  12.318  1.2465  2.5577 -1.5048
 6227TIP3   OH240171   6.553   0.651   5.511  0.2011  0.8728  0.2234
 6227TIP3    H140172   6.603   0.706   5.451 -0.7629  0.4744 -0.9755
 6227TIP3    H240173   6.499   0.713   5.560  0.8834  1.1877  0.5886
 6228TIP3   OH240174   6.145   1.623  14.385  0.5183  0.3302  0.1142
 6228TIP3    H140175   6.130   1.682  14.459  0.9949  0.4040  0.1607
 6228TIP3    H240176   6.237   1.639  14.361  1.6785 -2.5299  2.0372
 6229TIP3   OH240177   2.653   2.703   6.122 -0.1299 -0.2832 -0.0655
 6229TIP3    H140178   2.597   2.779   6.110  0.0572 -0.0447  0.5184
 6229TIP3    H240179   2.646   2.683   6.216  0.6641 -0.3180 -0.0058
 6230TIP3   OH240180   0.487   6.658  15.918 -0.4883 -0.3100  0.3819
 6230TIP3    H140181   0.582   6.656  15.929 -0.5062 -0.6675  0.5041
 6230TIP3    H240182   0.469   6.581  15.863 -0.6076  0.2989 -0.4538
 6231TIP3   OH240183   0.181   5.713   3.630 -0.0128  0.0502  0.0107
 6231TIP3    H140184   0.258   5.671   3.668 -0.6899  0.0669  1.5082
 6231TIP3    H240185   0.112   5.647   3.639 -0.1836  0.0208 -1.3432
 6232TIP3   OH240186   5.215   2.568   3.206  0.1216 -0.5526  0.3464
 6232TIP3    H140187   5.163   2.488   3.199  0.0758 -0.5273  0.3969
 6232TIP3    H240188   5.272   2.566   3.130  1.2007 -1.4049  1.1476
 6233TIP3   OH240189   6.685   4.412  15.549  0.0098  0.3138  0.5257
 6233TIP3    H140190   6.715   4.482  15.490 -1.2390  0.0111 -0.5046
 6233TIP3    H240191   6.657   4.459  15.628 -0.1683  0.9113  0.1190
 6234TIP3   OH240192   1.215   3.998  13.826 -0.8269 -0.1622  0.7655
 6234TIP3    H140193   1.217   4.044  13.910 -0.9323  0.6984  0.3048
 6234TIP3    H240194   1.131   4.021  13.788  0.5826  2.3402 -1.1352
 6235TIP3   OH240195   0.662   1.456  11.201  0.2638 -0.3768 -0.0686
 6235TIP3    H140196   0.697   1.524  11.142 -1.8374 -0.8307 -1.9844
 6235TIP3    H240197   0.597   1.411  11.148  0.0977 -2.5357  1.8604
 6236TIP3   OH240198   6.573   2.381   0.327 -0.0976 -0.2780  0.1791
 6236TIP3    H140199   6.594   2.427   0.246 -1.3684  1.4814  0.7777
 6236TIP3    H240200   6.525   2.303   0.300  1.2566 -0.8002 -0.8199
 6237TIP3   OH240201   5.040   0.194   4.486  0.3470 -0.0305 -0.0671
 6237TIP3    H140202   5.099   0.204   4.411  1.5090 -0.8490  0.7044
 6237TIP3    H240203   5.000   0.108   4.473  1.9786 -1.0314  1.1772
 6238TIP3   OH240204   6.628   2.600  17.011 -0.0224 -0.3832 -0.3755
 6238TIP3    H140205   6.677   2.527  16.973  0.6228  0.0619 -0.4210
 6238TIP3    H240206   6.689   2.674  17.007 -1.0219  0.4200 -1.2871
 6239TIP3   OH240207   0.210   3.102  11.118 -0.2270 -0.0520  0.1951
 6239TIP3    H140208   0.134   3.153  11.089  0.3654  0.5379 -0.3318
 6239TIP3    H240209   0.207   3.022  11.065 -0.9820 -0.4448  0.8068
 6240TIP3   OH240210   0.080   0.787  11.824 -0.1902  0.0556 -0.0763
 6240TIP3    H140211   0.143   0.716  11.837  1.2526  1.3086  0.0888
 6240TIP3    H240212   0.057   0.781  11.731  0.8258  0.0828 -0.3429
 6241TIP3   OH240213   3.764   1.621   5.613  0.0214 -0.3785  0.1710
 6241TIP3    H140214   3.676   1.583   5.615 -1.2950  2.1608 -2.5750
 6241TIP3    H240215   3.768   1.675   5.692 -1.6576  0.8962 -0.5488
 6242TIP3   OH240216   4.690   1.524  13.637 -0.3185 -0.1459 -0.3894
 6242TIP3    H140217   4.712   1.579  13.712 -0.6681 -0.9108  0.2777
 6242TIP3    H240218   4.768   1.528  13.581 -0.7659  1.9802 -0.9484
 6243TIP3   OH240219   2.891   1.029  12.833 -0.4918 -0.1048  0.0143
 6243TIP3    H140220   2.894   0.997  12.743 -0.7819 -1.3470  0.4231
 6243TIP3    H240221   2.872   1.122  12.825 -0.4256 -0.1828 -1.2107
 6244TIP3   OH240222   5.723   0.471   0.399  0.4094  0.6111  0.5913
 6244TIP3    H140223   5.631   0.447   0.405  0.6177 -0.1861  0.6369
 6244TIP3    H240224   5.722   0.563   0.373 -0.3960  0.5759  0.4835
 6245TIP3   OH240225   4.365   6.810   6.257  0.3758 -0.2853  0.1728
 6245TIP3    H140226   4.455   6.833   6.237 -0.0949  1.4076 -0.1708
 6245TIP3    H240227   4.340   6.749   6.187  0.6500  0.7990 -0.9150
 6246TIP3   OH240228   0.881   6.729  14.471  0.1547  0.3410  0.2748
 6246TIP3    H140229   0.957   6.720  14.529 -0.0237  2.1725  0.8846
 6246TIP3    H240230   0.811   6.762  14.528 -0.5278  0.5539 -0.6509
 6247TIP3   OH240231   4.581   4.810  15.796 -0.5281 -0.1738  0.1904
 6247TIP3    H140232   4.508   4.868  15.777 -1.6755 -1.5288  0.3364
 6247TIP3    H240233   4.627   4.852  15.868 -1.3476  0.5317  0.3150
 6248TIP3   OH240234   1.115   2.731   1.590 -0.0738  0.0851  0.1041
 6248TIP3    H140235   1.203   2.748   1.624  0.2985  0.1521 -0.8687
 6248TIP3    H240236   1.061   2.802   1.626  0.6175  0.9999 -0.6288
 6249TIP3   OH240237   5.992   2.721   3.547 -0.2016 -0.2238  0.3823
 6249TIP3    H140238   6.011   2.658   3.477 -1.4919  0.7250 -0.8856
 6249TIP3    H240239   5.936   2.673   3.608 -0.4152 -0.5894 -0.0923
 6250TIP3   OH240240   2.163   5.209  12.327  0.2283 -0.2027  0.8968
 6250TIP3    H140241   2.223   5.213  12.252 -1.4406  0.3210 -0.4910
 6250TIP3    H240242   2.125   5.121  12.321 -2.4150  0.9188 -1.0539
 6251TIP3   OH240243   6.402   5.853  13.804  0.0570 -0.2201 -0.1870
 6251TIP3    H140244   6.330   5.839  13.865  1.4846 -2.4615  1.1521
 6251TIP3    H240245   6.453   5.925  13.843  0.8591 -1.5163  1.2509
 6252TIP3   OH240246   2.170   1.089   5.684 -0.4476  0.2532  0.5635
 6252TIP3    H140247   2.177   1.123   5.773 -1.2934 -1.0583  1.1561
 6252TIP3    H240248   2.203   1.160   5.628 -2.5095  2.2031  1.7023
 6253TIP3   OH240249   3.998   5.994  12.989 -0.1678  0.2321 -0.0161
 6253TIP3    H140250   4.082   5.949  12.977 -0.0685  0.7648 -1.4505
 6253TIP3    H240251   3.952   5.984  12.906 -0.2397  2.5573 -0.3239
 6254TIP3   OH240252   0.643   3.948   4.815  0.3225  0.4077 -0.2025
 6254TIP3    H140253   0.723   3.897   4.827 -0.1149 -0.6801 -1.6150
 6254TIP3    H240254   0.624   3.941   4.722 -0.1006  2.6928 -0.3418
 6255TIP3   OH240255   3.611   3.249  15.175 -0.2545  0.0230 -1.0696
 6255TIP3    H140256   3.553   3.281  15.244  1.5324 -1.8012  1.4297
 6255TIP3    H240257   3.598   3.154  15.175  1.3489 -0.2248 -1.7635
 6256TIP3   OH240258   5.950   3.093  15.197  0.3323 -0.0782  0.6830
 6256TIP3    H140259   5.982   3.062  15.112  0.2065  0.2718  0.5075
 6256TIP3    H240260   5.857   3.072  15.197  0.4048 -0.4147  0.8895
 6257TIP3   OH240261   2.341   5.416  16.751  0.0439  0.1633  0.8305
 6257TIP3    H140262   2.418   5.397  16.805  0.9820  2.0707  0.2510
 6257TIP3    H240263   2.358   5.503  16.716  0.6372 -1.7043 -4.4519
 6258TIP3   OH240264   4.074   5.423  16.978 -0.5762 -0.3550  0.0963
 6258TIP3    H140265   4.170   5.425  16.984 -0.3852  1.1882 -2.1599
 6258TIP3    H240266   4.053   5.332  16.957  0.5471 -0.4586 -0.7018
 6259TIP3   OH240267   0.274   0.660   0.063  0.1464 -0.2387 -0.6006
 6259TIP3    H140268   0.194   0.634   0.109  0.2718 -1.5496 -1.0865
 6259TIP3    H240269   0.262   0.754   0.046  0.1054  0.3209  2.0543
 6260TIP3   OH240270   0.252   5.463  13.698 -0.1179 -0.0320  0.1490
 6260TIP3    H140271   0.289   5.531  13.642  0.5726  0.5125  1.2152
 6260TIP3    H240272   0.278   5.381  13.656  0.1417  0.3576 -0.4769
 6261TIP3   OH240273   6.292   3.635   5.389 -0.1914  0.2149 -0.1866
 6261TIP3    H140274   6.343   3.706   5.350 -0.5009  0.4429 -0.1805
 6261TIP3    H240275   6.357   3.568   5.409 -0.0173  0.1213 -1.0254
 6262TIP3   OH240276   3.355   5.030   2.857 -0.1097 -0.7036 -0.4562
 6262TIP3    H140277   3.320   5.073   2.935 -0.4401 -0.4826 -0.7234
 6262TIP3    H240278   3.415   5.094   2.819  0.3130 -0.9413 -0.2016
 6263TIP3   OH240279   6.524   1.124   3.867  0.0346  0.3381 -0.2490
 6263TIP3    H140280   6.483   1.098   3.949 -0.6173  4.6348  1.0440
 6263TIP3    H240281   6.452   1.133   3.805  0.1796 -0.2586 -0.5139
 6264TIP3   OH240282   1.195   0.771  12.503  0.5021  0.4547  0.9559
 6264TIP3    H140283   1.260   0.782  12.572  1.0636 -1.1042  0.7300
 6264TIP3    H240284   1.115   0.747  12.548  0.6567  0.2569  1.1286
 6265TIP3   OH240285   5.539   4.106   3.176  0.0485  0.6353  0.4004
 6265TIP3    H140286   5.558   4.097   3.269  1.7472  1.7144  0.2170
 6265TIP3    H240287   5.611   4.060   3.132 -2.9743 -3.8339 -0.5318
 6266TIP3   OH240288   6.434   0.017   0.912 -0.6077 -0.3934 -0.3843
 6266TIP3    H140289   6.463  -0.067   0.948  0.7650 -0.4803 -1.6028
 6266TIP3    H240290   6.409   0.068   0.989  1.4975 -0.8459  0.7029
 6267TIP3   OH240291   6.458   5.443  11.537 -0.6909 -0.4338 -0.2097
 6267TIP3    H140292   6.508   5.370  11.501  0.4286  0.0621  0.2678
 6267TIP3    H240293   6.525   5.507  11.561 -1.3443 -0.7494  2.7917
 6268TIP3   OH240294   0.201   0.691   0.498  0.3332 -0.0030 -0.7818
 6268TIP3    H140295   0.238   0.617   0.450 -1.7024 -1.8920  0.4003
 6268TIP3    H240296   0.235   0.682   0.587 -0.0437  0.4168 -0.5908
 6269TIP3   OH240297   3.469   2.717   1.551 -0.2946 -0.2317  0.1100
 6269TIP3    H140298   3.418   2.767   1.487 -1.4087 -0.1576  1.0398
 6269TIP3    H240299   3.434   2.743   1.636 -0.2607 -1.8797  0.6691
 6270TIP3   OH240300   2.756   2.063   1.551  0.7073  0.4437  0.2177
 6270TIP3    H140301   2.822   2.009   1.594  0.1973 -0.2153  0.1948
 6270TIP3    H240302   2.675   2.013   1.559 -0.0177  1.6944  1.1361
 6271TIP3   OH240303   3.125   6.002  15.255 -0.4242  0.9441 -0.4635
 6271TIP3    H140304   3.035   5.982  15.284 -0.3545  0.9407 -0.2471
 6271TIP3    H240305   3.127   6.097  15.250 -0.2392  0.9750  0.1851
 6272TIP3   OH240306   2.184   0.166  15.274  0.1212 -0.2958  0.8198
 6272TIP3    H140307   2.214   0.151  15.364 -1.1351 -0.0534  1.3039
 6272TIP3    H240308   2.089   0.155  15.278 -0.0016  0.1461 -0.3952
 6273TIP3   OH240309   5.283   6.622   5.036 -0.5466 -0.0601 -0.3835
 6273TIP3    H140310   5.259   6.618   4.944  0.2264  0.8500 -0.6394
 6273TIP3    H240311   5.202   6.644   5.082 -0.5205  1.5650 -1.0698
 6274TIP3   OH240312   0.060   3.101   0.245  0.3761 -0.1877 -0.5197
 6274TIP3    H140313   0.087   3.175   0.191  0.9515  2.0877  2.6293
 6274TIP3    H240314  -0.031   3.121   0.269 -0.3016 -1.8067 -1.5262
 6275TIP3   OH240315   0.125   1.069  11.794  0.4535  0.5265 -0.0247
 6275TIP3    H140316   0.092   0.979  11.787  2.9733 -0.7433  2.4196
 6275TIP3    H240317   0.156   1.091  11.706 -1.1705 -0.5091 -0.9121
 6276TIP3   OH240318   5.406   1.326  15.916 -0.5156  0.3846  0.6818
 6276TIP3    H140319   5.336   1.261  15.909  0.6070 -0.7096 -2.2699
 6276TIP3    H240320   5.364   1.409  15.896 -1.1886 -0.1395 -0.1720
 6277TIP3   OH240321   6.376   6.459   5.184 -1.0234 -0.4174 -0.2716
 6277TIP3    H140322   6.376   6.383   5.242 -0.3680  0.7418  1.3110
 6277TIP3    H240323   6.437   6.436   5.114 -1.0887 -1.4718  0.0064
 6278TIP3   OH240324   4.935   1.094   3.067 -1.4941 -0.1004 -0.1646
 6278TIP3    H140325   4.981   1.021   3.026 -0.6681 -0.7146  1.7665
 6278TIP3    H240326   4.905   1.147   2.993  0.5885 -0.7270 -1.5495
 6279TIP3   OH240327   6.227   0.197  13.437 -0.2409 -0.1265 -0.1471
 6279TIP3    H140328   6.180   0.239  13.365  1.7548  0.8014 -0.9793
 6279TIP3    H240329   6.252   0.111  13.403  2.0396  0.8904 -1.2163
 6280TIP3   OH240330   0.309   3.415   0.785  0.1411 -0.2752 -0.6582
 6280TIP3    H140331   0.402   3.430   0.802  0.5682 -2.6713 -0.4174
 6280TIP3    H240332   0.266   3.497   0.808  2.1016  0.6029  0.0723
 6281TIP3   OH240333   1.441   3.873  11.556  0.4089 -0.0895 -0.2125
 6281TIP3    H140334   1.392   3.872  11.474  0.5076 -2.4951 -0.3145
 6281TIP3    H240335   1.509   3.807  11.543  0.3211 -0.6451  1.8647
 6282TIP3   OH240336   4.346   5.217  15.581 -0.1430 -0.3137  0.2234
 6282TIP3    H140337   4.314   5.240  15.494  1.9182 -1.1669 -0.8438
 6282TIP3    H240338   4.393   5.295  15.610 -2.7433  0.8395  1.6716
 6283TIP3   OH240339   6.417   5.975  12.936  0.0787 -0.0932 -0.3814
 6283TIP3    H140340   6.412   5.894  12.885 -0.1029 -0.3257 -0.0019
 6283TIP3    H240341   6.343   6.027  12.906 -0.1997 -0.3517 -0.1535
 6284TIP3   OH240342   6.005   1.532  17.053 -0.1651  0.5855 -0.6210
 6284TIP3    H140343   6.082   1.535  16.996  0.3949  0.5125  0.1058
 6284TIP3    H240344   5.931   1.539  16.994  0.4280  2.4017 -1.2079
 6285TIP3   OH240345   4.066   4.381  15.779  0.8601 -0.4150  0.7000
 6285TIP3    H140346   4.042   4.290  15.766 -0.5064 -0.0475  0.5153
 6285TIP3    H240347   4.120   4.381  15.858  0.4465 -1.3223  0.9873
 6286TIP3   OH240348   3.926   2.640  14.886 -0.5996 -0.2452  0.3931
 6286TIP3    H140349   3.892   2.569  14.941 -1.6032 -2.1910 -2.4943
 6286TIP3    H240350   4.020   2.626  14.884 -0.3344  0.7258  2.5949
 6287TIP3   OH240351   4.572   0.672   2.250 -0.0321 -0.0697  1.1703
 6287TIP3    H140352   4.602   0.598   2.199 -1.9004  0.4358 -0.7825
 6287TIP3    H240353   4.523   0.633   2.323 -0.3371 -0.7728  0.5980
 6288TIP3   OH240354   3.544   6.800  17.077  0.4173  0.0988  0.4190
 6288TIP3    H140355   3.606   6.826  17.008  0.7966 -1.2529  0.2267
 6288TIP3    H240356   3.476   6.751  17.031 -1.0252  1.8185  0.5842
 6289TIP3   OH240357   2.169   5.175   3.150  0.1738  0.7696  0.1289
 6289TIP3    H140358   2.252   5.208   3.185  1.6257 -0.1186 -2.2790
 6289TIP3    H240359   2.165   5.084   3.181  0.7978  0.4000 -0.8276
 6290TIP3   OH240360   5.437   6.219  16.716 -0.1064 -0.4048 -0.0855
 6290TIP3    H140361   5.423   6.308  16.683  1.6149 -0.5281 -1.2293
 6290TIP3    H240362   5.415   6.224  16.809 -2.0705  0.6926 -0.5585
 6291TIP3   OH240363   3.612   6.745   5.306 -0.2224  0.1652 -0.3126
 6291TIP3    H140364   3.586   6.782   5.390  0.9769 -1.0956  0.6482
 6291TIP3    H240365   3.596   6.816   5.243 -0.4450  1.3834  1.0725
 6292TIP3   OH240366   2.420   3.045   0.812  0.0047 -0.1874 -0.6230
 6292TIP3    H140367   2.387   3.059   0.723 -0.6735 -0.1614 -0.3759
 6292TIP3    H240368   2.450   3.131   0.840 -0.6293 -0.0030 -0.4959
 6293TIP3   OH240369   3.954   0.668  17.066 -0.8134  0.6260 -0.3973
 6293TIP3    H140370   3.945   0.663  17.161 -1.3675  0.7202 -0.4398
 6293TIP3    H240371   3.865   0.660  17.033 -0.8878  2.5654 -0.8157
 6294TIP3   OH240372   3.095   6.144   2.083 -0.5969 -0.1121  0.3984
 6294TIP3    H140373   3.126   6.233   2.068  0.1732 -0.6523 -1.5067
 6294TIP3    H240374   3.090   6.105   1.996 -0.5680 -2.0460  1.2073
 6295TIP3   OH240375   0.456   0.976   1.411  0.2462  0.0758 -0.4597
 6295TIP3    H140376   0.500   0.905   1.458 -0.0741  0.0866 -0.1306
 6295TIP3    H240377   0.523   1.042   1.399  1.0827 -1.0628 -2.5123
 6296TIP3   OH240378   0.052   1.088  15.805 -0.5200 -0.2400 -0.1420
 6296TIP3    H140379   0.071   1.170  15.850  1.3735 -0.7300  0.0406
 6296TIP3    H240380   0.025   1.114  15.717 -2.1618  0.6351  0.5773
 6297TIP3   OH240381   4.311   2.958  12.151  0.0269  0.1945  0.2410
 6297TIP3    H140382   4.390   3.003  12.122  0.8682 -0.1803  1.8226
 6297TIP3    H240383   4.318   2.870  12.113  0.3906  0.1598  0.3822
 6298TIP3   OH240384   4.823   1.417  12.521 -0.3494 -0.8750 -0.4158
 6298TIP3    H140385   4.793   1.399  12.432 -0.1895 -1.3205 -0.3855
 6298TIP3    H240386   4.826   1.512  12.527 -1.2318 -0.8323 -0.5906
 6299TIP3   OH240387   6.283   6.597  16.274  0.0223 -0.2618 -0.3289
 6299TIP3    H140388   6.349   6.571  16.210  0.3305  1.5451 -0.7798
 6299TIP3    H240389   6.319   6.675  16.315 -0.8051 -0.5928  1.0882
 6300TIP3   OH240390   0.792   2.623  15.571  0.3438  0.2051  0.2582
 6300TIP3    H140391   0.767   2.579  15.651 -1.5893  0.6818 -0.0344
 6300TIP3    H240392   0.804   2.553  15.507  1.1591 -0.1234  0.7638
 6301TIP3   OH240393   6.634   4.625  13.101  0.5423 -0.2054  0.4558
 6301TIP3    H140394   6.544   4.604  13.124  0.0645  0.7052 -0.4705
 6301TIP3    H240395   6.687   4.559  13.146 -0.6587 -1.4869  0.0527
 6302TIP3   OH240396   2.993   1.515  16.330  0.3091 -0.5875 -0.8748
 6302TIP3    H140397   2.972   1.451  16.397 -1.8229  1.1558  0.2623
 6302TIP3    H240398   3.087   1.530  16.339  0.5628 -2.4035 -0.1773
 6303TIP3   OH240399   5.773   1.064  16.907  0.0750  0.0761 -0.2521
 6303TIP3    H140400   5.697   1.009  16.888  0.9191 -0.5480 -2.1171
 6303TIP3    H240401   5.736   1.148  16.932 -1.2381 -0.5427 -0.0365
 6304TIP3   OH240402   2.712   2.825  11.129  0.0742  0.1543 -0.2499
 6304TIP3    H140403   2.673   2.752  11.177  1.1724  0.1006  0.5768
 6304TIP3    H240404   2.675   2.818  11.041 -0.6031 -0.7907  0.0963
 6305TIP3   OH240405   6.365   5.999   0.102 -0.4817  0.2135  0.2077
 6305TIP3    H140406   6.329   5.914   0.080 -0.5754  0.4411 -0.5599
 6305TIP3    H240407   6.442   5.980   0.156  0.0769 -0.3964 -0.7859
 6306TIP3   OH240408   3.415   3.684   0.294  0.1062  0.1806  0.2447
 6306TIP3    H140409   3.489   3.662   0.351 -1.2135 -0.0797  1.9593
 6306TIP3    H240410   3.399   3.604   0.244  0.9299  0.2277 -0.1152
 6307TIP3   OH240411   1.203   3.370  14.775 -0.1256 -0.3144 -0.2051
 6307TIP3    H140412   1.138   3.355  14.843  0.5574  0.9663  0.7682
 6307TIP3    H240413   1.248   3.450  14.802  0.0204  0.3504 -2.2843
 6308TIP3   OH240414   5.254   4.829  10.976 -0.2848  0.1812 -0.3223
 6308TIP3    H140415   5.309   4.852  11.051 -1.1617  0.9789  0.0916
 6308TIP3    H240416   5.261   4.904  10.917 -3.4253  1.8242  1.1825
 6309TIP3   OH240417   0.213   4.036   3.400 -0.5096 -0.3439  0.3097
 6309TIP3    H140418   0.206   4.029   3.495 -0.8714  0.8608  0.3831
 6309TIP3    H240419   0.193   3.948   3.368 -3.6260 -0.0828  1.1945
 6310TIP3   OH240420   1.082   0.401  16.705 -0.0828  0.1410 -0.4004
 6310TIP3    H140421   0.989   0.378  16.700  0.2069 -0.9589 -1.0632
 6310TIP3    H240422   1.121   0.359  16.629  0.7292  1.8090 -0.9504
 6311TIP3   OH240423   1.111   5.731  15.011 -0.0717  0.9339 -0.1654
 6311TIP3    H140424   1.074   5.780  14.937  0.4035  2.0260  0.2885
 6311TIP3    H240425   1.205   5.750  15.006  0.4951 -1.7504 -1.2768
 6312TIP3   OH240426   0.333   6.187   3.904 -0.3484  0.6947 -0.3057
 6312TIP3    H140427   0.374   6.215   3.822  0.3095  0.4471 -0.0687
 6312TIP3    H240428   0.307   6.269   3.946  0.2104  0.8796 -0.3055
 6313TIP3   OH240429   3.362   5.192  13.848 -0.8040  0.5175  0.4624
 6313TIP3    H140430   3.369   5.128  13.778 -2.2193 -0.1339  0.8818
 6313TIP3    H240431   3.434   5.254  13.832  1.5712 -1.9578  0.8922
 6314TIP3   OH240432   3.917   4.945  15.359  0.1019  0.1543 -0.4944
 6314TIP3    H140433   3.831   4.903  15.359 -0.6145  1.5588 -1.0118
 6314TIP3    H240434   3.951   4.932  15.271 -0.5786  1.5018 -0.9819
 6315TIP3   OH240435   1.259   5.696   5.893 -0.3476  0.4617  0.0577
 6315TIP3    H140436   1.277   5.763   5.827 -1.8482 -0.2688 -1.1656
 6315TIP3    H240437   1.203   5.739   5.957  0.1453  0.8406  0.2451
 6316TIP3   OH240438   5.495   4.926  16.763 -0.2457  0.6573 -0.4526
 6316TIP3    H140439   5.535   4.910  16.848 -1.7539 -0.4452  0.0872
 6316TIP3    H240440   5.562   4.900  16.700  1.1412  2.1296  0.3563
 6317TIP3   OH240441   2.166   5.949   4.642 -0.0387  0.5591  0.1494
 6317TIP3    H140442   2.180   6.023   4.583 -0.2920  0.6784  0.2379
 6317TIP3    H240443   2.098   5.897   4.599  1.1610 -0.4011 -0.6408
 6318TIP3   OH240444   2.047   0.811  15.454  0.0713 -0.0087 -0.2119
 6318TIP3    H140445   2.125   0.847  15.413  0.0604  0.5937  0.2790
 6318TIP3    H240446   2.068   0.719  15.470 -0.3367 -0.5811 -2.5756
 6319TIP3   OH240447   1.746   1.187  10.663  0.0775  0.2476  0.2776
 6319TIP3    H140448   1.656   1.165  10.637 -0.4116  2.4132 -0.0710
 6319TIP3    H240449   1.782   1.233  10.588  1.5703 -0.7153  0.3643
 6320TIP3   OH240450   6.459   5.213  15.178  0.5327 -0.1246  0.3477
 6320TIP3    H140451   6.414   5.190  15.097 -1.7510  1.6716  1.0122
 6320TIP3    H240452   6.400   5.181  15.247  1.4997  0.0855  1.2887
 6321TIP3   OH240453   0.412   4.129  11.115 -0.5673 -0.5494  0.0150
 6321TIP3    H140454   0.397   4.093  11.202 -0.5606 -0.8390 -0.1016
 6321TIP3    H240455   0.362   4.071  11.057 -0.1028 -0.7028 -0.2360
 6322TIP3   OH240456   6.004   4.398  12.127 -0.5319  0.1383  0.5033
 6322TIP3    H140457   6.002   4.461  12.055 -2.2560 -0.1079  0.2756
 6322TIP3    H240458   6.047   4.321  12.091  1.2109  0.9991  0.6531
 6323TIP3   OH240459   4.613   0.539  13.035 -0.0214 -0.4597 -0.1102
 6323TIP3    H140460   4.657   0.621  13.013  0.6377 -0.5854  0.6814
 6323TIP3    H240461   4.544   0.565  13.096  0.8366 -0.5839  0.9558
 6324TIP3   OH240462   0.002   2.352  14.014  0.5452 -0.3266 -0.3642
 6324TIP3    H140463  -0.077   2.402  13.996  0.2071 -1.4698 -2.3586
 6324TIP3    H240464   0.073   2.407  13.981  0.2494 -0.6979 -1.7123
 6325TIP3   OH240465   2.435   0.299  14.592 -0.4598 -0.2330  0.5835
 6325TIP3    H140466   2.411   0.206  14.587 -0.8912 -0.2453  2.2650
 6325TIP3    H240467   2.443   0.316  14.685  2.8425  0.6526  0.2407
 6326TIP3   OH240468   2.246   4.180  12.586 -0.2633  0.5227 -0.4313
 6326TIP3    H140469   2.336   4.198  12.560 -0.2140  0.3599 -0.3749
 6326TIP3    H240470   2.235   4.086  12.572 -0.5213  0.5948 -0.7316
 6327TIP3   OH240471   5.226   1.661  14.505 -0.3422 -0.2170  0.2168
 6327TIP3    H140472   5.188   1.582  14.467  1.6459 -0.5567 -1.1979
 6327TIP3    H240473   5.316   1.636  14.529  0.0036  1.3491  0.6668
 6328TIP3   OH240474   2.522   6.336  15.427 -0.2225  0.3445  0.5406
 6328TIP3    H140475   2.537   6.410  15.486  0.5541  0.7616 -0.1562
 6328TIP3    H240476   2.583   6.351  15.354 -1.6539  0.2327 -0.7259
 6329TIP3   OH240477   5.243   6.533  15.850 -0.1608 -0.0310  0.5004
 6329TIP3    H140478   5.303   6.467  15.816  1.6265  1.8195 -0.1700
 6329TIP3    H240479   5.172   6.536  15.786 -0.3286 -1.3322  0.5973
 6330TIP3   OH240480   2.971   2.280  16.640 -0.7405  0.6031 -0.2799
 6330TIP3    H140481   3.005   2.219  16.704 -0.1541  1.6824  0.4762
 6330TIP3    H240482   3.012   2.364  16.662 -2.4543  1.5537 -0.4799
 6331TIP3   OH240483   5.562   2.496   1.674  0.1556  0.2179 -0.0549
 6331TIP3    H140484   5.611   2.443   1.611 -0.0853  1.8559 -1.7171
 6331TIP3    H240485   5.484   2.524   1.627 -0.3434  1.0031  1.1833
 6332TIP3   OH240486   0.294   3.706   3.529 -0.0265 -0.1164  0.2426
 6332TIP3    H140487   0.371   3.761   3.523  0.2267 -0.0143  3.0166
 6332TIP3    H240488   0.234   3.741   3.463  0.7097  2.4965  0.8533
 6333TIP3   OH240489   0.890   5.657  12.084  0.3257  0.5316 -0.1673
 6333TIP3    H140490   0.890   5.751  12.102  0.4017  0.5494 -0.2592
 6333TIP3    H240491   0.928   5.618  12.163  0.3620  0.5846 -0.1578
 6334TIP3   OH240492   3.049   3.583   3.324 -0.1378 -0.2546  0.0838
 6334TIP3    H140493   3.097   3.539   3.254 -1.1250  0.4428 -1.0538
 6334TIP3    H240494   2.957   3.577   3.299 -0.5170  0.0721  1.2949
 6335TIP3   OH240495   4.649   1.609  11.681 -0.3993  0.2148  0.0719
 6335TIP3    H140496   4.597   1.660  11.619  0.4552  0.8791 -0.1310
 6335TIP3    H240497   4.716   1.671  11.712  1.3109 -1.0474 -0.9599
 6336TIP3   OH240498   1.637   3.909  14.537  0.2173  0.1487 -0.4130
 6336TIP3    H140499   1.635   3.813  14.535 -3.2194  0.0884 -1.8075
 6336TIP3    H240500   1.635   3.931  14.630 -2.0521 -1.2880 -0.0211
 6337TIP3   OH240501   5.815   3.572  10.894  0.0759  0.1728  0.0555
 6337TIP3    H140502   5.802   3.665  10.878 -3.1007 -0.2767 -0.8816
 6337TIP3    H240503   5.769   3.529  10.821 -0.6823 -2.0870  1.7212
 6338TIP3   OH240504   5.388   5.330   4.489 -0.2279  0.2007 -0.1777
 6338TIP3    H140505   5.309   5.275   4.485  0.8988 -1.4250 -1.9560
 6338TIP3    H240506   5.390   5.374   4.404  0.1969  1.1357  0.3066
 6339TIP3   OH240507   2.564   0.644  14.846 -0.2156 -0.6798  0.0064
 6339TIP3    H140508   2.531   0.670  14.932  1.3481  2.4234 -0.1913
 6339TIP3    H240509   2.655   0.619  14.861  0.2259  0.3781 -0.7597
 6340TIP3   OH240510   5.357   6.526   1.037 -0.1391 -0.4611 -0.7262
 6340TIP3    H140511   5.441   6.526   0.991 -0.4746 -0.6178 -1.3511
 6340TIP3    H240512   5.318   6.611   1.016 -0.3563 -0.5911 -0.8566
 6341TIP3   OH240513   5.042   2.639   5.045 -0.3908  0.2205  0.2616
 6341TIP3    H140514   5.091   2.574   5.095 -0.6771 -0.2504 -0.0632
 6341TIP3    H240515   4.981   2.588   4.992  0.4356  0.6397 -1.1641
 6342TIP3   OH240516   4.380   3.516  13.365  0.1216 -0.2613 -0.3025
 6342TIP3    H140517   4.297   3.488  13.404  0.0803  0.1572 -0.0797
 6342TIP3    H240518   4.433   3.543  13.440  0.9428 -1.7419 -0.3242
 6343TIP3   OH240519   1.219   1.761   2.533 -0.3799 -0.1278  1.0162
 6343TIP3    H140520   1.251   1.672   2.551 -1.5054 -1.2141 -1.8896
 6343TIP3    H240521   1.296   1.807   2.499 -0.1299 -0.3994  1.2019
 6344TIP3   OH240522   5.598   2.625  17.038  0.9732  0.1417 -0.3536
 6344TIP3    H140523   5.618   2.577  16.958  0.1042 -0.9373  0.0482
 6344TIP3    H240524   5.503   2.641  17.033  1.0439  0.7236  0.1047
 6345TIP3   OH240525   2.960   5.350  13.295 -0.0371  0.0855 -0.5571
 6345TIP3    H140526   3.018   5.388  13.361 -1.3937 -1.1716  1.5043
 6345TIP3    H240527   2.980   5.257  13.296 -2.1652 -0.4237  0.4094
 6346TIP3   OH240528   1.390   0.535   6.502  0.0575  0.2672 -0.1969
 6346TIP3    H140529   1.364   0.476   6.432  0.2848  1.4734 -1.3419
 6346TIP3    H240530   1.483   0.515   6.517  0.2609  0.6370 -0.9120
 6347TIP3   OH240531   3.616   4.294  12.777 -0.0779  0.3520  0.2177
 6347TIP3    H140532   3.640   4.375  12.731  2.5913 -0.6026 -0.2534
 6347TIP3    H240533   3.652   4.224  12.722 -0.4576 -1.0443  1.6896
 6348TIP3   OH240534   4.382   2.024   0.374 -0.3373 -0.0377  0.5594
 6348TIP3    H140535   4.411   2.115   0.368 -0.7096  0.0116 -0.8089
 6348TIP3    H240536   4.433   1.979   0.306  1.8226 -1.4358  2.9172
 6349TIP3   OH240537   1.874   3.730   2.449 -0.2425  0.1170 -0.3069
 6349TIP3    H140538   1.795   3.708   2.400  1.1528 -1.0070 -2.1910
 6349TIP3    H240539   1.932   3.656   2.435  0.6220  0.1985  2.3284
 6350TIP3   OH240540   2.125   1.244  16.311 -0.0943  0.1592 -0.1723
 6350TIP3    H140541   2.215   1.220  16.332 -0.0081 -1.0686 -1.7961
 6350TIP3    H240542   2.132   1.302  16.235 -0.4788  3.4365  2.1054
 6351TIP3   OH240543   1.934   3.190   0.917 -0.0418  0.1070  0.3422
 6351TIP3    H140544   1.852   3.142   0.926  1.4626 -2.5468  1.6164
 6351TIP3    H240545   1.969   3.193   1.007  1.6065  0.3950 -0.2721
 6352TIP3   OH240546   3.386   3.188   1.582  0.5918 -0.5994  0.4378
 6352TIP3    H140547   3.337   3.111   1.612  0.1841 -0.0788  1.1411
 6352TIP3    H240548   3.401   3.239   1.661  0.3039  0.3482 -0.1015
 6353TIP3   OH240549   3.253   0.231  14.974  0.4502 -0.1048  0.8981
 6353TIP3    H140550   3.334   0.211  15.021 -1.0181 -0.2989  3.5407
 6353TIP3    H240551   3.238   0.324  14.988  0.5534  0.1052 -0.2371
 6354TIP3   OH240552   2.793   5.612  13.643  0.3777 -0.2335 -0.7040
 6354TIP3    H140553   2.826   5.523  13.650 -0.1809 -0.4027 -0.1123
 6354TIP3    H240554   2.791   5.630  13.549 -1.5267 -1.6462 -0.9947
 6355TIP3   OH240555   2.491   0.303  11.878 -0.5477  0.0940  0.5435
 6355TIP3    H140556   2.553   0.376  11.876 -1.4232  0.8561  0.3582
 6355TIP3    H240557   2.410   0.339  11.842 -0.5656 -1.4091 -1.0627
 6356TIP3   OH240558   1.336   1.033   1.029 -0.1197  0.1555  0.1042
 6356TIP3    H140559   1.358   1.049   1.121 -1.9040 -1.6203  0.9206
 6356TIP3    H240560   1.240   1.030   1.028 -0.1034 -1.9984 -1.3923
 6357TIP3   OH240561   3.684   0.235  14.040  0.7267 -0.2035  0.8968
 6357TIP3    H140562   3.733   0.157  14.014  2.0435  0.0019  2.6224
 6357TIP3    H240563   3.736   0.274  14.110 -0.8021  1.2764  1.2653
 6358TIP3   OH240564   4.980   6.510   5.703  0.3198 -0.4069  0.2793
 6358TIP3    H140565   4.959   6.586   5.648 -2.6354  0.6703  2.5613
 6358TIP3    H240566   5.056   6.538   5.754  0.1154  0.5037  0.1096
 6359TIP3   OH240567   2.544   4.965  16.734  0.1301 -0.6018  0.3459
 6359TIP3    H140568   2.516   5.020  16.660  1.0684 -0.8779 -0.2312
 6359TIP3    H240569   2.631   4.934  16.709  0.7930 -0.0770  1.9161
 6360TIP3   OH240570   6.263   5.308  14.412  0.2870  0.4002 -0.4756
 6360TIP3    H140571   6.187   5.310  14.354  0.0327  0.8663 -0.1327
 6360TIP3    H240572   6.249   5.232  14.469 -0.2018  0.8113 -0.0436
 6361TIP3   OH240573   2.987   1.232  13.879  0.0763  0.4107  0.4537
 6361TIP3    H140574   2.988   1.328  13.883  0.2942  0.4276  0.0037
 6361TIP3    H240575   2.975   1.205  13.970  1.7129  0.8377  0.8401
 6362TIP3   OH240576   2.521   0.749  12.373  0.2333 -0.1721  0.1609
 6362TIP3    H140577   2.440   0.713  12.410 -0.8226  1.2189 -0.6806
 6362TIP3    H240578   2.560   0.677  12.324 -0.6864 -0.7626  0.2811
 6363TIP3   OH240579   0.171   2.548  11.486 -0.1307  1.1267 -0.7122
 6363TIP3    H140580   0.100   2.492  11.516  0.1841  1.0098 -0.1745
 6363TIP3    H240581   0.230   2.489  11.439  1.0682  0.6365  1.2907
 6364TIP3   OH240582   0.611   1.020  14.377  0.2510  0.3987 -0.2022
 6364TIP3    H140583   0.597   0.932  14.411 -0.1355  0.9814  1.2574
 6364TIP3    H240584   0.687   1.012  14.319 -0.6037 -1.1291 -1.1733
 6365TIP3   OH240585   6.792   2.071  13.540  0.6396 -0.1928 -0.4495
 6365TIP3    H140586   6.770   2.005  13.474 -2.1987  0.7772 -0.5922
 6365TIP3    H240587   6.843   2.136  13.491  0.2527 -0.4501 -1.2140
 6366TIP3   OH240588   4.606   2.558  16.526  0.0840  0.0047  0.6109
 6366TIP3    H140589   4.686   2.531  16.481  0.8473  0.7484  1.4784
 6366TIP3    H240590   4.548   2.588  16.456  0.1346 -1.5208 -0.1332
 6367TIP3   OH240591   2.642   5.397  17.086  0.2774  0.1880  0.6636
 6367TIP3    H140592   2.642   5.308  17.122 -0.1009  0.2395  0.7936
 6367TIP3    H240593   2.719   5.399  17.028  0.7917  0.0542  1.3281
 6368TIP3   OH240594   3.330   6.423   3.467  0.6791 -0.4985 -0.1125
 6368TIP3    H140595   3.252   6.374   3.490  0.5354 -0.6293 -0.8325
 6368TIP3    H240596   3.400   6.386   3.521 -0.0418  0.7176  1.7634
 6369TIP3   OH240597   1.409   4.282  12.481  0.4076 -0.2922  0.1987
 6369TIP3    H140598   1.423   4.268  12.574  0.1206  0.3041  0.3326
 6369TIP3    H240599   1.472   4.223  12.438  2.0162  0.9441  0.7715
 6370TIP3   OH240600   3.578   1.656  14.832 -0.0343  0.5623  0.3068
 6370TIP3    H140601   3.627   1.586  14.877 -1.1762  0.0428  0.7808
 6370TIP3    H240602   3.607   1.736  14.876 -2.0193 -0.0223  2.9357
 6371TIP3   OH240603   1.066   3.630  13.819 -0.4235  0.0549 -0.4629
 6371TIP3    H140604   1.143   3.664  13.773  0.1860 -0.5328  0.1135
 6371TIP3    H240605   1.020   3.578  13.753 -0.6167  0.8337 -0.9577
 6372TIP3   OH240606   6.173   4.462   5.126 -0.1229 -0.5786 -0.0797
 6372TIP3    H140607   6.134   4.417   5.202  0.2591  0.5779  0.8330
 6372TIP3    H240608   6.103   4.516   5.091  0.7236  2.1776  2.0891
 6373TIP3   OH240609   3.056   1.560  16.636 -0.3742 -0.5573 -0.7868
 6373TIP3    H140610   3.123   1.587  16.699  0.1395 -1.8562 -0.7389
 6373TIP3    H240611   2.996   1.634  16.631  2.0240  1.4427 -2.1863
 6374TIP3   OH240612   6.785   4.862  16.125  0.6757 -0.0503 -0.4519
 6374TIP3    H140613   6.696   4.882  16.155  0.9660 -0.0807  0.4576
 6374TIP3    H240614   6.799   4.771  16.152  1.2579  0.1953  0.0725
 6375TIP3   OH240615   1.272   5.992   3.581  0.4147 -0.1364 -0.3203
 6375TIP3    H140616   1.241   6.056   3.645 -1.6375 -2.5681  1.2990
 6375TIP3    H240617   1.198   5.932   3.569  1.9982 -1.8485 -2.2321
 6376TIP3   OH240618   5.625   1.475   1.766 -0.2403 -0.5535 -0.6148
 6376TIP3    H140619   5.550   1.443   1.716  0.8842 -1.7233 -1.6245
 6376TIP3    H240620   5.673   1.395   1.790  0.4980  0.1489  0.3231
 6377TIP3   OH240621   4.182   2.654   0.393 -0.0555 -0.3995  0.1171
 6377TIP3    H140622   4.178   2.704   0.311 -1.2512  0.9239  0.9432
 6377TIP3    H240623   4.140   2.570   0.371 -2.8649  0.9186 -0.0159
 6378TIP3   OH240624   4.213   5.637   2.702  0.3514  0.0581 -0.0158
 6378TIP3    H140625   4.254   5.626   2.617  2.1308  0.1878  0.7945
 6378TIP3    H240626   4.181   5.549   2.724 -1.3910  0.2822 -1.3725
 6379TIP3   OH240627   5.733   2.153   1.948 -0.2972  0.5197  0.1705
 6379TIP3    H140628   5.664   2.101   1.907 -0.2343  0.6246 -0.0746
 6379TIP3    H240629   5.778   2.092   2.006  0.3345  0.0565 -0.7757
 6380TIP3   OH240630   2.542   1.847  12.113 -0.2651  0.4711 -0.0029
 6380TIP3    H140631   2.523   1.883  12.199  1.9971 -0.4255  0.9427
 6380TIP3    H240632   2.465   1.793  12.092 -2.4272  3.3824 -0.2062
 6381TIP3   OH240633   1.736   0.132  14.664 -0.0128  0.1991  0.1062
 6381TIP3    H140634   1.747   0.055  14.720 -0.0751  0.2756  0.2232
 6381TIP3    H240635   1.711   0.202  14.724  2.9817  1.0772  0.4631
 6382TIP3   OH240636   0.439   3.785   5.245  0.7193  0.4885  0.3224
 6382TIP3    H140637   0.498   3.710   5.232  1.3027  1.2604 -1.9936
 6382TIP3    H240638   0.459   3.844   5.171 -1.3567  1.8507  0.7730
 6383TIP3   OH240639   1.336   1.747   3.602 -0.7745 -0.1006  0.6647
 6383TIP3    H140640   1.352   1.832   3.562  1.0973  1.4191  4.0979
 6383TIP3    H240641   1.403   1.689   3.564 -1.7632 -0.0024 -1.3454
 6384TIP3   OH240642   4.837   3.581  11.692  0.3293  0.3014  0.4262
 6384TIP3    H140643   4.749   3.612  11.713 -0.3769 -1.3728  0.1529
 6384TIP3    H240644   4.825   3.487  11.675  1.8760  0.3801 -1.3460
 6385TIP3   OH240645   4.507   5.078   5.380  0.1698  0.5375  0.3579
 6385TIP3    H140646   4.425   5.029   5.385 -0.3493  1.4833  1.5970
 6385TIP3    H240647   4.574   5.012   5.362 -0.9019 -0.1762 -1.2459
 6386TIP3   OH240648   3.788   4.665  10.923 -0.1166  0.5446 -0.5672
 6386TIP3    H140649   3.775   4.734  10.858 -0.4409  0.8436 -0.1832
 6386TIP3    H240650   3.820   4.591  10.872 -2.0980  0.1767 -1.3541
 6387TIP3   OH240651   4.552   0.563  16.647  0.2613  0.3119  0.3143
 6387TIP3    H140652   4.470   0.519  16.623  1.5789 -0.4628 -3.4421
 6387TIP3    H240653   4.528   0.655  16.656 -1.0690  0.1167 -0.8538
 6388TIP3   OH240654   5.634   0.525  11.330 -0.5603  0.2413  0.0680
 6388TIP3    H140655   5.587   0.498  11.250  0.8587 -0.3230 -0.6227
 6388TIP3    H240656   5.629   0.448  11.387  0.5294 -0.2839 -0.5060
 6389TIP3   OH240657   6.789   0.734  13.521 -0.7434  0.0247 -0.1033
 6389TIP3    H140658   6.735   0.679  13.578 -2.0587  0.5963 -0.7643
 6389TIP3    H240659   6.854   0.674  13.484 -1.3896 -0.8329  0.1343
 6390TIP3   OH240660   3.230   0.613   1.693  0.3045 -0.3350 -0.3234
 6390TIP3    H140661   3.153   0.667   1.675  1.6113  1.0008 -2.3168
 6390TIP3    H240662   3.263   0.646   1.777 -1.3021 -1.0228  0.6339
 6391TIP3   OH240663   3.810   5.253  12.888  0.4111 -0.1013 -0.6971
 6391TIP3    H140664   3.797   5.166  12.925  0.2152 -0.5068 -1.6715
 6391TIP3    H240665   3.778   5.245  12.798  0.9325  0.8186 -0.9760
 6392TIP3   OH240666   1.709   5.839   0.154 -0.0872  0.3948 -0.6149
 6392TIP3    H140667   1.774   5.899   0.191 -0.5354  0.0818  0.7130
 6392TIP3    H240668   1.626   5.865   0.194 -0.1791 -1.5578  0.5611
 6393TIP3   OH240669   1.199   3.254  11.687 -0.4653  0.1790  0.1554
 6393TIP3    H140670   1.114   3.241  11.645 -0.2473  1.5410 -0.7767
 6393TIP3    H240671   1.261   3.206  11.632 -0.3388  1.0279 -0.4617
 6394TIP3   OH240672   6.234   4.847   6.444  0.6287 -0.2635 -0.1006
 6394TIP3    H140673   6.251   4.941   6.445  0.8830 -0.2354 -1.9565
 6394TIP3    H240674   6.309   4.808   6.489  0.0099  0.4404  1.6191
 6395TIP3   OH240675   3.582   3.508   5.405  0.0235  0.1952  0.5033
 6395TIP3    H140676   3.607   3.496   5.497 -2.7554 -1.6729  1.1200
 6395TIP3    H240677   3.593   3.421   5.366 -1.7471  0.2166 -0.1040
 6396TIP3   OH240678   4.299   4.286  14.940  0.2536  0.5255  0.4547
 6396TIP3    H140679   4.307   4.192  14.955 -1.3730  0.4574  1.1339
 6396TIP3    H240680   4.347   4.302  14.858 -0.1395 -1.0268 -0.1032
 6397TIP3   OH240681   3.396   5.602   4.104 -0.4193  0.1844 -0.5299
 6397TIP3    H140682   3.322   5.660   4.118  0.9671  1.8560  0.2618
 6397TIP3    H240683   3.374   5.522   4.153 -1.7477  0.5876 -0.4452
 6398TIP3   OH240684   6.682   0.943   3.751  0.5198 -0.0462  0.3426
 6398TIP3    H140685   6.670   1.027   3.796 -0.2913  0.0514 -0.0253
 6398TIP3    H240686   6.595   0.923   3.716  0.6590 -1.1535  0.6166
 6399TIP3   OH240687   1.939   1.217   6.826 -1.0006  0.2766  0.2410
 6399TIP3    H140688   1.888   1.187   6.751  0.1652 -0.9752 -0.0949
 6399TIP3    H240689   1.994   1.287   6.790 -0.3107 -0.4456 -0.1388
 6400TIP3   OH240690   4.250   3.303  16.352  0.1627  0.5838  0.6257
 6400TIP3    H140691   4.327   3.262  16.313 -0.3281  1.0237 -0.9012
 6400TIP3    H240692   4.257   3.395  16.328 -0.5887  0.7144  0.8760
 6401TIP3   OH240693   4.625   3.879   2.901  0.2510 -0.2867 -0.6429
 6401TIP3    H140694   4.660   3.792   2.883  0.2109 -0.2355 -0.9818
 6401TIP3    H240695   4.535   3.876   2.867  0.0337 -0.3124 -0.0781
 6402TIP3   OH240696   1.473   6.149   1.447  0.4791 -0.5166 -0.4780
 6402TIP3    H140697   1.535   6.086   1.483 -0.2094 -1.3944 -0.7793
 6402TIP3    H240698   1.500   6.160   1.356  0.3273 -0.7467 -0.5538
 6403TIP3   OH240699   4.647   3.908  17.104 -0.4621  0.4654 -0.4367
 6403TIP3    H140700   4.626   3.836  17.164  0.6652  0.9125  0.5367
 6403TIP3    H240701   4.696   3.970  17.158 -1.3038  1.9135 -1.3005
 6404TIP3   OH240702   5.277   0.718   5.366 -0.2009 -0.2075 -0.0149
 6404TIP3    H140703   5.194   0.683   5.335 -0.5559 -1.0706  1.7719
 6404TIP3    H240704   5.341   0.650   5.346 -0.1720 -0.1376 -0.1587
 6405TIP3   OH240705   4.275   1.260   6.125 -0.7613  0.2265 -0.3178
 6405TIP3    H140706   4.277   1.215   6.209  1.3200  0.4496 -0.2032
 6405TIP3    H240707   4.231   1.343   6.143 -0.1093  0.3874  0.6385
 6406TIP3   OH240708   6.018   5.387  16.122 -0.0908 -0.4512 -0.4557
 6406TIP3    H140709   5.928   5.371  16.151  0.5841  1.7603  3.5972
 6406TIP3    H240710   6.009   5.416  16.032 -3.3897 -0.8100 -0.3705
 6407TIP3   OH240711   4.836   1.430   4.298 -0.2996 -0.1427  0.1883
 6407TIP3    H140712   4.863   1.347   4.261 -0.3731  0.3726 -1.0543
 6407TIP3    H240713   4.917   1.479   4.310 -0.2963 -0.2246  0.5085
 6408TIP3   OH240714   5.005   2.257  11.484  0.6384  0.0038 -0.4747
 6408TIP3    H140715   5.055   2.280  11.406 -0.4135  1.2091 -0.8168
 6408TIP3    H240716   5.064   2.200  11.533  2.2772  1.1464 -0.9943
 6409TIP3   OH240717   5.610   3.181   6.494  0.1709  0.2534  0.1318
 6409TIP3    H140718   5.561   3.181   6.576  0.5438 -0.8835  0.3673
 6409TIP3    H240719   5.565   3.246   6.439  0.8703  2.2403  1.7730
 6410TIP3   OH240720   2.850   5.640  15.412 -0.2531 -0.1120  0.8443
 6410TIP3    H140721   2.941   5.670  15.409  0.2127 -1.4629  0.5124
 6410TIP3    H240722   2.801   5.707  15.364  0.8061 -0.1088 -0.2996
 6411TIP3   OH240723   2.404   4.611   0.842  0.0189  0.1619  0.2658
 6411TIP3    H140724   2.357   4.539   0.884 -1.3601  1.7264  1.4911
 6411TIP3    H240725   2.392   4.595   0.748 -1.0200 -0.7336  0.5324
 6412TIP3   OH240726   1.474   6.405  14.242  0.4395  0.3864  0.0770
 6412TIP3    H140727   1.457   6.317  14.276  0.8966  0.0130 -0.6394
 6412TIP3    H240728   1.391   6.451  14.253  0.1468 -0.1845  0.3007
 6413TIP3   OH240729   4.282   3.206  10.448 -0.3430  0.0510  0.4785
 6413TIP3    H140730   4.210   3.267  10.465 -0.8697 -0.4492  0.0836
 6413TIP3    H240731   4.358   3.262  10.431 -0.5521  0.5816  1.2483
 6414TIP3   OH240732   0.946   1.807  11.295 -0.6772  0.0232  0.1209
 6414TIP3    H140733   0.964   1.879  11.356  0.0032  0.5093 -0.6424
 6414TIP3    H240734   0.901   1.848  11.222 -2.5060 -0.7413  0.7636
 6415TIP3   OH240735   0.329   5.048  11.578 -0.1262  0.1262  0.4976
 6415TIP3    H140736   0.423   5.050  11.591 -0.0448  1.2042 -0.1491
 6415TIP3    H240737   0.317   5.056  11.484 -0.8674  0.3047  0.6014
 6416TIP3   OH240738   4.040   6.536   6.256 -0.8963 -0.0719 -0.3110
 6416TIP3    H140739   4.014   6.444   6.263  2.2529 -1.0818 -0.5838
 6416TIP3    H240740   4.105   6.537   6.186  1.7871  1.6580  2.0014
 6417TIP3   OH240741   2.400   5.148   4.076  0.6286 -0.3321 -0.1272
 6417TIP3    H140742   2.461   5.075   4.087  0.6533 -0.2084  0.5985
 6417TIP3    H240743   2.327   5.128   4.135  0.3521 -0.0756 -0.3791
 6418TIP3   OH240744   4.492   6.057  14.726  0.3150 -0.0490  0.2297
 6418TIP3    H140745   4.475   5.972  14.767  0.3897 -0.1830 -0.0173
 6418TIP3    H240746   4.588   6.064  14.724  0.3518 -0.6717 -1.2056
 6419TIP3   OH240747   5.595   1.287   0.011  0.2002 -0.2495 -0.4954
 6419TIP3    H140748   5.665   1.306   0.074 -1.3868 -0.7829  1.5133
 6419TIP3    H240749   5.528   1.352   0.028 -0.0840 -0.1181 -1.9942
 6420TIP3   OH240750   5.728   3.706   3.442  0.4072  0.0725  0.4419
 6420TIP3    H140751   5.796   3.762   3.480  0.3234  0.8443 -0.5036
 6420TIP3    H240752   5.673   3.766   3.391 -1.7983 -0.2814  2.2128
 6421TIP3   OH240753   6.199   3.410   0.825  0.2297 -0.0423 -0.0710
 6421TIP3    H140754   6.108   3.433   0.845  0.5932 -0.0970  1.8057
 6421TIP3    H240755   6.251   3.461   0.888  1.3931 -1.3046  0.0212
 6422TIP3   OH240756   5.722   5.569  12.112 -0.0120 -0.7539 -0.2372
 6422TIP3    H140757   5.753   5.506  12.047  1.2669  0.3893 -0.7720
 6422TIP3    H240758   5.716   5.652  12.065 -0.2111 -0.1536  0.8159
 6423TIP3   OH240759   5.470   4.485   1.402 -0.4356  0.3795  0.5893
 6423TIP3    H140760   5.503   4.569   1.371  1.2027 -0.4004  0.1675
 6423TIP3    H240761   5.439   4.440   1.323  0.1069 -0.0203  0.5977
 6424TIP3   OH240762   6.612   4.627  11.167  0.5787 -0.1355 -0.1750
 6424TIP3    H140763   6.567   4.641  11.251  0.8921 -0.5808  0.0704
 6424TIP3    H240764   6.560   4.677  11.104 -1.3226 -2.0502 -0.2349
 6425TIP3   OH240765   6.160   5.876  11.601  0.1773  0.2568  0.1954
 6425TIP3    H140766   6.225   5.819  11.561  0.4104  1.8054 -1.7962
 6425TIP3    H240767   6.171   5.960  11.555 -1.6838  1.2174  1.4069
 6426TIP3   OH240768   1.670   3.958  15.848  0.9765  0.4090  0.5435
 6426TIP3    H140769   1.716   3.965  15.765 -0.7549  0.6571 -0.4453
 6426TIP3    H240770   1.589   3.912  15.827  0.9270 -0.3835  2.2862
 6427TIP3   OH240771   0.990   4.224   3.827  0.0583  0.3201  0.2481
 6427TIP3    H140772   0.977   4.165   3.901 -3.0906 -1.5423 -1.5987
 6427TIP3    H240773   1.063   4.281   3.855 -0.8619 -0.2899  4.6629
 6428TIP3   OH240774   0.537   6.411  15.789 -0.0919 -0.6662 -0.2321
 6428TIP3    H140775   0.452   6.369  15.776 -0.1154 -0.9281  0.7378
 6428TIP3    H240776   0.601   6.342  15.770 -0.1028 -0.6870 -0.1917
 6429TIP3   OH240777   5.441   5.326  16.660 -0.0123  0.5250  0.0974
 6429TIP3    H140778   5.351   5.358  16.665 -0.0743  0.4638 -0.5484
 6429TIP3    H240779   5.495   5.399  16.689 -0.3464  0.0672  1.9920
 6430TIP3   OH240780   1.380   1.578  11.041 -0.1050  0.1074 -0.3578
 6430TIP3    H140781   1.470   1.547  11.045 -0.8639 -2.1327  1.4292
 6430TIP3    H240782   1.338   1.524  10.974 -0.4075  0.3349 -0.3589
 6431TIP3   OH240783   3.482   3.888   3.638 -0.8073  0.0091  0.3734
 6431TIP3    H140784   3.506   3.818   3.698 -0.5002 -0.0351  0.2009
 6431TIP3    H240785   3.445   3.956   3.694 -1.9593 -0.6527  0.4499
 6432TIP3   OH240786   4.945   0.538   6.196 -0.1741 -0.2920 -0.1105
 6432TIP3    H140787   5.011   0.600   6.226  0.2729 -0.1523 -1.3133
 6432TIP3    H240788   4.950   0.465   6.258  0.1800  0.3075  0.5710
 6433TIP3   OH240789   0.578   2.652  14.313  0.0712  0.1764  0.2755
 6433TIP3    H140790   0.649   2.616  14.366  1.5110 -2.3375 -3.0064
 6433TIP3    H240791   0.517   2.579  14.302 -1.4492  1.3699  0.4048
 6434TIP3   OH240792   4.238   0.396   0.322 -0.2713 -0.0320  0.0439
 6434TIP3    H140793   4.320   0.404   0.274  0.0019  0.1470  0.5336
 6434TIP3    H240794   4.185   0.470   0.291 -0.3206 -0.2497 -0.4019
 6435TIP3   OH240795   0.498   4.116   6.697  0.1522  0.3107 -0.4100
 6435TIP3    H140796   0.508   4.034   6.745 -0.5997  1.5446  2.0214
 6435TIP3    H240797   0.521   4.094   6.607 -0.2406 -2.5972  0.0990
 6436TIP3   OH240798   2.302   0.778  17.165  0.0712  0.1955  0.0063
 6436TIP3    H140799   2.228   0.819  17.210  0.1534 -0.5218  0.8175
 6436TIP3    H240800   2.266   0.749  17.081 -0.9212 -1.2895  0.9063
 6437TIP3   OH240801   5.288   5.861   3.394  0.0700  0.2572 -0.5828
 6437TIP3    H140802   5.246   5.936   3.352 -0.2960 -0.9601 -2.5335
 6437TIP3    H240803   5.380   5.886   3.401 -0.5268  2.1348  1.8452
 6438TIP3   OH240804   0.859   2.485  16.061 -0.0219 -0.4394 -0.1263
 6438TIP3    H140805   0.800   2.410  16.054 -0.2118 -0.2990 -0.0594
 6438TIP3    H240806   0.914   2.466  16.137  1.9578 -1.9039 -1.8095
 6439TIP3   OH240807   5.055   0.343   4.131 -0.1555 -1.0201 -0.2714
 6439TIP3    H140808   5.128   0.391   4.093 -1.2524  1.1589  0.2111
 6439TIP3    H240809   5.039   0.386   4.214 -2.0195 -1.3969 -0.3957
 6440TIP3   OH240810   6.620   5.147   4.209  0.6417 -0.0542  0.6390
 6440TIP3    H140811   6.539   5.196   4.193 -0.0171 -0.8757  1.3982
 6440TIP3    H240812   6.690   5.211   4.190 -0.1393  0.4442 -0.7638
 6441TIP3   OH240813   3.858   2.830  13.031 -0.3816  0.0472 -0.9648
 6441TIP3    H140814   3.777   2.881  13.040 -0.8890 -0.9035  0.0151
 6441TIP3    H240815   3.832   2.740  13.051  0.5705 -0.5690 -2.3508
 6442TIP3   OH240816   0.150   1.758   1.906 -0.1351 -0.6073 -0.7457
 6442TIP3    H140817   0.189   1.818   1.844 -1.2633 -0.3567 -1.2378
 6442TIP3    H240818   0.208   1.682   1.906  1.8543  0.8314  0.6260
 6443TIP3   OH240819   2.404   1.717  11.117 -0.1221 -0.6295 -0.2684
 6443TIP3    H140820   2.457   1.724  11.196 -0.9899 -0.2379  0.2942
 6443TIP3    H240821   2.457   1.665  11.057 -0.0896 -2.2480  1.0993
 6444TIP3   OH240822   3.192   5.313   1.038  0.0539  0.2019 -0.1198
 6444TIP3    H140823   3.259   5.370   1.001 -0.3096  0.8356  0.1844
 6444TIP3    H240824   3.156   5.362   1.112 -1.4201  0.2925 -0.8572
 6445TIP3   OH240825   3.099   0.433  12.146 -0.5661 -0.0282  0.1342
 6445TIP3    H140826   3.153   0.495  12.097  0.0136  0.0787  0.8938
 6445TIP3    H240827   3.098   0.466  12.235 -0.5978 -0.8722  0.4602
 6446TIP3   OH240828   2.963   6.533   0.143 -0.3215 -0.1285  0.5279
 6446TIP3    H140829   3.051   6.495   0.146 -1.2051 -2.2861  1.2785
 6446TIP3    H240830   2.949   6.556   0.051  0.9850  0.2349  0.3974
 6447TIP3   OH240831   5.126   3.262  12.598  0.1268  0.1761 -0.3493
 6447TIP3    H140832   5.106   3.354  12.615 -1.8292 -0.3994  0.9351
 6447TIP3    H240833   5.149   3.258  12.506 -0.7446  1.8197 -0.6674
 6448TIP3   OH240834   0.046   1.318  10.365 -0.1525 -0.5970 -0.2297
 6448TIP3    H140835   0.111   1.360  10.421 -0.9486  0.5863 -0.1524
 6448TIP3    H240836   0.021   1.239  10.413 -0.1157 -0.0942  0.6401
 6449TIP3   OH240837   4.190   6.401  14.764  0.0802  0.1387  0.4192
 6449TIP3    H140838   4.194   6.306  14.775  2.0923  0.2023  0.6123
 6449TIP3    H240839   4.266   6.434  14.812 -1.6018  2.0454  1.9748
 6450TIP3   OH240840   1.102   0.686  11.446 -0.5195  0.2642 -0.4250
 6450TIP3    H140841   1.100   0.680  11.542  0.9976  1.4115 -0.2889
 6450TIP3    H240842   1.016   0.720  11.423 -1.1518 -0.6437  0.4497
 6451TIP3   OH240843   4.486   1.066   1.222  0.3535 -0.0050  0.0341
 6451TIP3    H140844   4.558   1.005   1.238 -0.3082 -0.3743  1.7403
 6451TIP3    H240845   4.472   1.061   1.127  1.4804 -1.1578 -0.1024
 6452TIP3   OH240846   5.777   3.062   4.223 -0.6323 -0.0780 -0.0712
 6452TIP3    H140847   5.837   3.100   4.286 -0.2105 -3.5694  1.8523
 6452TIP3    H240848   5.690   3.089   4.253 -0.3128  0.2327  0.5829
 6453TIP3   OH240849   2.523   3.713   1.269  0.6260 -0.8987  0.2247
 6453TIP3    H140850   2.522   3.625   1.308  0.0493 -1.5848 -1.2512
 6453TIP3    H240851   2.598   3.756   1.309  0.1513 -1.5953  1.9528
 6454TIP3   OH240852   5.559   4.244  11.071  0.1355  0.2087 -0.1855
 6454TIP3    H140853   5.644   4.236  11.114 -0.3718  0.7364  0.9530
 6454TIP3    H240854   5.528   4.154  11.062 -0.0442  0.1034  1.2191
 6455TIP3   OH240855   3.640   2.886   4.463  0.0857 -0.2088 -0.8475
 6455TIP3    H140856   3.687   2.968   4.479  0.4147 -0.6691  0.7801
 6455TIP3    H240857   3.709   2.823   4.442  0.4168 -1.0525  2.2210
 6456TIP3   OH240858   2.459   4.034   5.827  0.0034  0.0953 -0.5701
 6456TIP3    H140859   2.425   4.024   5.739 -0.2140 -2.3025 -0.2910
 6456TIP3    H240860   2.554   4.043   5.816 -0.1859  1.5940 -1.1014
 6457TIP3   OH240861   4.412   2.556  17.215  0.6191  0.0335 -0.1977
 6457TIP3    H140862   4.381   2.647  17.220 -0.2079 -0.2896  0.7374
 6457TIP3    H240863   4.397   2.531  17.124  1.2131  0.9424 -0.5686
 6458TIP3   OH240864   0.947   3.542   2.847  0.4051 -0.9912 -0.4182
 6458TIP3    H140865   0.991   3.481   2.788 -0.4661 -0.9359 -1.1542
 6458TIP3    H240866   0.946   3.625   2.800  0.4041 -0.7494  0.0102
 6459TIP3   OH240867   1.620   0.624  14.852 -0.5175 -0.0195  0.1021
 6459TIP3    H140868   1.641   0.545  14.902  1.9455 -0.0747 -0.8720
 6459TIP3    H240869   1.626   0.695  14.916 -1.7395 -0.4758  0.7641
 6460TIP3   OH240870   4.914   4.555   0.562 -0.3860  0.2568 -0.1139
 6460TIP3    H140871   4.878   4.535   0.476  0.1451  0.7719 -0.4694
 6460TIP3    H240872   5.005   4.523   0.558 -0.6292 -0.5724  0.5895
 6461TIP3   OH240873   2.421   4.516   0.320  0.7072 -0.0815  0.7990
 6461TIP3    H140874   2.383   4.593   0.279 -0.8005  0.1000  2.4173
 6461TIP3    H240875   2.503   4.501   0.272 -0.3177  0.8422 -1.3492
 6462TIP3   OH240876   1.481   5.386   5.537  0.0177 -0.2085  0.0652
 6462TIP3    H140877   1.491   5.423   5.450 -1.2680 -0.0486 -0.0304
 6462TIP3    H240878   1.391   5.406   5.562  0.3142 -0.4036  1.3625
 6463TIP3   OH240879   5.492   2.040  14.517  0.2439  0.3562  0.5408
 6463TIP3    H140880   5.540   1.962  14.491 -0.9354 -0.2960  0.2237
 6463TIP3    H240881   5.552   2.089  14.573  0.6363 -1.3195  1.6582
 6464TIP3   OH240882   4.081   1.184  16.382 -0.2650  0.2614  0.5429
 6464TIP3    H140883   4.077   1.220  16.471  0.1780 -0.1099  0.7154
 6464TIP3    H240884   4.172   1.159  16.370 -0.2921  0.4547 -0.0805
 6465TIP3   OH240885   5.869   3.765  16.008  0.2656 -0.0413 -0.0298
 6465TIP3    H140886   5.808   3.774  16.081 -0.2434  0.1857 -0.4798
 6465TIP3    H240887   5.816   3.777  15.930  0.7571 -0.5387 -0.4542
 6466TIP3   OH240888   1.430   1.974   4.344 -0.6505  0.3082 -0.1168
 6466TIP3    H140889   1.406   1.931   4.426 -0.3483 -3.2015 -1.7009
 6466TIP3    H240890   1.347   1.985   4.298 -0.4562 -1.5742 -0.9913
 6467TIP3   OH240891   3.843   4.129  13.901  0.1071  0.0196  0.2021
 6467TIP3    H140892   3.860   4.044  13.939 -0.3059 -0.5171 -0.7717
 6467TIP3    H240893   3.881   4.124  13.813  1.4846  1.3891  0.6825
 6468TIP3   OH240894   2.535   3.300  14.551 -0.2104 -0.0944 -1.0799
 6468TIP3    H140895   2.590   3.376  14.534  0.6633 -0.8526 -1.7424
 6468TIP3    H240896   2.567   3.233  14.492  0.0015 -1.4441  0.4820
 6469TIP3   OH240897   2.776   2.441   3.352  0.4883  0.1210  0.0189
 6469TIP3    H140898   2.767   2.373   3.286 -1.2287 -0.7318  1.0621
 6469TIP3    H240899   2.799   2.520   3.303 -2.9036  0.0826 -1.9424
 6470TIP3   OH240900   3.293   5.033   4.015  0.6156 -0.2528 -0.0838
 6470TIP3    H140901   3.238   4.960   3.985  1.2586 -0.7879  0.0228
 6470TIP3    H240902   3.241   5.074   4.085  0.2174 -0.5639 -0.1889
 6471TIP3   OH240903   6.642   6.683  13.918  0.0361  0.9284 -0.1769
 6471TIP3    H140904   6.646   6.740  13.841 -1.4028  0.5602 -0.5475
 6471TIP3    H240905   6.680   6.600  13.889 -0.0376  0.9496 -0.3342
 6472TIP3   OH240906   4.089   4.504   1.666 -0.3432 -0.4820  0.0131
 6472TIP3    H140907   4.138   4.467   1.738 -0.6076  1.5809  1.3418
 6472TIP3    H240908   4.142   4.485   1.588 -0.2267 -3.0403  0.6547
 6473TIP3   OH240909   6.418   4.841   0.942  0.1487 -0.7942 -0.0891
 6473TIP3    H140910   6.337   4.890   0.926  0.5531 -0.2990 -0.7038
 6473TIP3    H240911   6.392   4.768   0.998 -0.5692 -0.1746  0.3988
 6474TIP3   OH240912   3.752   1.856  12.820  0.1828  0.2931 -0.3948
 6474TIP3    H140913   3.662   1.868  12.848  0.4989 -0.2456  0.9215
 6474TIP3    H240914   3.804   1.906  12.883  0.8011  0.8704 -1.3252
 6475TIP3   OH240915   4.245   6.542   3.277  0.4009  0.0235 -0.0279
 6475TIP3    H140916   4.242   6.578   3.189  1.6949  0.4869  0.0970
 6475TIP3    H240917   4.336   6.554   3.305  0.0434 -0.2205  1.3195
 6476TIP3   OH240918   5.764   1.497  12.679  0.2440 -0.3881 -0.1701
 6476TIP3    H140919   5.812   1.414  12.678  1.3880  0.1492  2.5208
 6476TIP3    H240920   5.817   1.556  12.626  1.1203 -0.5552  0.4984
 6477TIP3   OH240921   1.023   3.472  15.878  0.5373 -0.2842 -0.1228
 6477TIP3    H140922   1.109   3.515  15.882  0.9487 -1.0936  0.1604
 6477TIP3    H240923   1.044   3.381  15.857 -0.1589 -0.7513  1.1262
 6478TIP3   OH240924   4.398   5.868  11.282 -0.2032  0.3645 -0.0034
 6478TIP3    H140925   4.489   5.888  11.259  0.6949 -1.0799  2.0514
 6478TIP3    H240926   4.388   5.901  11.371 -0.1028 -3.6784  1.7036
 6479TIP3   OH240927   0.467   5.815  11.610  0.3546  0.4201  0.3977
 6479TIP3    H140928   0.493   5.868  11.535  1.3415 -1.7483 -0.8831
 6479TIP3    H240929   0.384   5.775  11.584  1.7243 -2.0257 -0.5487
 6480TIP3   OH240930   2.108   5.326   3.711  0.2555  0.6454 -0.2723
 6480TIP3    H140931   2.149   5.277   3.641  0.2697  2.3047 -1.4751
 6480TIP3    H240932   2.033   5.369   3.670 -1.7716 -0.9441  1.4728
 6481TIP3   OH240933   1.653   5.964   5.458  0.1259 -0.0300  0.1570
 6481TIP3    H140934   1.675   5.881   5.415  2.3879  0.3516  0.4230
 6481TIP3    H240935   1.700   6.030   5.407 -1.1570  1.0406  0.3114
 6482TIP3   OH240936   0.179   0.902  17.134 -0.2698  0.6587  0.6024
 6482TIP3    H140937   0.201   0.995  17.133 -0.4672  0.7030 -0.3502
 6482TIP3    H240938   0.084   0.900  17.149 -0.2478  0.6021  0.7382
 6483TIP3   OH240939   1.514   5.469   2.039  0.1557 -0.3265  0.4119
 6483TIP3    H140940   1.496   5.390   1.988 -0.3906  0.5945 -0.8676
 6483TIP3    H240941   1.597   5.502   2.004 -0.4920  0.6065 -0.2899
 6484TIP3   OH240942   1.442   3.233   0.022 -0.2343 -0.1550 -0.3295
 6484TIP3    H140943   1.348   3.217   0.023 -0.1652 -0.5613  0.3768
 6484TIP3    H240944   1.472   3.198  -0.062 -0.5880 -0.7879 -0.1971
 6485TIP3   OH240945   6.765   5.126  16.030  0.3004  0.1414  0.1151
 6485TIP3    H140946   6.799   5.047  16.071 -0.3008  0.2240  0.7833
 6485TIP3    H240947   6.671   5.111  16.022  0.1019  0.9768  0.6880
 6486TIP3   OH240948   1.368   3.807  13.370  0.1913  0.5442 -0.3206
 6486TIP3    H140949   1.336   3.774  13.287 -0.5198  0.2308  0.0682
 6486TIP3    H240950   1.391   3.728  13.420  0.8280  0.7355 -0.2939
 6487TIP3   OH240951   6.119   4.897   4.941 -0.1541 -0.5053 -0.6203
 6487TIP3    H140952   6.185   4.840   4.903 -0.6477 -1.0034 -0.7465
 6487TIP3    H240953   6.169   4.966   4.986  0.5619 -2.6615  2.1552
 6488TIP3   OH240954   2.051   4.460   5.031  0.0369 -0.1169  0.0748
 6488TIP3    H140955   1.958   4.443   5.048 -1.0295  2.7519 -2.1270
 6488TIP3    H240956   2.073   4.535   5.086 -0.6305  2.7170 -3.2154
 6489TIP3   OH240957   1.816   0.424  13.362 -0.5055  0.0864 -0.1785
 6489TIP3    H140958   1.893   0.478  13.379 -0.4703 -0.3266  1.0716
 6489TIP3    H240959   1.798   0.436  13.269  1.2793 -0.1089 -0.5652
 6490TIP3   OH240960   0.086   5.258  13.315  0.6090 -0.1428 -0.4505
 6490TIP3    H140961   0.101   5.239  13.223  0.9766  1.7480 -0.8176
 6490TIP3    H240962   0.006   5.210  13.337  1.6920 -2.3728 -1.1315
 6491TIP3   OH240963   6.401   5.728   1.653 -0.5151  0.0100 -0.4984
 6491TIP3    H140964   6.401   5.819   1.625  0.3772  0.2279  0.1390
 6491TIP3    H240965   6.479   5.721   1.708 -1.8335 -0.5338  1.3899
 6492TIP3   OH240966   4.871   3.210   1.704 -0.5679  1.0903  0.0127
 6492TIP3    H140967   4.892   3.119   1.724 -0.3349  1.0293 -0.4961
 6492TIP3    H240968   4.810   3.236   1.773 -0.3210  0.6732  0.3925
 6493TIP3   OH240969   5.692   1.428  13.774 -0.4170  0.0825  0.0459
 6493TIP3    H140970   5.713   1.335  13.767  1.9912  0.4622  1.3096
 6493TIP3    H240971   5.628   1.432  13.846  1.0452 -0.4465  1.4279
 6494TIP3   OH240972   0.856   0.021   0.279 -0.3121 -0.2420 -0.3741
 6494TIP3    H140973   0.892  -0.001   0.365  1.7272 -3.0093 -1.7981
 6494TIP3    H240974   0.761   0.012   0.290 -0.1872  0.4421  1.7835
 6495TIP3   OH240975   1.121   5.276  14.218 -0.0261  0.4622  0.2041
 6495TIP3    H140976   1.053   5.224  14.175  1.3141  0.1714 -1.6689
 6495TIP3    H240977   1.118   5.361  14.173 -0.3552  1.0767  1.3611
 6496TIP3   OH240978   3.666   4.495  15.567 -0.5998  0.5619 -0.1342
 6496TIP3    H140979   3.750   4.529  15.600 -0.4314 -0.4217  0.4844
 6496TIP3    H240980   3.673   4.503  15.472  0.6736 -0.5634 -0.1709
 6497TIP3   OH240981   1.712   4.621  11.824  0.2828  0.2883  0.4351
 6497TIP3    H140982   1.685   4.706  11.859  1.4736  0.0042  2.1305
 6497TIP3    H240983   1.630   4.581  11.795 -0.5791  1.1648  1.5417
 6498TIP3   OH240984   3.536   1.996   4.352 -0.1101  0.4153 -0.0130
 6498TIP3    H140985   3.534   1.956   4.439  0.0948  0.0006 -0.1949
 6498TIP3    H240986   3.447   1.985   4.318 -0.4673  1.4679  0.5325
 6499TIP3   OH240987   3.563   3.248   4.526 -0.2248 -0.0767  0.4296
 6499TIP3    H140988   3.609   3.328   4.553  0.4443 -0.4914  0.5238
 6499TIP3    H240989   3.527   3.270   4.440  1.3391 -0.1992 -0.2913
 6500TIP3   OH240990   2.968   5.250  14.434  0.3284 -0.3603 -0.4460
 6500TIP3    H140991   2.942   5.298  14.513 -1.3325 -0.1940 -1.0594
 6500TIP3    H240992   3.063   5.265  14.427  0.5429 -0.5432  1.5975
 6501TIP3   OH240993   3.693   3.823  15.513 -0.0846  0.3577 -0.4820
 6501TIP3    H140994   3.758   3.801  15.446  0.5771  0.9600 -0.0495
 6501TIP3    H240995   3.630   3.879  15.467  0.0474  0.2919 -0.7468
 6502TIP3   OH240996   3.711   4.678  12.980 -0.2313  0.3213 -0.0265
 6502TIP3    H140997   3.631   4.646  12.939 -1.5626  0.9498  1.9258
 6502TIP3    H240998   3.748   4.739  12.917 -1.6464  0.5170 -0.7049
 6503TIP3   OH240999   1.621   5.953   6.407 -0.3105  0.3600  0.1059
 6503TIP3    H141000   1.602   6.028   6.462 -1.5389  1.0303 -1.1680
 6503TIP3    H241001   1.716   5.942   6.413 -0.3466  0.7459  1.8639
 6504TIP3   OH241002   5.001   3.569   4.166  0.1957 -0.5876  0.0438
 6504TIP3    H141003   5.047   3.568   4.082 -0.5989  0.2875 -0.4218
 6504TIP3    H241004   4.950   3.488   4.167 -1.2616  0.2846 -1.1783
 6505TIP3   OH241005   3.298   0.356  10.602 -0.2652 -0.3720 -0.1213
 6505TIP3    H141006   3.209   0.387  10.615 -0.3569 -0.4465 -0.5859
 6505TIP3    H241007   3.289   0.274  10.554  0.0107 -0.8146  0.5525
 6506TIP3   OH241008   3.665   5.078  12.154 -0.5138  0.5978  0.0258
 6506TIP3    H141009   3.613   5.144  12.110  1.6173  1.1093 -1.9048
 6506TIP3    H241010   3.749   5.122  12.173  1.2560 -1.6268 -1.9988
 6507TIP3   OH241011   4.114   4.058  14.455  0.3168  0.6036  0.0566
 6507TIP3    H141012   4.079   4.102  14.532  0.9833 -0.3079  0.9159
 6507TIP3    H241013   4.204   4.035  14.479  0.2761 -0.4319 -0.6836
 6508TIP3   OH241014   1.664   3.555   4.785  0.5773 -0.2333  0.1478
 6508TIP3    H141015   1.738   3.518   4.833  1.5238  0.8725 -0.4177
 6508TIP3    H241016   1.677   3.526   4.694  0.5429  0.2837 -0.0272
 6509TIP3   OH241017   0.634   3.817  15.611 -0.3603 -0.5266 -0.2889
 6509TIP3    H141018   0.634   3.802  15.516 -1.4204  0.4766 -0.4566
 6509TIP3    H241019   0.612   3.731  15.648 -1.5210 -0.5678 -1.0250
 6510TIP3   OH241020   0.361   1.211  11.670 -0.0089  0.2085 -0.4978
 6510TIP3    H141021   0.390   1.263  11.595 -1.9026  2.7369  0.3731
 6510TIP3    H241022   0.432   1.222  11.734  1.4727 -1.7134 -1.7183
 6511TIP3   OH241023   1.597   1.678  14.739  0.0946 -0.6525 -0.6460
 6511TIP3    H141024   1.661   1.677  14.810 -0.8392 -1.4310  0.2185
 6511TIP3    H241025   1.642   1.721  14.666  1.2772 -0.3755  0.2229
 6512TIP3   OH241026   2.502   2.063  10.973 -0.0017  0.0444 -0.0709
 6512TIP3    H141027   2.445   1.986  10.962  1.6214 -0.9153 -2.6261
 6512TIP3    H241028   2.586   2.036  10.937  0.7028  2.9669 -0.9028
 6513TIP3   OH241029   2.273   1.964  13.724  0.6658 -0.1216 -0.1060
 6513TIP3    H141030   2.347   2.022  13.706  0.4158 -0.2206 -1.5679
 6513TIP3    H241031   2.293   1.884  13.675  0.6416 -1.0053  1.2704
 6514TIP3   OH241032   2.541   1.541   3.050  0.1804 -0.0262 -0.0341
 6514TIP3    H141033   2.468   1.513   3.107  1.2257 -1.1310  0.8150
 6514TIP3    H241034   2.604   1.581   3.110  0.8777 -0.3323 -0.5491
 6515TIP3   OH241035   5.168   3.233  16.457 -0.4566  0.6105 -0.3931
 6515TIP3    H141036   5.142   3.245  16.548 -3.3006  1.6521 -1.2502
 6515TIP3    H241037   5.181   3.322  16.424 -0.9349  0.3197 -1.3823
 6516TIP3   OH241038   6.386   5.603  15.388  0.0604 -0.0130 -0.2714
 6516TIP3    H141039   6.433   5.621  15.469 -0.2337 -0.7206  0.0578
 6516TIP3    H241040   6.351   5.515  15.399 -3.2305  1.2322  0.4501
 6517TIP3   OH241041   2.180   6.032   6.304  0.4170  0.3855  0.0108
 6517TIP3    H141042   2.146   5.943   6.307 -0.0212  0.5202 -0.9013
 6517TIP3    H241043   2.264   6.027   6.350  0.8714 -0.7105 -0.9148
 6518TIP3   OH241044   2.772   3.861   1.247 -0.0059  0.0243 -0.0815
 6518TIP3    H141045   2.789   3.953   1.268 -0.2082  0.0558 -0.0516
 6518TIP3    H241046   2.857   3.827   1.218  0.3442 -0.0895  1.0202
 6519TIP3   OH241047   0.751   0.465   0.207 -0.1227  0.3020  0.1723
 6519TIP3    H141048   0.813   0.392   0.205 -0.1763  0.2639 -0.1977
 6519TIP3    H241049   0.716   0.464   0.296  1.1907  0.9866  0.7126
 6520TIP3   OH241050   2.292   6.776  13.687 -0.5923  0.4209 -0.3634
 6520TIP3    H141051   2.240   6.703  13.656 -0.9877  1.2558 -1.7724
 6520TIP3    H241052   2.240   6.816  13.756 -0.1675 -0.8638  0.7350
 6521TIP3   OH241053   2.187   4.583   4.811  0.4514 -0.5595  0.2645
 6521TIP3    H141054   2.139   4.532   4.876  2.0505 -1.9606  0.3898
 6521TIP3    H241055   2.251   4.633   4.861  0.1483  0.1610 -0.0414
 6522TIP3   OH241056   4.087   3.384   0.055 -0.2148 -0.3890  0.3449
 6522TIP3    H141057   4.144   3.341  -0.008 -0.7413 -1.5625  0.6355
 6522TIP3    H241058   4.063   3.467   0.014  2.1862  0.4639  0.4802
 6523TIP3   OH241059   4.025   0.944   5.878 -0.6539 -0.5570  0.1829
 6523TIP3    H141060   4.092   1.008   5.853 -0.1593 -1.5638 -1.1934
 6523TIP3    H241061   4.019   0.952   5.973  1.0663 -0.0782  0.2894
 6524TIP3   OH241062   5.048   0.165   1.311  0.9051  0.0230  0.4483
 6524TIP3    H141063   5.075   0.249   1.272 -0.3691  0.4313  0.4224
 6524TIP3    H241064   5.009   0.189   1.395  3.2901 -0.8188  1.8994
 6525TIP3   OH241065   1.008   6.197   0.404  0.4283  0.5720  0.2839
 6525TIP3    H141066   1.099   6.198   0.434  0.6806  3.4118 -0.2514
 6525TIP3    H241067   1.014   6.201   0.309 -0.2625 -0.0354  0.2130
 6526TIP3   OH241068   0.749   6.536  11.028 -0.0767 -0.3222 -0.2516
 6526TIP3    H141069   0.798   6.615  11.002 -1.9832  1.3267  0.8979
 6526TIP3    H241070   0.677   6.531  10.965 -1.5379  0.4876  1.3015
 6527TIP3   OH241071   0.983   1.703   2.705  0.3267  0.2078 -0.1970
 6527TIP3    H141072   1.057   1.763   2.692  2.4190 -1.9433  1.0646
 6527TIP3    H241073   1.010   1.622   2.661 -1.5789 -0.4519 -0.2253
 6528TIP3   OH241074   5.532   4.150   4.545 -0.3812 -0.0052 -0.2309
 6528TIP3    H141075   5.538   4.208   4.621  0.7109 -1.7547  1.1055
 6528TIP3    H241076   5.439   4.135   4.534 -0.5410 -0.7628  1.6740
 6529TIP3   OH241077   5.459   2.946  13.527 -0.2262  0.4383  0.1603
 6529TIP3    H141078   5.400   3.018  13.547 -1.5148 -0.4370 -0.3530
 6529TIP3    H241079   5.519   2.981  13.461  0.7381  1.7479  1.6552
 6530TIP3   OH241080   5.816   3.788  12.386  0.2883  0.1934  0.6144
 6530TIP3    H141081   5.900   3.761  12.425  0.6755  0.3394 -0.0902
 6530TIP3    H241082   5.782   3.709  12.346 -0.7845 -0.2951  2.3752
 6531TIP3   OH241083   2.248   2.942  12.034 -0.0062 -0.0025 -0.3691
 6531TIP3    H141084   2.231   2.857  11.994 -0.7192  1.0915 -2.5651
 6531TIP3    H241085   2.260   2.923  12.127 -1.3823 -2.3423 -0.5867
 6532TIP3   OH241086   5.236   1.371   4.563  0.4563  0.2909 -0.1374
 6532TIP3    H141087   5.215   1.449   4.511 -0.3206 -1.6468 -2.9113
 6532TIP3    H241088   5.327   1.351   4.541  0.2471 -0.3257 -0.4434
 6533TIP3   OH241089   4.342   6.821  16.708  0.5728  0.2873  0.1456
 6533TIP3    H141090   4.288   6.887  16.750 -0.3522 -1.2539  1.5241
 6533TIP3    H241091   4.361   6.757  16.778  2.9232 -0.0215 -0.6670
 6534TIP3   OH241092   5.478   5.616   4.352  0.1825 -0.2363 -0.0078
 6534TIP3    H141093   5.483   5.573   4.266  0.5583 -1.0270  0.4004
 6534TIP3    H241094   5.550   5.577   4.403 -0.9670 -0.9238  1.1619
 6535TIP3   OH241095   1.744   4.673   0.898 -0.3530 -0.0623 -0.1938
 6535TIP3    H141096   1.824   4.708   0.937 -0.6544 -0.5285  0.8726
 6535TIP3    H241097   1.733   4.723   0.817 -0.5555  2.0229  1.0691
 6536TIP3   OH241098   6.580   5.458  13.131  0.3437  0.0476 -0.1237
 6536TIP3    H141099   6.666   5.495  13.153  0.4733  0.8619 -1.8663
 6536TIP3    H241100   6.557   5.405  13.207  2.7660 -0.8926  0.0419
 6537TIP3   OH241101   0.767   1.143   5.426 -0.3883  0.6631 -0.3751
 6537TIP3    H141102   0.767   1.089   5.504  0.1803 -0.7435 -1.3080
 6537TIP3    H241103   0.687   1.196   5.433 -0.5306  0.3023  0.9586
 6538TIP3   OH241104   4.816   4.231  17.132  0.4086  0.0738 -0.1890
 6538TIP3    H141105   4.901   4.226  17.087  1.4766  0.0690  1.7189
 6538TIP3    H241106   4.808   4.148  17.178  0.8025  1.1705  2.0069
 6539TIP3   OH241107   0.730   3.063   6.464  0.5026  0.8602 -0.4161
 6539TIP3    H141108   0.699   3.055   6.554 -4.0073 -3.4237 -1.9270
 6539TIP3    H241109   0.684   3.140   6.430  0.3551  1.1158  0.3461
 6540TIP3   OH241110   6.259   6.649   4.406 -0.2603 -0.1684 -0.8038
 6540TIP3    H141111   6.172   6.637   4.443  0.2751 -1.7445 -0.0025
 6540TIP3    H241112   6.245   6.706   4.330 -1.8269  0.4172 -0.1116
 6541TIP3   OH241113   4.205   1.167   5.822  0.2819 -0.2706 -0.0218
 6541TIP3    H141114   4.232   1.192   5.910 -0.7669  2.3190 -0.3680
 6541TIP3    H241115   4.136   1.229   5.799 -1.0008 -2.2361 -1.8626
 6542TIP3   OH241116   4.981   6.546  12.990  0.3152 -0.0100  0.2842
 6542TIP3    H141117   4.943   6.633  12.998  2.4256  0.9595  0.2719
 6542TIP3    H241118   5.063   6.559  12.944  0.2381 -2.1635 -0.6187
 6543TIP3   OH241119   6.036   5.136   2.742  0.8163 -0.1105  0.8144
 6543TIP3    H141120   6.083   5.080   2.804  1.6858 -1.0737 -0.6573
 6543TIP3    H241121   5.986   5.196   2.797  1.4034 -1.0523  2.4398
 6544TIP3   OH241122   0.861   4.217  16.753 -0.0324  0.1326 -0.8630
 6544TIP3    H141123   0.892   4.304  16.726 -0.2069  0.4381 -0.1240
 6544TIP3    H241124   0.824   4.179  16.674  0.3709  0.5916 -1.2824
 6545TIP3   OH241125   1.200   1.958   1.574  0.3078 -0.3778  0.2184
 6545TIP3    H141126   1.182   2.027   1.638 -0.5986  0.7753 -1.2193
 6545TIP3    H241127   1.137   1.889   1.595  1.1112 -0.7569  1.5643
 6546TIP3   OH241128   5.931   1.650   1.659  0.4017 -0.2813 -0.0946
 6546TIP3    H141129   5.956   1.570   1.611 -1.9938 -1.5925  0.6940
 6546TIP3    H241130   5.885   1.703   1.595  0.2001 -0.4699 -0.1068
 6547TIP3   OH241131   5.430   6.378  10.815  0.4266  0.5948 -0.0295
 6547TIP3    H141132   5.476   6.423  10.744 -0.1608  2.4073  0.6714
 6547TIP3    H241133   5.358   6.333  10.772  2.3968 -1.8084 -1.0651
 6548TIP3   OH241134   4.100   4.572  13.348 -0.3869  0.3965 -0.0218
 6548TIP3    H141135   4.192   4.558  13.327 -0.3122 -0.8958  1.0931
 6548TIP3    H241136   4.101   4.631  13.423 -0.3214 -1.6607  1.6801
 6549TIP3   OH241137   2.683   2.290   3.150 -0.2964 -0.0975  0.0589
 6549TIP3    H141138   2.605   2.234   3.155  1.4054 -2.6165  0.3743
 6549TIP3    H241139   2.728   2.260   3.070  1.2132  0.0421  0.8236
 6550TIP3   OH241140   6.027   1.941   0.944 -0.0307 -0.1034  0.7398
 6550TIP3    H141141   6.002   1.992   1.021  0.9029 -1.2538  1.8557
 6550TIP3    H241142   6.081   2.001   0.892 -1.8856  1.1671  0.1799
 6551TIP3   OH241143   4.772   5.098   0.393 -0.1384 -0.4891  0.0410
 6551TIP3    H141144   4.705   5.165   0.404  0.7085  0.4412 -0.3670
 6551TIP3    H241145   4.829   5.108   0.469 -0.1045 -0.8823  0.0724
 6552TIP3   OH241146   1.670   2.707   1.312  0.2359  0.2340  0.4849
 6552TIP3    H141147   1.698   2.678   1.399 -0.3149  0.5829  0.7878
 6552TIP3    H241148   1.577   2.728   1.323  0.0994  0.0356 -0.2540
 6553TIP3   OH241149   6.230   5.211   2.059 -0.2199  0.8034  0.0624
 6553TIP3    H141150   6.315   5.242   2.091  0.1098  0.9149 -0.8937
 6553TIP3    H241151   6.172   5.287   2.068 -0.4622  0.4614  1.5643
 6554TIP3   OH241152   4.726   1.175   1.460 -0.2363  0.2308 -0.4855
 6554TIP3    H141153   4.676   1.118   1.401  1.1423 -1.0016 -0.5045
 6554TIP3    H241154   4.797   1.209   1.406 -0.0951  0.6512 -0.0399
 6555TIP3   OH241155   4.616   6.336   1.195  0.1313 -0.3878 -0.3034
 6555TIP3    H141156   4.700   6.377   1.178 -0.6094  2.7665  2.4153
 6555TIP3    H241157   4.637   6.245   1.216  2.1585 -1.0974 -4.5153
 6556TIP3   OH241158   1.227   0.323  12.582 -0.1344 -0.3781  0.1938
 6556TIP3    H141159   1.152   0.344  12.638 -0.8832 -1.3745 -0.3948
 6556TIP3    H241160   1.260   0.240  12.615 -0.2741 -0.7227 -0.5148
 6557TIP3   OH241161   6.709   3.172  15.226 -0.4198 -0.3103 -0.2861
 6557TIP3    H141162   6.730   3.237  15.294  0.2626  0.8207 -1.5274
 6557TIP3    H241163   6.670   3.099  15.274  0.3617  0.2991  1.3645
 6558TIP3   OH241164   0.789   6.336   5.563  0.1377  0.0389 -0.3944
 6558TIP3    H141165   0.704   6.303   5.591  0.3073  0.7628  1.0554
 6558TIP3    H241166   0.839   6.258   5.540  0.0336 -0.6268  1.5267
 6559TIP3   OH241167   5.166   4.951  13.768 -0.5688  0.5815 -0.2004
 6559TIP3    H141168   5.248   4.979  13.808 -0.5378  0.4936 -0.2022
 6559TIP3    H241169   5.172   4.855  13.766 -0.2578  0.6044 -1.0565
 6560TIP3   OH241170   2.780   5.143  10.928  0.0513  0.3544  0.0775
 6560TIP3    H141171   2.833   5.091  10.867 -1.9323 -0.0110 -1.4222
 6560TIP3    H241172   2.717   5.188  10.873 -2.9430 -1.2516  1.8951
 6561TIP3   OH241173   2.899   1.201  11.105  0.0123 -0.4645  0.2361
 6561TIP3    H141174   2.847   1.248  11.039 -2.6671 -1.9120  1.1562
 6561TIP3    H241175   2.928   1.121  11.061  0.7608 -0.0746 -0.0051
 6562TIP3   OH241176   2.276   5.586   5.243 -0.2049  0.1845  0.1771
 6562TIP3    H141177   2.355   5.559   5.290 -1.7414 -0.9601  2.2745
 6562TIP3    H241178   2.204   5.555   5.298 -2.1499  2.9885 -0.5647
 6563TIP3   OH241179   2.662   5.686   5.234  0.0738 -0.2198  0.2121
 6563TIP3    H141180   2.688   5.766   5.280  2.6465 -1.3855  0.9921
 6563TIP3    H241181   2.616   5.717   5.157 -1.1194  1.9211  1.6763
 6564TIP3   OH241182   6.632   2.749   6.885  0.2061  0.3917 -0.5160
 6564TIP3    H141183   6.697   2.771   6.818  0.3623 -0.6122 -0.7245
 6564TIP3    H241184   6.588   2.671   6.851 -0.2495  0.3222  0.1973
 6565TIP3   OH241185   6.763   2.421   2.500  0.8849 -0.0176  0.2954
 6565TIP3    H141186   6.828   2.362   2.538  0.0556 -1.6999 -0.7778
 6565TIP3    H241187   6.745   2.484   2.569  3.0775  0.0581  0.8812
 6566TIP3   OH241188   6.379   0.774  14.573  0.2726 -0.1108  0.0799
 6566TIP3    H141189   6.426   0.856  14.564 -0.2157  0.0008 -1.7055
 6566TIP3    H241190   6.325   0.768  14.495 -0.3769 -1.7114  0.6068
 6567TIP3   OH241191   0.449   4.970   5.503  0.0492 -0.5357  0.6586
 6567TIP3    H141192   0.381   5.026   5.467 -0.3265 -2.0055 -1.0930
 6567TIP3    H241193   0.500   5.027   5.561 -1.2215  1.1805  0.1623
 6568TIP3   OH241194   2.135   1.502   6.424 -0.7151 -0.2974 -0.2236
 6568TIP3    H141195   2.173   1.505   6.512 -2.2959 -1.0144  0.5428
 6568TIP3    H241196   2.071   1.430   6.429 -1.1844 -0.0217 -1.8219
 6569TIP3   OH241197   5.537   4.199  12.695 -0.4190  0.2957 -0.1231
 6569TIP3    H141198   5.633   4.192  12.695 -0.5276 -2.3409  0.5679
 6569TIP3    H241199   5.514   4.225  12.784 -0.3720 -0.5073  0.1340
 6570TIP3   OH241200   3.299   4.010   5.065 -0.3120  0.2079 -0.2840
 6570TIP3    H141201   3.381   3.986   5.022  0.0674  0.5107  0.2467
 6570TIP3    H241202   3.271   3.929   5.110 -0.2923  0.1102 -0.4478
 6571TIP3   OH241203   2.661   5.514   4.560  0.2646  0.0116 -0.3224
 6571TIP3    H141204   2.639   5.421   4.558  1.1709 -0.2298  0.3850
 6571TIP3    H241205   2.676   5.537   4.468 -1.1549 -0.2257 -0.6439
 6572TIP3   OH241206   5.462   0.419   0.416  0.1652  0.0749 -0.1864
 6572TIP3    H141207   5.459   0.324   0.419 -0.0246  0.0967  0.2506
 6572TIP3    H241208   5.379   0.445   0.375  0.2469  0.0533 -0.3698
 6573TIP3   OH241209   5.584   2.773   1.566 -0.4958 -0.3687 -0.1669
 6573TIP3    H141210   5.636   2.854   1.567  1.0370 -1.3116 -0.5488
 6573TIP3    H241211   5.637   2.710   1.614 -2.5505 -0.6893  1.8127
 6574TIP3   OH241212   0.264   2.166   3.971  0.1180 -0.2273 -0.3095
 6574TIP3    H141213   0.316   2.245   3.988  0.5660 -0.6593  0.3731
 6574TIP3    H241214   0.279   2.147   3.878  0.3478  0.2467 -0.3722
 6575TIP3   OH241215   1.017   4.787  15.914  0.4179 -0.3118  0.1003
 6575TIP3    H141216   1.046   4.719  15.976  0.8860  0.7755  1.1196
 6575TIP3    H241217   1.076   4.861  15.931 -0.3296  0.4915 -0.7111
 6576TIP3   OH241218   3.335   6.246  15.208 -0.2273 -0.3798 -0.2172
 6576TIP3    H141219   3.400   6.177  15.219  0.5247  0.3511  0.0361
 6576TIP3    H241220   3.340   6.296  15.289 -0.8974 -0.1345 -0.3230
 6577TIP3   OH241221   1.929   6.054  12.499 -0.5307 -0.1261 -0.2155
 6577TIP3    H141222   1.947   6.127  12.558 -1.4860  1.0673 -1.3556
 6577TIP3    H241223   2.013   6.038  12.455  0.6617 -2.0813  2.4628
 6578TIP3   OH241224   1.353   1.231   5.461 -0.7366 -0.6835 -0.0079
 6578TIP3    H141225   1.412   1.157   5.448 -1.8160 -1.3722 -1.2048
 6578TIP3    H241226   1.411   1.306   5.475  0.4545 -1.2113 -1.7826
 6579TIP3   OH241227   2.879   4.400  12.648 -0.3819  0.5847  0.2879
 6579TIP3    H141228   2.855   4.492  12.639 -2.2332  0.0977 -0.1075
 6579TIP3    H241229   2.833   4.370  12.726  0.6015  0.0888  0.7001
 6580TIP3   OH241230   2.652   1.492   2.499 -0.4348  0.0236 -0.2607
 6580TIP3    H141231   2.733   1.476   2.548  0.2313 -0.7580 -1.5331
 6580TIP3    H241232   2.674   1.564   2.440 -1.2158  0.9423  0.5461
 6581TIP3   OH241233   0.801   4.988   5.766 -0.4990  0.3962  0.6164
 6581TIP3    H141234   0.848   5.015   5.844 -2.4846  1.6184  1.4694
 6581TIP3    H241235   0.802   4.892   5.769  1.9567  0.3677  0.5061
 6582TIP3   OH241236   3.061   3.951   3.432 -0.7268 -0.3899 -0.1029
 6582TIP3    H141237   3.115   3.886   3.477  1.5178 -0.5223 -2.7146
 6582TIP3    H241238   3.084   4.034   3.474  1.5459 -0.4637 -1.0312
 6583TIP3   OH241239   2.317   3.691  12.712  0.3715  0.8347  0.4357
 6583TIP3    H141240   2.320   3.786  12.702  1.5877  0.7425 -0.3679
 6583TIP3    H241241   2.400   3.669  12.755  0.7089  0.0405 -0.5745
 6584TIP3   OH241242   4.822   5.840   2.961 -0.2881 -0.2576 -0.5410
 6584TIP3    H141243   4.799   5.874   3.048 -0.1709 -1.2556 -0.1089
 6584TIP3    H241244   4.917   5.831   2.963 -0.3899 -1.3604 -0.3588
 6585TIP3   OH241245   1.945   0.159   2.805  0.2690  0.3233  0.2741
 6585TIP3    H141246   1.900   0.175   2.722  1.5366  1.1370 -0.2868
 6585TIP3    H241247   1.962   0.065   2.806 -0.7856  0.1147  0.1830
 6586TIP3   OH241248   2.791   4.358  16.580  0.2344  0.3523  0.2845
 6586TIP3    H141249   2.880   4.369  16.548 -0.0132  1.5975 -0.0461
 6586TIP3    H241250   2.772   4.440  16.626 -0.3167 -0.3785  1.4185
 6587TIP3   OH241251   4.938   5.876   3.946  0.7570 -0.0041  0.2370
 6587TIP3    H141252   4.931   5.824   4.026  0.5895  1.3367  1.1388
 6587TIP3    H241253   4.971   5.961   3.976 -0.7685  1.0337 -0.8984
 6588TIP3   OH241254   5.265   1.456   0.673 -1.0602 -0.2430  0.3119
 6588TIP3    H141255   5.336   1.511   0.641 -0.3986 -1.0716  0.3428
 6588TIP3    H241256   5.185   1.505   0.650 -0.4851  1.9180  2.4370
 6589TIP3   OH241257   4.311   2.678  12.079 -0.7249  0.2598  0.5118
 6589TIP3    H141258   4.381   2.648  12.022 -0.5170  0.2397  0.7770
 6589TIP3    H241259   4.251   2.725  12.021  0.0071  1.1352  0.4459
 6590TIP3   OH241260   1.974   3.378  14.462  0.2354 -0.3796 -0.3709
 6590TIP3    H141261   1.920   3.310  14.502 -2.6478  0.9234 -1.7751
 6590TIP3    H241262   2.059   3.336  14.448 -1.2205 -3.5277 -0.6357
 6591TIP3   OH241263   3.318   0.329   1.799 -0.6592 -0.5881 -0.2375
 6591TIP3    H141264   3.321   0.270   1.723  0.1380  1.5614 -2.0000
 6591TIP3    H241265   3.395   0.305   1.851 -0.4618 -1.2266 -0.8127
 6592TIP3   OH241266   5.927   2.061  14.558  0.0273  0.4637 -0.4966
 6592TIP3    H141267   5.865   2.087  14.490 -1.1071 -1.1328 -0.1343
 6592TIP3    H241268   5.873   2.028  14.629  1.2579 -1.8022 -0.5007
 6593TIP3   OH241269   6.574   0.487  10.479 -0.4937 -0.3938 -0.4869
 6593TIP3    H141270   6.571   0.406  10.530  2.3688 -0.3971 -0.1426
 6593TIP3    H241271   6.572   0.458  10.388  0.7908 -0.9157 -0.3708
 6594TIP3   OH241272   0.465   4.187   4.710 -0.3567 -0.1564 -0.2581
 6594TIP3    H141273   0.457   4.280   4.689 -0.9122 -0.4443 -1.3928
 6594TIP3    H241274   0.541   4.182   4.768 -1.5491  1.2453  1.5295
 6595TIP3   OH241275   6.541   4.061   1.285 -0.0383 -0.4781  0.0256
 6595TIP3    H141276   6.483   4.060   1.361 -0.1805  0.9219 -0.0396
 6595TIP3    H241277   6.517   4.141   1.238  1.0379 -0.5753 -0.7211
 6596TIP3   OH241278   5.364   0.692  12.307 -0.0168  0.6450 -0.0094
 6596TIP3    H141279   5.287   0.674  12.361  1.1090  0.3129  1.5660
 6596TIP3    H241280   5.421   0.744  12.363  1.0801  0.5346 -0.9834
 6597TIP3   OH241281   0.346   1.009   0.471  0.3451 -0.5232 -0.2746
 6597TIP3    H141282   0.365   1.000   0.377  3.4609 -1.9448  0.3434
 6597TIP3    H241283   0.278   0.944   0.488  0.1613 -0.6681 -1.4716
 6598TIP3   OH241284   2.610   4.600  12.321  0.8766  0.2055  0.0822
 6598TIP3    H141285   2.693   4.556  12.337  0.6502 -0.4894 -0.5673
 6598TIP3    H241286   2.632   4.674  12.265  1.3702  1.4056  1.8163
 6599TIP3   OH241287   1.654   6.544   0.026  0.3204 -0.2952 -0.1338
 6599TIP3    H141288   1.579   6.545  -0.034  0.7304 -1.0787 -0.6778
 6599TIP3    H241289   1.634   6.612   0.090 -0.3245  0.2753 -0.9198
 6600TIP3   OH241290   3.631   6.389   2.833  0.1205  0.0853  0.1855
 6600TIP3    H141291   3.696   6.453   2.804 -0.9540  1.0372 -0.1686
 6600TIP3    H241292   3.603   6.421   2.919 -1.7974  1.1953 -0.7970
 6601TIP3   OH241293   5.168   2.758   3.399 -0.4043  0.0203  0.4004
 6601TIP3    H141294   5.103   2.696   3.431 -1.7070  1.6623  1.0697
 6601TIP3    H241295   5.211   2.712   3.327 -1.2061 -1.6894  0.9501
 6602TIP3   OH241296   2.117   4.926  16.876 -0.0475 -0.0525  0.0752
 6602TIP3    H141297   2.062   4.901  16.950  1.2520 -1.9966  0.4915
 6602TIP3    H241298   2.190   4.973  16.916  0.0636 -0.0735 -0.1040
 6603TIP3   OH241299   2.599   4.025   3.323  0.9285  0.2352  0.5221
 6603TIP3    H141300   2.556   3.949   3.284  0.1304  0.8756  0.1041
 6603TIP3    H241301   2.685   3.994   3.349  0.0394 -1.2246  1.8487
 6604TIP3   OH241302   1.906   1.119   0.172 -0.4221  0.2828 -0.2406
 6604TIP3    H141303   1.849   1.063   0.120 -0.2607  0.4394 -0.5920
 6604TIP3    H241304   1.866   1.121   0.259 -1.2361  0.8086 -0.6220
 6605TIP3   OH241305   1.127   1.250  14.622  0.0514 -0.0823  0.0122
 6605TIP3    H141306   1.212   1.252  14.577 -0.4743 -0.5456 -1.0328
 6605TIP3    H241307   1.146   1.213  14.708  1.2886  1.8967  0.6597
 6606TIP3   OH241308   6.707   4.894  13.129 -0.3125 -0.1445 -0.2057
 6606TIP3    H141309   6.713   4.921  13.037  0.1923 -0.8650 -0.3880
 6606TIP3    H241310   6.679   4.803  13.126 -3.2418  0.6173  0.4408
 6607TIP3   OH241311   4.484   6.685  14.932  0.5285  0.6121 -0.0095
 6607TIP3    H141312   4.546   6.661  14.863  0.3560  2.6048 -0.9263
 6607TIP3    H241313   4.431   6.606  14.945  1.0095 -0.0282 -1.6737
 6608TIP3   OH241314   3.037   6.752   4.649  0.0468 -0.4402  0.2187
 6608TIP3    H141315   3.106   6.815   4.668  0.1954 -0.2679 -0.8234
 6608TIP3    H241316   2.981   6.754   4.727  1.0235 -0.3507  0.9400
 6609TIP3   OH241317   0.114   5.859  11.112  0.1309  0.1677  0.8773
 6609TIP3    H141318   0.154   5.830  11.030 -2.4346 -0.2451 -0.3124
 6609TIP3    H241319   0.140   5.792  11.176 -0.7625 -1.5262 -0.4532
 6610TIP3   OH241320   6.327   6.476   2.869 -0.0935  0.1258  0.2939
 6610TIP3    H141321   6.415   6.441   2.852 -0.8592 -0.8088 -2.0624
 6610TIP3    H241322   6.273   6.398   2.881 -0.9373  0.6358 -0.1236
 6611TIP3   OH241323   2.693   6.255   4.306  0.2202 -0.6164 -0.3126
 6611TIP3    H141324   2.758   6.325   4.309 -3.1891  2.8910  0.9084
 6611TIP3    H241325   2.656   6.261   4.218 -1.7839  1.0381  0.5610
 6612TIP3   OH241326   0.119   1.259  14.977  0.4534  0.1449  0.4085
 6612TIP3    H141327   0.074   1.327  14.926 -0.8516  0.7769  2.3088
 6612TIP3    H241328   0.148   1.196  14.911 -1.0245  0.9880 -1.1413
 6613TIP3   OH241329   0.677   6.000   1.456 -0.0162  0.4055 -0.5791
 6613TIP3    H141330   0.701   5.908   1.443  0.4325  0.1353  1.7329
 6613TIP3    H241331   0.734   6.048   1.395  0.1361 -0.7983 -1.4282
 6614TIP3   OH241332   4.611   0.616   4.847  0.2176 -0.5444 -0.1604
 6614TIP3    H141333   4.678   0.642   4.910 -0.0414  0.9652 -0.4621
 6614TIP3    H241334   4.539   0.582   4.900  1.1596 -2.0964  0.1697
 6615TIP3   OH241335   0.370   0.530  14.085 -0.4767 -0.2346 -0.6871
 6615TIP3    H141336   0.364   0.436  14.103  0.6650 -0.2884 -0.5072
 6615TIP3    H241337   0.339   0.572  14.165 -1.4563 -0.4464 -0.9419
 6616TIP3   OH241338   6.776   1.396   4.508 -0.4503 -0.7222  0.0192
 6616TIP3    H141339   6.771   1.332   4.436  0.4405 -0.5173 -0.2398
 6616TIP3    H241340   6.747   1.347   4.585 -0.9720 -1.0811 -0.3933
 6617TIP3   OH241341   6.147   0.559   5.569 -0.4705  0.4683 -0.2430
 6617TIP3    H141342   6.181   0.496   5.505  0.3430  0.0274  0.5934
 6617TIP3    H241343   6.146   0.643   5.522 -0.0760  0.1166 -0.8923
 6618TIP3   OH241344   4.514   0.597  15.155 -0.5697 -0.0879  0.2851
 6618TIP3    H141345   4.457   0.642  15.092  0.3936  1.2283  0.3092
 6618TIP3    H241346   4.455   0.538  15.202 -1.7051  0.4232 -0.4256
 6619TIP3   OH241347   4.536   4.546  15.829 -0.0990 -0.5171  0.0726
 6619TIP3    H141348   4.598   4.502  15.770  0.5997 -1.0555  1.1736
 6619TIP3    H241349   4.572   4.634  15.840  0.6874 -0.9283  0.9654
 6620TIP3   OH241350   6.525   2.348   2.895 -0.0722  0.4482 -0.1002
 6620TIP3    H141351   6.438   2.360   2.933 -0.2415 -0.8189 -0.0284
 6620TIP3    H241352   6.508   2.305   2.811  0.5532 -2.4701  1.1345
 6621TIP3   OH241353   1.259   4.772   1.254 -0.4937  0.1900 -0.0258
 6621TIP3    H141354   1.206   4.698   1.285  1.5191 -1.0824  0.5258
 6621TIP3    H241355   1.317   4.793   1.328 -2.7837  4.2279  0.9445
 6622TIP3   OH241356   0.585   1.585  14.109  0.0954 -0.2490 -0.5513
 6622TIP3    H141357   0.587   1.678  14.132 -0.7218 -0.5641  0.8883
 6622TIP3    H241358   0.525   1.580  14.034  0.4845  0.4221 -0.9204
 6623TIP3   OH241359   6.211   0.510  10.783  0.3430 -0.3985 -0.2253
 6623TIP3    H141360   6.138   0.461  10.746  0.9124 -2.0332  0.7122
 6623TIP3    H241361   6.181   0.538  10.869  1.0954 -1.8559  0.5383
 6624TIP3   OH241362   2.175   2.409  14.073  0.3357  0.0464 -0.4677
 6624TIP3    H141363   2.160   2.383  13.982  0.8092 -0.0446 -0.5203
 6624TIP3    H241364   2.227   2.489  14.066  0.5129 -0.0513 -0.2774
 6625TIP3   OH241365   6.766   4.647  12.022 -0.5283  0.0390  0.5109
 6625TIP3    H141366   6.827   4.673  11.953 -0.2025  1.4756  1.3082
 6625TIP3    H241367   6.778   4.713  12.090 -0.7040 -1.4481  2.0315
 6626TIP3   OH241368   4.723   2.603   3.208  0.4407 -0.0945  0.3300
 6626TIP3    H141369   4.666   2.621   3.133  0.6158 -0.2928  0.1472
 6626TIP3    H241370   4.694   2.519   3.242 -1.1106  1.0043  1.8742
 6627TIP3   OH241371   3.390   5.644  15.253  0.1062 -0.0611 -0.2730
 6627TIP3    H141372   3.392   5.563  15.202  3.6627  0.7471 -1.7422
 6627TIP3    H241373   3.423   5.620  15.339  1.7888 -0.1849 -0.9031
 6628TIP3   OH241374   5.655   0.168   1.357 -0.6254  0.0820 -0.5485
 6628TIP3    H141375   5.713   0.210   1.420  0.0812  0.0948 -1.1977
 6628TIP3    H241376   5.578   0.143   1.409 -0.0889  0.1440  0.3011
 6629TIP3   OH241377   4.616   5.049  13.625 -0.1543 -0.3041  0.8693
 6629TIP3    H141378   4.556   5.119  13.597  0.7226  0.5068  0.9660
 6629TIP3    H241379   4.647   5.078  13.710 -1.1807 -1.7270  1.7733
 6630TIP3   OH241380   4.462   4.974  15.472 -0.6539  0.1195 -0.4308
 6630TIP3    H141381   4.452   5.043  15.537 -2.1531  0.3852 -0.9202
 6630TIP3    H241382   4.557   4.968  15.458 -0.4599  1.6389  0.0775
 6631TIP3   OH241383   3.283   6.527  11.867 -0.2873  0.2804  0.0677
 6631TIP3    H141384   3.363   6.487  11.834  0.3756 -0.2873  2.2295
 6631TIP3    H241385   3.309   6.571  11.948 -2.4881 -1.8295  2.1172
 6632TIP3   OH241386   4.936   6.759   0.554 -0.2059 -0.5453 -0.2344
 6632TIP3    H141387   4.881   6.737   0.479 -0.3331 -2.3054  0.3262
 6632TIP3    H241388   5.016   6.796   0.516  0.4118 -2.8514 -1.3939
 6633TIP3   OH241389   5.507   3.557  15.890  0.0497  0.3622 -0.0375
 6633TIP3    H141390   5.466   3.523  15.969  1.8018  0.2348  0.8649
 6633TIP3    H241391   5.500   3.486  15.826  0.6726 -0.4264  0.7534
 6634TIP3   OH241392   6.697   5.717  12.672 -0.0621 -0.7336 -0.0129
 6634TIP3    H141393   6.759   5.660  12.626  0.2975 -0.5062  0.1792
 6634TIP3    H241394   6.699   5.686  12.763  0.8334  0.1505  0.2939
 6635TIP3   OH241395   0.028   2.221   4.135 -0.1496 -0.7176  0.4090
 6635TIP3    H141396   0.074   2.278   4.196 -2.4679 -0.6250  2.2227
 6635TIP3    H241397   0.094   2.158   4.106  1.2046 -0.3615  2.5118
 6636TIP3   OH241398   5.959   5.821   3.719  1.0446 -0.0743  0.2410
 6636TIP3    H141399   6.009   5.739   3.717 -1.8139 -1.9589 -0.6508
 6636TIP3    H241400   5.924   5.830   3.630  0.6223  1.6963  0.5492
 6637TIP3   OH241401   3.799   1.303   4.491  0.0847 -0.1380  0.3977
 6637TIP3    H141402   3.872   1.354   4.455  0.4584 -0.6053  0.4723
 6637TIP3    H241403   3.797   1.326   4.584 -0.3609  0.4576  0.2438
 6638TIP3   OH241404   2.587   5.291  10.751  0.0031  0.3322 -0.1886
 6638TIP3    H141405   2.511   5.232  10.746  1.7900 -2.3235  1.4506
 6638TIP3    H241406   2.603   5.317  10.660 -0.5347 -2.2750 -1.1222
 6639TIP3   OH241407   2.332   1.122   5.174  0.1403  0.6038  0.0801
 6639TIP3    H141408   2.331   1.068   5.253 -0.2912 -0.1145 -0.3999
 6639TIP3    H241409   2.295   1.065   5.106  2.0916  0.5986 -1.0354
 6640TIP3   OH241410   0.488   0.528  11.297 -0.4895  0.3794 -0.1895
 6640TIP3    H141411   0.439   0.575  11.230 -0.4779  1.3435  0.4624
 6640TIP3    H241412   0.539   0.463  11.248  2.9115  3.8587 -1.6850
 6641TIP3   OH241413   0.845   6.773   4.665  0.0159  0.5420  0.2916
 6641TIP3    H141414   0.755   6.806   4.656  0.0917  0.9623  0.9599
 6641TIP3    H241415   0.886   6.791   4.580 -1.1275 -1.6181 -0.8076
 6642TIP3   OH241416   6.062   5.627  12.831 -0.3588  0.0741  0.5277
 6642TIP3    H141417   6.058   5.720  12.811  3.3947  0.5540  1.3294
 6642TIP3    H241418   6.100   5.587  12.753 -0.6877 -0.5930  0.7011
 6643TIP3   OH241419   4.893   2.753   2.329  0.3107  0.8212  0.6582
 6643TIP3    H141420   4.946   2.675   2.311  0.2209  1.1588 -1.3652
 6643TIP3    H241421   4.956   2.825   2.329 -0.0591  1.2331 -1.8290
 6644TIP3   OH241422   1.225   2.567   3.893  0.0197  0.3507  0.1440
 6644TIP3    H141423   1.180   2.636   3.846  0.1173  0.8030  0.7087
 6644TIP3    H241424   1.159   2.531   3.953 -0.2182 -0.4898 -0.6032
 6645TIP3   OH241425   5.106   2.013   5.161 -0.2976  0.2048  0.3845
 6645TIP3    H141426   5.067   1.926   5.166 -3.0179  1.3910  1.4486
 6645TIP3    H241427   5.132   2.034   5.251  1.5070  0.0824 -0.0521
 6646TIP3   OH241428   0.785   6.576  12.416 -0.1279 -0.3186 -0.1403
 6646TIP3    H141429   0.695   6.572  12.383  0.5274 -0.8356 -1.9544
 6646TIP3    H241430   0.797   6.668  12.441 -0.8912 -0.0704 -0.6487
 6647TIP3   OH241431   2.664   6.567  11.854  0.2128 -0.1149  0.3715
 6647TIP3    H141432   2.689   6.554  11.945  0.5663 -0.7850  0.1918
 6647TIP3    H241433   2.574   6.534  11.849  0.0386  0.3228  0.5649
 6648TIP3   OH241434   2.231   6.334  14.850 -0.4742 -0.3047 -0.4035
 6648TIP3    H141435   2.173   6.278  14.902  0.1268  0.4672  1.1698
 6648TIP3    H241436   2.300   6.360  14.911 -0.8284  2.2939 -0.9788
 6649TIP3   OH241437   6.740   4.232  11.757  0.5653  0.1669 -0.3272
 6649TIP3    H141438   6.758   4.208  11.666 -1.0765 -0.8130 -0.4187
 6649TIP3    H241439   6.783   4.317  11.767 -0.4696  1.0384 -2.4942
 6650TIP3   OH241440   5.045   5.434   1.570  0.5974 -0.4693 -0.1713
 6650TIP3    H141441   5.083   5.353   1.605 -1.4065 -2.0516 -1.4847
 6650TIP3    H241442   5.106   5.503   1.598  2.1361 -2.3487  1.3619
 6651TIP3   OH241443   3.848   3.862  16.028  0.0084  0.1372  0.3021
 6651TIP3    H141444   3.847   3.895  15.938  2.3007  0.5087  0.3653
 6651TIP3    H241445   3.815   3.772  16.021 -1.9898  0.8747 -0.5300
 6652TIP3   OH241446   1.022   4.314   4.358  0.3148 -0.2914  0.2632
 6652TIP3    H141447   0.959   4.262   4.408  0.4603  0.5462  1.3597
 6652TIP3    H241448   1.085   4.249   4.326 -0.8041 -1.0756 -0.4340
 6653TIP3   OH241449   6.615   2.784   0.454 -0.2249  0.1189  0.3544
 6653TIP3    H141450   6.655   2.750   0.534 -1.8639 -0.5698  0.9317
 6653TIP3    H241451   6.620   2.879   0.463  2.4505  0.1140 -0.2475
 6654TIP3   OH241452   0.915   5.440  10.846 -0.0666 -0.3466  0.7499
 6654TIP3    H141453   0.839   5.431  10.790  0.1588  0.6995  0.2503
 6654TIP3    H241454   0.985   5.395  10.799  0.1349  0.5716  0.1411
 6655TIP3   OH241455   0.860   4.030   3.681  0.7114 -0.0895  0.0022
 6655TIP3    H141456   0.886   4.102   3.739 -0.9215  1.9903 -1.6444
 6655TIP3    H241457   0.913   3.956   3.709  2.9616  1.8936  1.4317
 6656TIP3   OH241458   1.765   6.385   2.679 -0.2105  0.5819 -0.2201
 6656TIP3    H141459   1.756   6.442   2.603  0.7776  0.5400 -0.3859
 6656TIP3    H241460   1.806   6.306   2.645  0.7445  0.7749  0.4414
 6657TIP3   OH241461   0.205   6.768  16.100 -0.1129 -0.2600  0.0300
 6657TIP3    H141462   0.131   6.759  16.041  0.0936 -0.8175 -0.1584
 6657TIP3    H241463   0.282   6.766  16.043  0.0287  2.2631  0.0140
 6658TIP3   OH241464   3.134   2.838  14.099 -0.0616 -0.5665 -0.7685
 6658TIP3    H141465   3.181   2.870  14.022  1.3948  1.8547  0.9677
 6658TIP3    H241466   3.136   2.743  14.090 -0.6784 -0.4029 -4.0693
 6659TIP3   OH241467   3.271   0.647   4.661 -0.2872 -0.2312  0.2848
 6659TIP3    H141468   3.316   0.571   4.625  0.2705  0.5892 -0.8223
 6659TIP3    H241469   3.201   0.666   4.598 -0.8701 -0.2454  0.9163
 6660TIP3   OH241470   6.410   0.121  12.807  0.1393  0.6328  0.0715
 6660TIP3    H141471   6.388   0.165  12.725  0.2580  0.6346  0.0411
 6660TIP3    H241472   6.339   0.059  12.821 -0.1933  1.0531  0.2790
 6661TIP3   OH241473   0.614   0.941  14.872  0.2957 -0.1637  0.6592
 6661TIP3    H141474   0.664   0.969  14.949  2.0964 -0.1635 -0.4395
 6661TIP3    H241475   0.626   0.846  14.870 -0.2935 -0.2414  0.7279
 6662TIP3   OH241476   2.603   0.166  12.101  0.2938  0.3196  0.0338
 6662TIP3    H141477   2.526   0.119  12.069  1.4966 -0.4735 -1.8618
 6662TIP3    H241478   2.617   0.132  12.189 -2.6892  2.0021  1.2941
 6663TIP3   OH241479   0.305   0.678   3.741 -0.2714  0.3575  0.0914
 6663TIP3    H141480   0.283   0.769   3.723  1.8251  0.6676 -1.1992
 6663TIP3    H241481   0.238   0.649   3.803 -1.7581  2.3617 -0.4770
 6664TIP3   OH241482   6.305   5.146   1.404 -0.2975 -0.5204  0.2144
 6664TIP3    H141483   6.264   5.143   1.317 -1.8067  2.5904  0.6907
 6664TIP3    H241484   6.241   5.192   1.459  1.1370 -1.3371  2.7053
 6665TIP3   OH241485   2.341   1.306  14.947 -0.6190  0.2134  0.6681
 6665TIP3    H141486   2.280   1.324  15.019 -0.7793  1.0319  0.3412
 6665TIP3    H241487   2.334   1.212  14.933 -2.3633  0.3667  0.1674
 6666TIP3   OH241488   0.972   5.813  16.487 -0.0423 -0.1430  0.0947
 6666TIP3    H141489   0.989   5.760  16.564  0.4178  0.0512  0.1283
 6666TIP3    H241490   1.058   5.847  16.461 -0.2569  0.1704 -0.2260
 6667TIP3   OH241491   3.976   3.875  13.972  0.2557 -0.0523  0.1685
 6667TIP3    H141492   4.071   3.888  13.973  0.3401 -0.2458 -1.7299
 6667TIP3    H241493   3.966   3.781  13.956 -0.2621 -0.0456  0.4561
 6668TIP3   OH241494   5.252   5.078   0.422 -0.0286 -0.4018  0.7434
 6668TIP3    H141495   5.317   5.128   0.373  0.2606  0.9287  2.3827
 6668TIP3    H241496   5.186   5.053   0.357  0.5341  0.9353 -0.3973
 6669TIP3   OH241497   4.866   2.871  11.746 -0.1615 -0.0726 -0.3089
 6669TIP3    H141498   4.777   2.905  11.736  0.0041  0.1847 -0.8952
 6669TIP3    H241499   4.869   2.842  11.837 -0.9049 -0.2506 -0.3305
 6670TIP3   OH241500   2.419   3.465  16.858 -0.2840  0.0752  0.2554
 6670TIP3    H141501   2.476   3.460  16.781 -1.2289  0.4809 -0.4924
 6670TIP3    H241502   2.420   3.376  16.894  1.6050  0.3050  0.8593
 6671TIP3   OH241503   4.736   5.023  14.975 -0.2455  0.0324 -1.0201
 6671TIP3    H141504   4.760   5.056  15.062 -0.2332 -3.0031  0.2507
 6671TIP3    H241505   4.643   5.045  14.966 -0.3911 -0.1159  0.0291
 6672TIP3   OH241506   3.058   6.291  12.820 -0.3913  0.6096  0.3180
 6672TIP3    H141507   3.055   6.358  12.752  0.3050  0.2507 -0.0702
 6672TIP3    H241508   3.079   6.210  12.774  0.9338  0.5010  1.0588
 6673TIP3   OH241509   6.516   3.750   5.621  0.0242  0.4821 -0.1781
 6673TIP3    H141510   6.499   3.761   5.527 -2.1315 -0.8120 -0.0015
 6673TIP3    H241511   6.485   3.832   5.661  4.3286  2.6941 -0.7939
 6674TIP3   OH241512   3.020   5.293  15.857 -0.6303 -0.2284  0.2701
 6674TIP3    H141513   3.070   5.285  15.775 -0.1037  0.4329  0.5165
 6674TIP3    H241514   2.934   5.257  15.836 -1.0151  1.3307 -1.0285
 6675TIP3   OH241515   2.704   1.627   3.264  0.0413  0.1500 -0.1928
 6675TIP3    H141516   2.772   1.658   3.323  0.3832  0.3830 -0.7030
 6675TIP3    H241517   2.640   1.585   3.321  1.4547 -1.6502  0.1484
 6676TIP3   OH241518   5.150   4.307   1.676 -0.1279 -0.2450  0.0015
 6676TIP3    H141519   5.222   4.257   1.715  1.1983  1.4919 -0.0835
 6676TIP3    H241520   5.092   4.241   1.639  0.7993 -1.7637  1.1184
 6677TIP3   OH241521   1.705   0.324  16.590  0.5796  0.1433  0.0773
 6677TIP3    H141522   1.697   0.343  16.684 -0.8744 -0.6225  0.1317
 6677TIP3    H241523   1.661   0.240  16.579 -0.9829  1.1164 -1.5890
 6678TIP3   OH241524   5.754   0.057  16.123  0.4666  0.2328 -0.4489
 6678TIP3    H141525   5.728  -0.001  16.052 -0.6760  0.9162 -0.6085
 6678TIP3    H241526   5.826   0.010  16.167 -1.0652 -1.7906  0.0649
 6679TIP3   OH241527   5.067   4.447  10.709 -0.4500  0.3448  0.0574
 6679TIP3    H141528   5.020   4.405  10.782  1.9040 -0.5627  1.1599
 6679TIP3    H241529   5.034   4.403  10.631 -0.0833 -1.6486  0.9641
 6680TIP3   OH241530   3.352   6.116   4.243  0.0109 -0.1560  0.0050
 6680TIP3    H141531   3.264   6.101   4.210 -0.5635 -0.0452  1.4587
 6680TIP3    H241532   3.367   6.045   4.306  1.2712 -0.6379 -0.7849
 6681TIP3   OH241533   4.443   2.907  16.896  0.2716 -0.0807  0.1023
 6681TIP3    H141534   4.446   2.830  16.838 -1.6037 -0.1879  0.1001
 6681TIP3    H241535   4.393   2.972  16.846 -3.6728 -1.0191  2.4282
 6682TIP3   OH241536   3.720   4.843  10.748  0.0307  0.0947 -0.4621
 6682TIP3    H141537   3.657   4.818  10.680 -1.0181  2.1893 -0.3284
 6682TIP3    H241538   3.667   4.886  10.815  1.1209 -1.4204  1.4716
 6683TIP3   OH241539   3.263   3.548  14.568  0.2727  0.0937  0.2864
 6683TIP3    H141540   3.273   3.584  14.657 -1.2420 -0.7389  0.8335
 6683TIP3    H241541   3.202   3.609  14.526 -0.8940 -0.8055  0.6298
 6684TIP3   OH241542   4.446   1.576   2.358  0.1034  0.7305  0.1449
 6684TIP3    H141543   4.356   1.595   2.382 -0.8603  1.2287 -3.3183
 6684TIP3    H241544   4.487   1.662   2.347  0.4432  0.5366 -0.1430
 6685TIP3   OH241545   4.355   0.724  15.552  0.4800 -0.2732 -0.0365
 6685TIP3    H141546   4.309   0.799  15.592  0.3034 -0.5505  0.2881
 6685TIP3    H241547   4.323   0.648  15.601  0.6404 -0.5648 -0.3825
 6686TIP3   OH241548   0.777   3.638   1.275  0.0386 -0.0900 -0.8969
 6686TIP3    H141549   0.691   3.598   1.263  0.6975 -1.7599 -0.3937
 6686TIP3    H241550   0.834   3.591   1.214  1.0885 -0.8430  0.5890
 6687TIP3   OH241551   3.471   4.200  11.956  0.8425  0.3986  0.0887
 6687TIP3    H141552   3.559   4.214  11.921  0.6939  1.0503 -0.0474
 6687TIP3    H241553   3.418   4.268  11.915 -0.3577 -1.6709 -2.0278
 6688TIP3   OH241554   0.833   2.929  15.584  0.3145  0.5466 -0.1490
 6688TIP3    H141555   0.830   2.834  15.570 -1.6778 -0.0159  2.9936
 6688TIP3    H241556   0.861   2.938  15.675 -0.0461  2.9649 -0.2244
 6689TIP3   OH241557   0.007   2.600   1.912 -0.5492 -0.2746  0.4653
 6689TIP3    H141558   0.055   2.576   1.991  0.4042 -1.9714 -0.5477
 6689TIP3    H241559   0.062   2.567   1.840 -2.7546 -1.4593 -0.7932
 6690TIP3   OH241560   2.542   6.027   2.115 -0.4087 -0.3924  0.3619
 6690TIP3    H141561   2.553   6.071   2.200 -0.9267 -0.1096  0.2870
 6690TIP3    H241562   2.584   6.086   2.053  0.1361 -0.6901  0.4402
 6691TIP3   OH241563   4.556   4.145  12.830  0.3331  0.7688  0.8191
 6691TIP3    H141564   4.572   4.202  12.906  2.1192 -0.4714  1.4384
 6691TIP3    H241565   4.548   4.057  12.868  2.2356 -0.0162 -0.4649
 6692TIP3   OH241566   4.172   2.114  14.856 -0.0560  0.4095  0.3850
 6692TIP3    H141567   4.132   2.084  14.937 -0.0975  1.5051  0.7819
 6692TIP3    H241568   4.243   2.052  14.840 -0.4049 -0.1520  0.9384
 6693TIP3   OH241569   6.183   4.847  14.019 -0.3286  0.0205 -0.5504
 6693TIP3    H141570   6.270   4.852  13.979 -1.0515 -1.2910 -2.4543
 6693TIP3    H241571   6.154   4.757  14.001 -1.7764  0.2049  0.6941
 6694TIP3   OH241572   4.542   0.059  12.238 -0.5188 -0.2322 -0.4516
 6694TIP3    H141573   4.491  -0.020  12.226  0.3632 -0.8264 -0.3716
 6694TIP3    H241574   4.615   0.033  12.293  0.2333  0.4307 -1.0982
 6695TIP3   OH241575   2.599   1.101  14.836 -0.5742 -0.3190 -0.3249
 6695TIP3    H141576   2.601   1.154  14.756 -0.7706  0.9410  0.4750
 6695TIP3    H241577   2.506   1.091  14.856 -0.5193 -0.4202 -0.1161
 6696TIP3   OH241578   2.957   2.459  14.501  0.2311 -0.4900 -0.3835
 6696TIP3    H141579   3.052   2.448  14.507  0.1438 -1.6508 -0.8863
 6696TIP3    H241580   2.941   2.475  14.408 -0.1038 -0.6167 -0.3482
 6697TIP3   OH241581   4.132   0.759   0.408 -0.1123 -0.0877  0.3668
 6697TIP3    H141582   4.078   0.695   0.362 -0.0943  0.3523 -0.2906
 6697TIP3    H241583   4.089   0.772   0.492 -1.0367  0.2600 -0.1460
 6698TIP3   OH241584   2.325   1.480   3.219  0.5084  0.2260  0.4724
 6698TIP3    H141585   2.301   1.491   3.311 -0.9434  2.7371 -0.1305
 6698TIP3    H241586   2.272   1.407   3.189  0.8168 -0.4620  1.5369
 6699TIP3   OH241587   3.143   5.655  16.087  0.0504  0.0687 -0.3977
 6699TIP3    H141588   3.120   5.627  15.998  0.5435  0.3546 -0.6141
 6699TIP3    H241589   3.063   5.695  16.121 -0.7630 -1.7787  0.0043
 6700TIP3   OH241590   5.017   0.005  10.984  0.3707  0.4803  0.0143
 6700TIP3    H141591   5.047  -0.033  10.901  1.8039 -0.3159  0.8419
 6700TIP3    H241592   4.959  -0.062  11.021  1.1430  0.0352  0.4510
 6701TIP3   OH241593   1.709   0.678  15.684  0.3514 -0.5115 -0.0540
 6701TIP3    H141594   1.715   0.764  15.725 -1.1005  0.1395 -1.1364
 6701TIP3    H241595   1.691   0.618  15.756 -0.0281  0.2964  0.5366
 6702TIP3   OH241596   3.294   0.540  14.274  0.3217  1.1626 -0.3235
 6702TIP3    H141597   3.240   0.560  14.351 -1.3165  2.0663 -1.6280
 6702TIP3    H241598   3.348   0.619  14.261 -0.1844  1.4555 -0.6993
 6703TIP3   OH241599   2.230   0.687   4.295 -0.8738  0.1829 -0.0912
 6703TIP3    H141600   2.288   0.714   4.224 -1.5137  0.1038 -0.6585
 6703TIP3    H241601   2.148   0.664   4.251 -0.6226 -1.9462  0.4251
 6704TIP3   OH241602   6.635   1.501   1.721 -0.1103 -0.2909 -0.0516
 6704TIP3    H141603   6.680   1.484   1.638  0.8230 -0.5365  0.4959
 6704TIP3    H241604   6.637   1.596   1.730  1.3988 -0.3524  0.5475
 6705TIP3   OH241605   2.020   6.646  14.012 -0.3511  0.5403 -0.1928
 6705TIP3    H141606   1.960   6.619  14.081 -0.1975 -3.2858 -1.3070
 6705TIP3    H241607   2.106   6.613  14.041 -0.1230 -0.2756 -1.7090
 6706TIP3   OH241608   2.253   5.873  16.795 -0.6809 -0.2923  0.8517
 6706TIP3    H141609   2.163   5.870  16.827 -0.7077 -1.4064  0.7035
 6706TIP3    H241610   2.251   5.937  16.723 -1.5765 -1.0173  0.2065
 6707TIP3   OH241611   6.258   3.820  11.906  0.1996 -0.4934  0.0680
 6707TIP3    H141612   6.273   3.914  11.894  0.8627 -0.3699  1.6396
 6707TIP3    H241613   6.316   3.779  11.842  0.5192  0.1579 -0.0757
 6708TIP3   OH241614   6.025   1.168   4.992 -0.1382 -0.2207 -0.2625
 6708TIP3    H141615   6.033   1.256   4.956 -1.5370  0.1498  0.2872
 6708TIP3    H241616   6.102   1.157   5.047  0.3284  0.4429 -0.7724
 6709TIP3   OH241617   4.112   3.542   4.352  0.1204 -0.4317  0.2010
 6709TIP3    H141618   4.108   3.592   4.271 -1.1441  0.0520  0.5412
 6709TIP3    H241619   4.021   3.531   4.378  0.4657 -1.3906  1.0694
 6710TIP3   OH241620   4.645   2.912  12.437  0.5626 -0.5408 -0.6014
 6710TIP3    H141621   4.646   2.886  12.529 -2.1914 -1.2377 -0.6944
 6710TIP3    H241622   4.561   2.957  12.425  1.1147  0.0522 -2.6533
 6711TIP3   OH241623   2.638   5.206   1.618  0.9242 -0.2761 -0.3461
 6711TIP3    H141624   2.572   5.143   1.586  0.7233 -0.0464 -0.3883
 6711TIP3    H241625   2.693   5.154   1.677  2.3327 -1.1432 -2.3286
 6712TIP3   OH241626   2.962   1.731  14.160  0.0594  0.0576 -0.3355
 6712TIP3    H141627   3.056   1.731  14.179  0.0643 -1.4430 -0.2418
 6712TIP3    H241628   2.924   1.679  14.231 -0.7911  0.2469 -0.6498
 6713TIP3   OH241629   3.125   2.548   4.591 -0.2062  0.1442 -0.0013
 6713TIP3    H141630   3.169   2.494   4.658  0.7272  0.3804 -0.4007
 6713TIP3    H241631   3.112   2.488   4.517  2.2904  0.7650 -1.0729
 6714TIP3   OH241632   3.949   4.645   2.548 -0.2101  0.4264 -0.0965
 6714TIP3    H141633   3.942   4.708   2.620 -0.6254 -0.4402  0.6445
 6714TIP3    H241634   3.866   4.655   2.500 -1.0281 -0.7058  1.0140
 6715TIP3   OH241635   1.641   5.492  16.631  0.2996  0.8944 -0.0249
 6715TIP3    H141636   1.730   5.504  16.596  0.7502 -1.0083  0.3895
 6715TIP3    H241637   1.599   5.431  16.571  0.2202 -0.3793  1.2700
 6716TIP3   OH241638   2.091   1.531   2.991 -0.0579  0.5669 -0.4613
 6716TIP3    H141639   2.117   1.617   2.958  0.8583  1.1220  1.5524
 6716TIP3    H241640   2.173   1.482   2.999 -0.5432 -0.4400 -1.3507
 6717TIP3   OH241641   2.351   0.067  11.768  0.3843 -0.6257  0.4694
 6717TIP3    H141642   2.391   0.151  11.792  0.3523 -0.4894  0.0509
 6717TIP3    H241643   2.407   0.034  11.698 -1.3070  0.4754 -1.4968
 6718TIP3   OH241644   3.168   1.228   1.018 -0.1389 -0.0323  0.0326
 6718TIP3    H141645   3.121   1.145   1.012  2.0724 -1.2360 -2.3557
 6718TIP3    H241646   3.213   1.224   1.102 -2.6312  0.3360  1.4981
 6719TIP3   OH241647   5.180   1.124   2.144  0.2072 -0.0666  0.3450
 6719TIP3    H141648   5.120   1.065   2.189  1.3524  0.3626  2.5565
 6719TIP3    H241649   5.127   1.201   2.122 -0.6202 -0.7277 -0.0385
 6720TIP3   OH241650   4.656   1.588  14.293 -0.5807  0.5980  0.0213
 6720TIP3    H141651   4.560   1.585  14.292 -0.5857 -0.9668  1.1117
 6720TIP3    H241652   4.681   1.513  14.347  1.2855  0.5422 -0.8672
 6721TIP3   OH241653   3.428   1.995   1.814 -0.5865 -0.2894 -0.6117
 6721TIP3    H141654   3.389   2.029   1.895  2.1509 -0.2744  0.8138
 6721TIP3    H241655   3.455   1.906   1.836 -0.4389 -0.5431 -1.7678
 6722TIP3   OH241656   4.109   4.992  17.214  0.3496  0.5155  0.0458
 6722TIP3    H141657   4.119   4.984  17.309 -0.6178  0.2536  0.1329
 6722TIP3    H241658   4.020   4.964  17.196  1.5172 -2.8317 -1.3487
 6723TIP3   OH241659   6.193   1.419  12.075 -0.3655  0.0105 -0.2520
 6723TIP3    H141660   6.195   1.433  11.980  1.0026 -2.6095 -0.7085
 6723TIP3    H241661   6.111   1.372  12.091 -0.0876 -0.4894 -0.2981
 6724TIP3   OH241662   1.480   1.401  13.603 -0.1679  0.1188 -0.0179
 6724TIP3    H141663   1.498   1.308  13.613 -1.7407 -0.1989  0.0915
 6724TIP3    H241664   1.484   1.436  13.692 -1.7059 -0.2783  0.2270
 6725TIP3   OH241665   5.090   4.311  15.298 -0.4495  0.1161 -0.1025
 6725TIP3    H141666   5.121   4.241  15.240 -1.3846 -1.7008  1.4542
 6725TIP3    H241667   5.159   4.318  15.365  0.0851  1.3951 -0.7532
 6726TIP3   OH241668   2.237   0.243   5.388 -0.3039  0.1386 -0.0674
 6726TIP3    H141669   2.229   0.150   5.408 -0.5555  0.0052 -0.7626
 6726TIP3    H241670   2.304   0.247   5.320  2.4117  0.8151  2.4385
 6727TIP3   OH241671   6.388   2.937  16.170 -0.3892  0.1679  0.2839
 6727TIP3    H141672   6.388   2.873  16.099 -0.3681  0.7916 -0.2888
 6727TIP3    H241673   6.362   3.019  16.128  3.2649  1.4424  0.1830
 6728TIP3   OH241674   2.812   0.495  15.040 -0.1618 -0.2777 -0.2787
 6728TIP3    H141675   2.879   0.513  14.974  0.3347  1.4594  0.6311
 6728TIP3    H241676   2.782   0.581  15.068  0.1950 -0.8921  2.3104
 6729TIP3   OH241677   5.130   0.746  15.335 -0.2278  0.0496 -0.1343
 6729TIP3    H141678   5.189   0.753  15.410  0.7683  0.9165 -0.9766
 6729TIP3    H241679   5.052   0.795  15.362 -0.6627 -1.1786  1.0148
 6730TIP3   OH241680   6.525   2.670  16.748 -0.2205 -0.1789 -0.2758
 6730TIP3    H141681   6.482   2.597  16.704 -1.0749 -0.8148  1.5487
 6730TIP3    H241682   6.538   2.641  16.838  2.2045  0.7868 -0.2422
 6731TIP3   OH241683   5.122   1.708  15.724 -0.0880  0.0993  0.3119
 6731TIP3    H141684   5.183   1.779  15.701 -1.7619  1.4173 -0.2533
 6731TIP3    H241685   5.092   1.674  15.640 -2.0504  1.2210  0.5041
 6732TIP3   OH241686   1.930   2.023   3.211 -0.1191  0.2388 -0.2563
 6732TIP3    H141687   2.024   2.009   3.212 -0.1201  0.2597  0.1631
 6732TIP3    H241688   1.903   1.997   3.123  0.0698 -1.0760  0.0558
 6733TIP3   OH241689   2.768   1.521  17.086  0.8831  0.4998 -0.4367
 6733TIP3    H141690   2.764   1.494  16.994 -1.3681  3.1210 -1.2296
 6733TIP3    H241691   2.847   1.574  17.093  1.0295  0.3362 -0.8617
 6734TIP3   OH241692   3.272   4.185  14.825  0.4542 -0.5293 -0.5114
 6734TIP3    H141693   3.221   4.126  14.769 -1.6706 -0.7740  1.5033
 6734TIP3    H241694   3.295   4.131  14.901  0.8561  0.5083  0.1217
 6735TIP3   OH241695   4.635   1.282   4.015 -0.0745  0.2222  0.3262
 6735TIP3    H141696   4.577   1.265   3.940  0.4427 -0.1554  0.0047
 6735TIP3    H241697   4.723   1.276   3.979  0.1711  0.9837  0.7723
 6736TIP3   OH241698   4.032   3.248   1.728 -0.3393 -0.3391  0.3595
 6736TIP3    H141699   4.033   3.197   1.809  1.0382 -3.0429 -1.2188
 6736TIP3    H241700   4.103   3.312   1.739  0.3152 -1.1583  1.0335
 6737TIP3   OH241701   1.837   6.601   1.684 -0.7432 -0.3792  0.0514
 6737TIP3    H141702   1.805   6.669   1.743 -0.6834  1.0432 -1.4888
 6737TIP3    H241703   1.904   6.555   1.735 -1.6113 -0.0878  1.5290
 6738TIP3   OH241704   2.941   5.391  13.704  0.2690 -0.0776 -0.5545
 6738TIP3    H141705   3.004   5.363  13.770  0.1471 -0.4728 -0.6023
 6738TIP3    H241706   2.909   5.309  13.665  2.0047  0.1640 -2.6934
 6739TIP3   OH241707   4.084   0.942  13.160 -0.4977  0.0638 -0.1508
 6739TIP3    H141708   4.126   0.865  13.199 -1.7887 -1.4297 -1.5610
 6739TIP3    H241709   4.064   0.998  13.235 -0.3985 -1.4210  1.0491
 6740TIP3   OH241710   2.374   0.420  16.952 -0.1720  0.9564  0.2980
 6740TIP3    H141711   2.418   0.359  17.011  0.1471 -0.2852 -1.1519
 6740TIP3    H241712   2.307   0.462  17.006 -0.1157 -0.3647  1.4539
 6741TIP3   OH241713   4.647   0.309  14.064  0.1001  0.0217  0.4527
 6741TIP3    H141714   4.566   0.258  14.057  0.5792 -0.9901  1.8215
 6741TIP3    H241715   4.639   0.354  14.148  0.3938  0.9890 -0.0177
 6742TIP3   OH241716   6.512   1.334  10.566 -0.0829  0.7242 -0.0127
 6742TIP3    H141717   6.598   1.364  10.536  0.5374  0.0110  0.9846
 6742TIP3    H241718   6.449   1.389  10.519  0.9378  1.7438 -0.2323
 6743TIP3   OH241719   1.236   3.079   1.594  0.1733  0.2813 -0.2216
 6743TIP3    H141720   1.192   3.066   1.510 -3.4850  0.5148  1.4813
 6743TIP3    H241721   1.326   3.050   1.579 -1.2159 -3.1705 -3.2130
 6744TIP3   OH241722   2.532   0.341  14.156  0.3008  0.1012 -0.5022
 6744TIP3    H141723   2.530   0.355  14.250 -1.1224  0.8384 -0.6122
 6744TIP3    H241724   2.620   0.305  14.139  0.2876 -0.8657  1.1908
 6745TIP3   OH241725   1.233   2.522   2.298 -0.0775 -0.1354  0.3992
 6745TIP3    H141726   1.168   2.537   2.368  0.1861 -0.2384  0.6673
 6745TIP3    H241727   1.219   2.432   2.271 -1.2737  0.3832 -0.8138
 6746TIP3   OH241728   3.282   6.743   5.501  0.2055  0.0995  0.5323
 6746TIP3    H141729   3.237   6.792   5.569 -0.0340  1.9800 -0.8913
 6746TIP3    H241730   3.374   6.772   5.507 -0.0186  1.1691 -0.6005
 6747TIP3   OH241731   2.716   4.097   3.664  0.0607  0.5756 -0.5957
 6747TIP3    H141732   2.669   4.171   3.626 -0.1431  0.0360 -1.4333
 6747TIP3    H241733   2.703   4.026   3.601 -1.3589 -0.7314  1.0672
 6748TIP3   OH241734   0.451   3.498   0.141 -0.0715 -0.4118 -0.0114
 6748TIP3    H141735   0.372   3.550   0.160  1.4640  1.2458  2.3853
 6748TIP3    H241736   0.484   3.473   0.227  1.1988 -2.4753 -1.0206
 6749TIP3   OH241737   0.676   5.241   4.641  0.3601  0.2494  0.2522
 6749TIP3    H141738   0.765   5.269   4.664  0.6726  0.0695 -0.7251
 6749TIP3    H241739   0.686   5.189   4.561 -0.6495  0.3872  0.0210
 6750TIP3   OH241740   2.816   2.156  17.026  0.4610  0.2302 -0.2481
 6750TIP3    H141741   2.784   2.068  17.045  0.0877  0.2797 -0.6299
 6750TIP3    H241742   2.761   2.187  16.954  1.6960  0.1219 -1.2696
 6751TIP3   OH241743   1.551   1.017   4.724 -0.1885  0.3840 -0.5192
 6751TIP3    H141744   1.539   0.995   4.817 -1.6097  0.4279 -0.6760
 6751TIP3    H241745   1.508   0.946   4.677 -2.2273  1.8889 -1.0723
 6752TIP3   OH241746   4.117   2.761  14.525  0.0681  0.7222  0.6060
 6752TIP3    H141747   4.032   2.804  14.517  0.0979  0.6922  0.0447
 6752TIP3    H241748   4.097   2.671  14.548  0.0598  1.4395  3.8826
 6753TIP3   OH241749   5.891   5.663   2.666  0.3180  0.2115  0.4350
 6753TIP3    H141750   5.819   5.654   2.604  1.1725 -0.5952 -0.4639
 6753TIP3    H241751   5.848   5.675   2.751 -0.8644  0.2960 -0.1578
 6754TIP3   OH241752   4.498   1.023   4.511 -0.3939 -0.3082 -0.6639
 6754TIP3    H141753   4.509   0.937   4.470 -0.7684 -1.1294  0.8746
 6754TIP3    H241754   4.477   1.081   4.438  2.6611 -0.8895 -2.1823
 6755TIP3   OH241755   5.524   5.151  13.397  0.0264 -0.3202  0.0045
 6755TIP3    H141756   5.574   5.127  13.475  3.3754  0.5571 -1.6719
 6755TIP3    H241757   5.505   5.245  13.409  1.0565 -0.0425 -0.4454
 6756TIP3   OH241758   0.677   4.946   4.216 -0.3720 -0.4873  0.3799
 6756TIP3    H141759   0.706   4.945   4.125 -0.2757  0.1882  0.3951
 6756TIP3    H241760   0.628   5.028   4.225  1.8362  0.8079  1.6004
 6757TIP3   OH241761   1.802   1.671   1.086 -0.5873 -0.6782 -0.2320
 6757TIP3    H141762   1.820   1.734   1.156 -0.2231 -0.9116 -0.1123
 6757TIP3    H241763   1.865   1.601   1.101  0.8353  0.1720 -1.9710
 6758TIP3   OH241764   4.939   4.106   6.006  0.4602  0.1346 -1.3937
 6758TIP3    H141765   4.966   4.145   5.923 -1.5669  0.2770 -2.0455
 6758TIP3    H241766   4.878   4.169   6.044  0.1400 -0.6382 -0.5674
 6759TIP3   OH241767   6.607   5.991   0.264  0.2193  0.5724 -0.2149
 6759TIP3    H141768   6.671   5.976   0.194  0.0571 -1.2369 -0.0057
 6759TIP3    H241769   6.625   5.924   0.329 -1.7038  0.2010 -0.0076
 6760TIP3   OH241770   5.760   2.341   4.477 -0.9078 -0.3819  0.1154
 6760TIP3    H141771   5.845   2.384   4.484 -0.2699 -1.2179 -1.8406
 6760TIP3    H241772   5.746   2.331   4.383 -1.9189 -2.6571  0.4514
 6761TIP3   OH241773   4.115   0.284  12.193 -0.0680 -0.2068 -1.0806
 6761TIP3    H141774   4.123   0.199  12.236  0.4628  0.9495  1.2575
 6761TIP3    H241775   4.040   0.325  12.235  1.3702  1.5694 -0.1114
 6762TIP3   OH241776   1.007   1.116   1.668 -0.3284 -0.1939 -0.1720
 6762TIP3    H141777   0.924   1.093   1.626 -0.4413 -2.4067  1.0883
 6762TIP3    H241778   1.055   1.033   1.674  1.3388  0.7501  0.5114
 6763TIP3   OH241779   1.783   0.836  17.239 -0.3082 -0.0579  0.1825
 6763TIP3    H141780   1.716   0.902  17.258  0.3774  0.4809  0.8230
 6763TIP3    H241781   1.740   0.752  17.257 -0.7476  0.2925  0.8171
 6764TIP3   OH241782   5.122   0.166   5.782  0.3428 -0.5221  0.5445
 6764TIP3    H141783   5.028   0.158   5.766  0.3855 -1.1985  0.6051
 6764TIP3    H241784   5.128   0.211   5.867  0.1084  1.5543 -0.4865
 6765TIP3   OH241785   3.778   6.808  15.303  0.2094 -0.9114  0.3129
 6765TIP3    H141786   3.730   6.736  15.345 -1.1025  0.1675  0.7525
 6765TIP3    H241787   3.751   6.804  15.212  0.1770 -0.9961  0.3251
 6766TIP3   OH241788   6.188   5.587  14.428 -0.4269  0.2272  0.7663
 6766TIP3    H141789   6.217   5.496  14.417  0.9080  0.6690  0.3498
 6766TIP3    H241790   6.190   5.601  14.523  1.4111  0.4062  0.7419
 6767TIP3   OH241791   6.415   5.808  13.515  0.2637 -0.5087 -0.1240
 6767TIP3    H141792   6.399   5.828  13.607 -3.3180 -1.7681 -0.3092
 6767TIP3    H241793   6.467   5.727  13.516  0.7499 -0.1985  0.7533
 6768TIP3   OH241794   5.327   5.442   1.967  0.0260 -0.1647  0.4870
 6768TIP3    H141795   5.384   5.372   1.933 -0.6478 -0.7184  0.4854
 6768TIP3    H241796   5.243   5.400   1.981 -1.3331  1.3230 -2.4220
 6769TIP3   OH241797   5.307   3.761  11.481 -0.0220  0.0883 -0.1377
 6769TIP3    H141798   5.235   3.724  11.531  0.4122 -0.6655 -0.0622
 6769TIP3    H241799   5.267   3.831  11.428 -0.8057 -0.3433 -0.1169
 6770TIP3   OH241800   1.779   0.831   5.647  0.1735 -0.2409  0.2536
 6770TIP3    H141801   1.828   0.912   5.659 -0.0674 -0.4479  3.1507
 6770TIP3    H241802   1.842   0.762   5.666 -0.2264 -0.6494  0.0987
 6771TIP3   OH241803   1.331   5.440  16.524 -0.2375 -0.4643  0.4304
 6771TIP3    H141804   1.319   5.519  16.471 -2.7394 -1.0801 -0.0492
 6771TIP3    H241805   1.310   5.468  16.613  1.6823  0.0309  0.7581
 6772TIP3   OH241806   4.664   0.154  11.194 -0.5229 -0.1265 -0.3598
 6772TIP3    H141807   4.693   0.066  11.167 -0.7120 -0.5878  0.8759
 6772TIP3    H241808   4.693   0.161  11.285 -0.3070  1.1964 -0.5192
 6773TIP3   OH241809   2.275   3.092  11.318 -0.6033 -0.2923  0.1304
 6773TIP3    H141810   2.323   3.060  11.241 -0.6936 -0.7951  0.2796
 6773TIP3    H241811   2.219   3.018  11.344 -0.9452  0.0481  0.3779
 6774TIP3   OH241812   0.061   0.416   4.925  0.4545  0.7983 -0.4563
 6774TIP3    H141813  -0.032   0.436   4.919  0.3629  0.2461 -0.9561
 6774TIP3    H241814   0.095   0.432   4.837  0.3220 -1.4446 -0.9821
 6775TIP3   OH241815   5.757   4.366  11.807 -0.4065  0.1766  0.3354
 6775TIP3    H141816   5.712   4.296  11.760  0.9587 -0.3911 -0.1732
 6775TIP3    H241817   5.722   4.360  11.896 -0.8443 -0.6733  0.1252
 6776TIP3   OH241818   4.701   2.466   4.379 -0.0864  0.5480 -0.2296
 6776TIP3    H141819   4.773   2.458   4.442 -1.1246  0.5749  0.9773
 6776TIP3    H241820   4.675   2.558   4.384 -1.2240  0.2019  0.4979
 6777TIP3   OH241821   4.833   5.680  12.285 -0.0238 -0.2032  0.0091
 6777TIP3    H141822   4.831   5.588  12.259 -1.3529  0.1757 -1.4000
 6777TIP3    H241823   4.743   5.699  12.310 -0.7395  1.5971 -3.2993
 6778TIP3   OH241824   6.192   6.378  11.490  0.4169 -0.8339  0.0710
 6778TIP3    H141825   6.272   6.428  11.501 -0.6600  1.7328 -2.4807
 6778TIP3    H241826   6.143   6.392  11.570 -0.1251  3.0024 -0.7358
 6779TIP3   OH241827   0.894   1.699   3.884 -0.8779  0.4770 -0.2837
 6779TIP3    H141828   0.930   1.763   3.946 -2.6307 -0.3748  1.7242
 6779TIP3    H241829   0.970   1.665   3.837  0.5359  1.1105  1.4510
 6780TIP3   OH241830   1.017   3.193   1.891 -0.2065  0.3901  0.6140
 6780TIP3    H141831   1.064   3.230   1.816  0.5905  1.9470  1.8062
 6780TIP3    H241832   1.047   3.102   1.895  1.4626  0.8865  0.3326
 6781TIP3   OH241833   4.947   0.965   2.791 -0.1488 -1.0856  0.0228
 6781TIP3    H141834   4.867   0.947   2.741 -0.3234 -1.0365  0.2865
 6781TIP3    H241835   4.993   0.881   2.794  0.0562 -1.0038 -0.5593
 6782TIP3   OH241836   6.177   6.731   5.988  0.2011  0.3031  0.2767
 6782TIP3    H141837   6.087   6.735   6.019  0.3659  0.9143  0.7028
 6782TIP3    H241838   6.212   6.819   6.005  1.1629 -0.2095  1.0140
 6783TIP3   OH241839   4.379   2.621  12.796  0.0138  0.3552  0.1760
 6783TIP3    H141840   4.412   2.559  12.730 -0.4900  0.2375  0.0252
 6783TIP3    H241841   4.412   2.587  12.879  0.0412  0.0834  0.0571
 6784TIP3   OH241842   4.539   0.256   4.854  0.2310  0.6357  0.0157
 6784TIP3    H141843   4.472   0.260   4.922  1.4670  0.4523  1.2917
 6784TIP3    H241844   4.622   0.250   4.902  1.2467  1.8087 -1.5048
 6785TIP3   OH241845   3.743   2.829  11.828 -0.2275  0.0311 -0.1060
 6785TIP3    H141846   3.760   2.760  11.891 -0.4762  0.2022  0.1508
 6785TIP3    H241847   3.754   2.910  11.877 -1.1150  0.1538 -0.0961
 6786TIP3   OH241848   0.307   2.701   0.321  0.0343  0.0852 -0.0938
 6786TIP3    H141849   0.366   2.658   0.259  1.2866  2.1163 -0.3978
 6786TIP3    H241850   0.257   2.763   0.268 -0.1596  0.5872  0.6561
 6787TIP3   OH241851   1.243   5.894   1.151 -0.8583  0.1818  0.0304
 6787TIP3    H141852   1.173   5.881   1.215 -0.2956  2.1320  1.1591
 6787TIP3    H241853   1.219   5.838   1.077 -2.8760 -0.2424  0.9190
 6788TIP3   OH241854   4.332   0.947   3.957 -0.0096 -0.1224  0.2844
 6788TIP3    H141855   4.263   0.887   3.927 -0.0713  0.6891 -1.3081
 6788TIP3    H241856   4.285   1.016   4.004 -0.1545 -0.2773  0.3664
 6789TIP3   OH241857   4.017   3.216   2.620  0.0840 -0.3363 -0.8288
 6789TIP3    H141858   4.048   3.243   2.533  2.5558  0.7451  0.2928
 6789TIP3    H241859   3.970   3.292   2.653 -0.5768 -0.6301 -1.0894
 6790TIP3   OH241860   4.212   5.670   5.477 -0.7993  0.2464  0.3839
 6790TIP3    H141861   4.162   5.749   5.454 -0.5917  0.4514  0.6344
 6790TIP3    H241862   4.202   5.662   5.571 -0.4102  0.2533  0.4254
 6791TIP3   OH241863   4.826   1.584  13.939  0.1544  0.6249  0.2639
 6791TIP3    H141864   4.861   1.670  13.917 -1.7218  0.5991 -3.6841
 6791TIP3    H241865   4.760   1.601  14.007 -0.6468  2.4725 -0.8945
 6792TIP3   OH241866   6.326   4.340   5.575  0.7135 -0.5129 -0.7018
 6792TIP3    H141867   6.275   4.419   5.591  0.9165 -0.6258  0.6193
 6792TIP3    H241868   6.316   4.323   5.481 -0.1628  0.4942 -0.8050
 6793TIP3   OH241869   2.465   1.175  16.703 -0.0236  0.0542 -0.7135
 6793TIP3    H141870   2.423   1.208  16.624 -0.5977 -0.2845 -0.5569
 6793TIP3    H241871   2.487   1.085  16.683 -0.1220 -0.0165 -0.5085
 6794TIP3   OH241872   0.224   6.731  17.151 -0.0062 -0.0526  0.1295
 6794TIP3    H141873   0.264   6.668  17.091 -0.1749 -0.4580  0.4396
 6794TIP3    H241874   0.297   6.776  17.192  0.1399  1.4538 -1.6226
 6795TIP3   OH241875   3.500   5.106   0.862  0.0551 -0.1846  0.4874
 6795TIP3    H141876   3.431   5.054   0.821 -0.2928  0.0763  0.7301
 6795TIP3    H241877   3.555   5.042   0.906 -1.2503 -0.2667  2.1048
 6796TIP3   OH241878   2.741   6.495  12.829 -0.3262  0.2248  0.6401
 6796TIP3    H141879   2.754   6.513  12.736 -0.6853  1.4640  0.8130
 6796TIP3    H241880   2.738   6.399  12.835  1.3553  0.0623 -0.3902
 6797TIP3   OH241881   3.942   2.668   3.678 -0.4748 -0.1003 -0.0496
 6797TIP3    H141882   3.866   2.615   3.654 -1.2811  0.9251  0.2154
 6797TIP3    H241883   3.993   2.674   3.597 -1.5110  0.5895 -0.6622
 6798TIP3   OH241884   4.584   1.870   2.783 -0.0510  0.1837 -0.1090
 6798TIP3    H141885   4.496   1.833   2.785  0.6357 -1.7294  3.5719
 6798TIP3    H241886   4.637   1.802   2.741 -0.1769  1.1657 -1.9558
 6799TIP3   OH241887   4.119   6.428   0.674 -0.6969  0.3842  0.4658
 6799TIP3    H141888   4.212   6.430   0.696 -0.9889  0.2986  1.7959
 6799TIP3    H241889   4.101   6.337   0.654 -0.6424  0.2528  0.9836
 6800TIP3   OH241890   6.792   2.409  12.906 -0.4560  0.4027  0.5101
 6800TIP3    H141891   6.840   2.342  12.858 -0.4232  0.3850  0.5675
 6800TIP3    H241892   6.769   2.474  12.840  2.8532  2.3296  0.9946
 6801TIP3   OH241893   5.576   4.731  13.990  0.2874 -0.3606 -0.3028
 6801TIP3    H141894   5.671   4.738  13.998  0.4032 -0.3336 -1.4353
 6801TIP3    H241895   5.544   4.723  14.080  1.4141 -1.0563  0.0588
 6802TIP3   OH241896   2.159   1.923  14.325  0.4934 -0.5923 -0.6506
 6802TIP3    H141897   2.197   1.911  14.412 -1.2709 -0.5331  0.1918
 6802TIP3    H241898   2.187   2.011  14.299  1.7303 -0.9396 -0.5208
 6803TIP3   OH241899   5.651   0.283   2.702 -0.1930  0.4933 -0.2738
 6803TIP3    H141900   5.565   0.241   2.710 -0.3581  0.7901 -0.4673
 6803TIP3    H241901   5.680   0.262   2.614 -0.4433  1.0909 -0.5057
 6804TIP3   OH241902   3.543   5.235  10.582  0.3434  0.2459 -0.6737
 6804TIP3    H141903   3.519   5.324  10.554 -2.5582 -0.9157 -2.3361
 6804TIP3    H241904   3.584   5.196  10.505 -0.2754 -0.4874 -0.6388
 6805TIP3   OH241905   5.555   6.031   6.171  0.1069  0.4722  0.2085
 6805TIP3    H141906   5.492   5.961   6.188 -0.6199  0.9911 -0.2866
 6805TIP3    H241907   5.625   6.016   6.234  1.0206 -1.9542 -1.2419
 6806TIP3   OH241908   3.571   4.532  11.588  0.4403  0.6452 -0.3211
 6806TIP3    H141909   3.576   4.551  11.682  1.6350 -0.1424 -0.2147
 6806TIP3    H241910   3.528   4.447  11.583  0.9739  0.3840 -0.4557
 6807TIP3   OH241911   3.740   5.639  14.717  0.0049  0.4090 -0.0536
 6807TIP3    H141912   3.763   5.594  14.798  0.5898 -0.0313 -0.4549
 6807TIP3    H241913   3.644   5.643  14.718 -0.0538 -0.7147  0.0638
 6808TIP3   OH241914   1.150   4.264   5.528  0.0589 -0.0380 -0.8801
 6808TIP3    H141915   1.238   4.300   5.534 -0.5790  1.4353  0.9172
 6808TIP3    H241916   1.136   4.249   5.435  1.8055  0.7328 -1.3058
 6809TIP3   OH241917   3.652   6.109   3.028 -0.0736  0.3377  0.4370
 6809TIP3    H141918   3.563   6.089   2.998  0.0731 -0.4525  0.5096
 6809TIP3    H241919   3.700   6.132   2.948  0.0726 -0.8387  0.1690
 6810TIP3   OH241920   4.516   2.297   0.399 -0.4014 -0.2748 -0.4248
 6810TIP3    H141921   4.452   2.345   0.346  1.2383  2.4253 -0.1866
 6810TIP3    H241922   4.530   2.353   0.476 -0.3324 -2.5224  1.2825
 6811TIP3   OH241923   2.654   1.214  16.247 -0.9107  0.3604 -0.1561
 6811TIP3    H141924   2.732   1.170  16.215 -0.4318  0.3877  0.9282
 6811TIP3    H241925   2.640   1.286  16.186 -0.3544  0.0950 -0.6060
 6812TIP3   OH241926   3.919   6.246   1.929 -0.2096  0.4313  0.2405
 6812TIP3    H141927   3.957   6.161   1.907 -0.1022  1.1910 -3.0961
 6812TIP3    H241928   3.827   6.238   1.906 -0.0588  1.3701 -0.7915
 6813TIP3   OH241929   0.685   4.265  15.189 -0.6360  0.4353  0.5896
 6813TIP3    H141930   0.608   4.292  15.239 -0.5244 -2.7146  2.7749
 6813TIP3    H241931   0.670   4.172  15.171  1.5553  0.3316 -1.1690
 6814TIP3   OH241932   5.109   6.271  15.080  0.2499  0.4025 -0.4056
 6814TIP3    H141933   5.081   6.343  15.135  1.6262 -0.4450  1.4965
 6814TIP3    H241934   5.205   6.270  15.088  0.4709 -0.0186 -2.5072
 6815TIP3   OH241935   2.444   2.013   4.957  0.3339  0.0337 -0.7405
 6815TIP3    H141936   2.355   2.043   4.943 -1.1068 -3.4879 -0.1105
 6815TIP3    H241937   2.461   2.031   5.050 -0.4098 -0.7536 -0.4345
 6816TIP3   OH241938   2.954   5.464   0.439  0.1528 -0.3079 -0.0372
 6816TIP3    H141939   2.940   5.533   0.504  0.4642 -1.4228  1.2743
 6816TIP3    H241940   2.921   5.501   0.357  1.3951  1.8381  0.3485
 6817TIP3   OH241941   5.853   4.513  16.285 -0.4255  0.3198 -0.6606
 6817TIP3    H141942   5.758   4.515  16.295 -0.1873  1.0846  2.8626
 6817TIP3    H241943   5.871   4.427  16.247 -2.4984  0.3078 -1.7441
 6818TIP3   OH241944   4.736   6.331  13.420 -0.3137  0.4818  0.2947
 6818TIP3    H141945   4.770   6.345  13.508  0.9937 -2.2164  0.3134
 6818TIP3    H241946   4.801   6.275  13.378 -1.6996  0.3809 -1.8636
 6819TIP3   OH241947   3.297   3.940  16.953 -0.1257 -0.1347  0.8697
 6819TIP3    H141948   3.224   3.916  17.011 -0.2568 -1.8736  0.0713
 6819TIP3    H241949   3.375   3.905  16.997  0.3721  2.2319  2.0121
 6820TIP3   OH241950   0.735   6.068  15.410  0.3300 -0.1293  0.0130
 6820TIP3    H141951   0.818   6.022  15.420  0.6801  0.8310  1.9693
 6820TIP3    H241952   0.744   6.115  15.327  2.3607  1.0987  0.8677
 6821TIP3   OH241953   3.492   2.865   1.142 -0.0976  0.4006 -0.4749
 6821TIP3    H141954   3.464   2.848   1.051 -0.0633 -2.2638 -0.0479
 6821TIP3    H241955   3.435   2.809   1.195  1.1301  0.5191  1.0159
 6822TIP3   OH241956   6.521   6.114  14.639  0.4135 -0.4790 -0.0703
 6822TIP3    H141957   6.487   6.069  14.715 -1.0518 -0.6451 -0.7919
 6822TIP3    H241958   6.456   6.181  14.619  0.0798 -1.2878 -1.9374
 6823TIP3   OH241959   4.756   0.688   1.037 -0.6002 -0.1222  0.0815
 6823TIP3    H141960   4.789   0.621   0.978 -1.4917  0.4013 -1.0601
 6823TIP3    H241961   4.665   0.700   1.011 -1.2353 -0.3215  2.0098
 6824TIP3   OH241962   2.232   3.329  14.028  0.5682  0.3929  0.0217
 6824TIP3    H141963   2.292   3.363  13.962 -0.2430 -0.6137 -1.3054
 6824TIP3    H241964   2.252   3.236  14.033  0.1701  0.3380  0.7231
 6825TIP3   OH241965   6.509   0.528   1.906  0.3530 -0.0729  0.3349
 6825TIP3    H141966   6.531   0.555   1.995  3.4978  1.2869 -0.7097
 6825TIP3    H241967   6.413   0.528   1.904  0.1665 -0.2356  3.6894
 6826TIP3   OH241968   4.590   5.349  12.289 -0.3272 -0.7755  0.6427
 6826TIP3    H141969   4.568   5.383  12.203  2.3354  0.3137  0.2945
 6826TIP3    H241970   4.524   5.386  12.348 -0.1828  1.3200 -0.4303
 6827TIP3   OH241971   6.591   6.018   1.329 -0.4530 -0.4642  0.0254
 6827TIP3    H141972   6.513   5.993   1.379  0.7863 -0.8200  1.8920
 6827TIP3    H241973   6.610   5.942   1.275 -1.7686 -0.1140 -0.9754
 6828TIP3   OH241974   5.376   0.205   0.666  0.0662 -0.5357 -0.0911
 6828TIP3    H141975   5.366   0.166   0.753  1.8106 -0.5685  0.1373
 6828TIP3    H241976   5.405   0.132   0.611 -1.4092 -0.6013 -0.8078
 6829TIP3   OH241977   0.843   4.045   1.847  0.4078 -0.1253  0.0645
 6829TIP3    H141978   0.861   4.035   1.754 -0.2416 -3.6191  0.1839
 6829TIP3    H241979   0.758   4.003   1.860 -0.0812  1.3388  2.0705
 6830TIP3   OH241980   3.969   0.370   3.507 -0.0131 -0.2690 -0.1693
 6830TIP3    H141981   3.993   0.320   3.429  0.5949 -0.5017  0.1678
 6830TIP3    H241982   3.920   0.307   3.562  0.6046 -0.4532  0.1777
 6831TIP3   OH241983   0.231   6.642  15.542 -0.0061  0.0580 -0.1308
 6831TIP3    H141984   0.323   6.634  15.516  0.6151  1.8705  1.3433
 6831TIP3    H241985   0.232   6.697  15.619 -2.0729 -2.4746  1.9113
 6832TIP3   OH241986   1.205   3.462   0.764 -0.3946  1.0882  0.0075
 6832TIP3    H141987   1.217   3.509   0.847 -1.5309  4.5705 -1.6233
 6832TIP3    H241988   1.113   3.435   0.766 -0.0100 -0.2867  0.4869
 6833TIP3   OH241989   0.064   4.911   0.189  0.0277  0.2833 -0.1203
 6833TIP3    H141990   0.044   4.868   0.106 -0.8995  0.0727  0.2033
 6833TIP3    H241991  -0.010   4.889   0.246  0.2716  1.0697  0.5162
 6834TIP3   OH241992   3.588   2.084   3.201 -0.1896  0.3400 -0.2465
 6834TIP3    H141993   3.622   2.034   3.275 -1.3045 -0.7777 -0.4390
 6834TIP3    H241994   3.656   2.147   3.180  0.3027  0.4239  1.4896
 6835TIP3   OH241995   0.591   1.553  11.725  0.0184  0.2366  0.7265
 6835TIP3    H141996   0.638   1.636  11.724  1.1055 -0.3572 -0.7466
 6835TIP3    H241997   0.653   1.491  11.766  0.2980 -0.4048 -0.6136
 6836TIP3   OH241998   6.074   6.676   0.960 -0.5951 -0.4312  0.3353
 6836TIP3    H141999   6.131   6.751   0.977 -0.7205 -0.6525  1.8807
 6836TIP3    H242000   6.080   6.622   1.039 -0.6741 -1.9577 -0.6496
 6837TIP3   OH242001   1.624   5.573   5.933  0.1899  0.1848  0.1055
 6837TIP3    H142002   1.718   5.571   5.917  0.0788 -0.7432 -0.5285
 6837TIP3    H242003   1.586   5.535   5.854 -0.6905  0.1445  0.5434
 6838TIP3   OH242004   5.545   5.089  15.941 -0.4206 -0.0661 -0.0381
 6838TIP3    H142005   5.507   5.166  15.983  1.0433  1.2279 -0.9377
 6838TIP3    H242006   5.474   5.025  15.937 -1.9579  1.5628 -0.0509
 6839TIP3   OH242007   3.744   3.826  11.156  0.8012 -0.7255  0.4149
 6839TIP3    H142008   3.694   3.751  11.124 -1.1609  0.2156  1.0606
 6839TIP3    H242009   3.712   3.899  11.103  2.2617 -0.2351  0.1767
 6840TIP3   OH242010   5.167   1.848   3.248 -0.3093  0.7703 -0.7704
 6840TIP3    H142011   5.158   1.753   3.241  3.4314  0.3181 -1.2806
 6840TIP3    H242012   5.116   1.882   3.174  0.0325 -0.9896 -1.8712
 6841TIP3   OH242013   4.486   5.574  11.459  0.1852 -0.0763  0.5404
 6841TIP3    H142014   4.523   5.638  11.399  1.0464 -0.9996  0.0506
 6841TIP3    H242015   4.398   5.607  11.479  0.1587  0.6139 -0.6517
 6842TIP3   OH242016   4.831   3.445   6.319  0.1791 -1.0159 -0.8535
 6842TIP3    H142017   4.858   3.403   6.401  1.1903 -0.9095 -1.1145
 6842TIP3    H242018   4.741   3.472   6.335  1.4527  2.4270  1.6297
 6843TIP3   OH242019   0.212   2.916  14.384  0.3471  0.0598 -0.1428
 6843TIP3    H142020   0.141   2.852  14.391  0.9882 -0.5038  2.0919
 6843TIP3    H242021   0.182   2.978  14.318 -1.6453 -0.8720 -0.1878
 6844TIP3   OH242022   2.651   2.723  16.150  0.5582  0.3061 -0.0465
 6844TIP3    H142023   2.704   2.663  16.202 -1.6121 -2.4848 -0.7988
 6844TIP3    H242024   2.587   2.758  16.213  0.1597 -0.3036 -0.0988
 6845TIP3   OH242025   3.993   2.799   6.041  0.2252 -0.1180 -0.1457
 6845TIP3    H142026   3.941   2.842   6.108  1.6072  0.6179  0.5048
 6845TIP3    H242027   4.001   2.709   6.071 -0.1400 -0.0802  0.0696
 6846TIP3   OH242028   2.972   6.103  12.006 -0.1687  0.0552  0.5948
 6846TIP3    H142029   3.037   6.169  12.029  0.8940 -0.3737 -0.9992
 6846TIP3    H242030   2.970   6.104  11.910 -2.3364 -0.1387  0.6020
 6847TIP3   OH242031   5.474   2.287  13.967 -0.3160 -0.5342  0.0574
 6847TIP3    H142032   5.406   2.232  14.006 -1.6890 -0.2836 -1.8464
 6847TIP3    H242033   5.466   2.272  13.873  1.5806  0.3214 -0.2748
 6848TIP3   OH242034   4.193   6.427  11.353  0.1520 -0.5615 -0.4801
 6848TIP3    H142035   4.253   6.408  11.281  0.4707  0.7244 -0.5764
 6848TIP3    H242036   4.178   6.522  11.348 -1.9742 -0.8381 -0.5419
 6849TIP3   OH242037   0.865   1.853  15.874 -0.6291 -0.2736 -0.1734
 6849TIP3    H142038   0.863   1.889  15.963  0.4512 -0.8441  0.0979
 6849TIP3    H242039   0.817   1.917  15.821 -2.8689 -0.7744  1.0946
 6850TIP3   OH242040   3.342   4.142  11.295 -0.0548  0.3063  0.2610
 6850TIP3    H142041   3.360   4.235  11.311 -0.6802  0.4132  0.3692
 6850TIP3    H242042   3.411   4.114  11.235  0.5642  0.6602  0.7978
 6851TIP3   OH242043   2.540   2.197  11.833 -0.1659 -0.2518 -0.1098
 6851TIP3    H142044   2.538   2.109  11.871  1.6573  0.1261  1.0106
 6851TIP3    H242045   2.459   2.204  11.783 -1.8503 -1.4843  2.2409
 6852TIP3   OH242046   2.290   3.342  16.608  0.1351  0.3949 -0.3131
 6852TIP3    H142047   2.197   3.361  16.597 -0.4956 -1.0195  2.0527
 6852TIP3    H242048   2.312   3.376  16.695  1.7428  0.3580 -0.6739
 6853TIP3   OH242049   0.039   5.853   2.089  0.5260  0.0013  0.4149
 6853TIP3    H142050   0.100   5.927   2.085 -3.8654  4.0359 -1.1931
 6853TIP3    H242051  -0.014   5.871   2.167 -0.7316 -1.4770 -0.0674
 6854TIP3   OH242052   2.193   1.481   5.104 -0.2417 -0.3263 -0.0173
 6854TIP3    H142053   2.128   1.415   5.079  0.4015 -1.0397  0.1471
 6854TIP3    H242054   2.172   1.557   5.050 -0.9896 -0.6688 -0.2211
 6855TIP3   OH242055   3.797   4.733   2.904 -0.4088 -0.4860  0.2689
 6855TIP3    H142056   3.776   4.797   2.836 -1.2127  1.8339  2.5065
 6855TIP3    H242057   3.716   4.726   2.955  0.0596 -2.4084  0.8184
 6856TIP3   OH242058   6.784   2.137   0.953  0.0667 -0.2936  0.2363
 6856TIP3    H142059   6.855   2.072   0.954 -0.3254 -0.7310  0.0983
 6856TIP3    H242060   6.759   2.144   0.861  0.0702  0.0155  0.2580
 6857TIP3   OH242061   0.769   1.245  12.708 -0.2829  0.1145 -0.0690
 6857TIP3    H142062   0.712   1.217  12.779 -2.0474  1.0600 -1.0533
 6857TIP3    H242063   0.769   1.171  12.647  0.2629 -0.2222  0.3288
 6858TIP3   OH242064   4.894   0.093   5.661  0.0034 -0.5917  0.8693
 6858TIP3    H142065   4.861   0.097   5.571 -0.0132 -2.6200  0.7363
 6858TIP3    H242066   4.816   0.098   5.716 -0.1810 -1.3000  0.6858
 6859TIP3   OH242067   2.994   0.971   3.086 -0.0074 -0.0807  0.3044
 6859TIP3    H142068   3.016   1.064   3.098  0.0444 -0.0811  0.2171
 6859TIP3    H242069   2.907   0.961   3.124 -0.4915  0.2456 -0.6696
 6860TIP3   OH242070   1.564   1.825  11.606  0.6098  0.2984  0.3452
 6860TIP3    H142071   1.504   1.804  11.677 -0.7896  0.6152 -0.6952
 6860TIP3    H242072   1.511   1.816  11.527  2.1430 -0.1319 -0.6747
 6861TIP3   OH242073   2.529   4.857   5.899 -0.1658  0.5614  0.2817
 6861TIP3    H142074   2.557   4.827   5.985 -1.2445  0.2906  0.5521
 6861TIP3    H242075   2.502   4.947   5.912  1.8305  1.2968 -0.2668
 6862TIP3   OH242076   2.046   6.577  11.976 -0.5985 -0.4457  0.3853
 6862TIP3    H142077   2.072   6.488  12.000  2.4999  0.6877  1.7570
 6862TIP3    H242078   2.082   6.590  11.889  1.5189  0.2868  1.2926
 6863TIP3   OH242079   1.936   1.780  15.656 -0.0638  0.6752 -0.6817
 6863TIP3    H142080   1.896   1.817  15.734  1.7920 -0.3792  0.8752
 6863TIP3    H242081   2.020   1.745  15.687  0.7011  0.1456 -3.1441
 6864TIP3   OH242082   3.862   2.562   4.014 -0.3656 -0.0000  0.2445
 6864TIP3    H142083   3.882   2.495   3.948  1.8218  1.1642 -0.3903
 6864TIP3    H242084   3.912   2.535   4.091  0.3520  0.7499  0.0556
 6865TIP3   OH242085   5.889   2.118  14.080  0.3733 -0.3038 -0.2088
 6865TIP3    H142086   5.979   2.130  14.049  0.2603  0.4043 -0.2778
 6865TIP3    H242087   5.852   2.053  14.020  0.3118  0.6887 -1.2828
 6866TIP3   OH242088   4.361   0.210   5.063  0.0778 -0.0187  0.2338
 6866TIP3    H142089   4.272   0.241   5.052 -0.3276 -1.1789  0.1113
 6866TIP3    H242090   4.380   0.221   5.156 -0.0686  0.5468  0.1951
 6867TIP3   OH242091   5.662   5.443  13.247 -0.6385 -0.2488  0.5366
 6867TIP3    H142092   5.609   5.376  13.205 -0.8742  0.0970  0.2818
 6867TIP3    H242093   5.685   5.503  13.176 -0.6655  0.0950  0.8193
 6868TIP3   OH242094   3.953   2.306  16.957  0.4635  0.8547  0.2904
 6868TIP3    H142095   3.925   2.395  16.940 -0.3528  0.6607  0.5724
 6868TIP3    H242096   4.042   2.301  16.921  0.5463  1.7928  0.3467
 6869TIP3   OH242097   5.346   5.225  11.910 -0.6300  0.0535  0.1776
 6869TIP3    H142098   5.414   5.231  11.977 -0.2885 -1.0616 -0.0472
 6869TIP3    H242099   5.269   5.263  11.950  0.4380  2.5960 -0.0173
 6870TIP3   OH242100   5.659   2.035  15.075 -0.6564 -0.0434  0.0103
 6870TIP3    H142101   5.635   1.953  15.118 -1.2204  0.6059  0.9727
 6870TIP3    H242102   5.575   2.079  15.060 -0.4436 -0.0855 -1.4412
 6871TIP3   OH242103   6.688   3.963   4.194 -0.5152  0.0473  0.2149
 6871TIP3    H142104   6.736   4.045   4.183 -0.6288  0.0233 -0.4744
 6871TIP3    H242105   6.650   3.969   4.282 -0.4142  0.6722  0.2175
 6872TIP3   OH242106   5.964   2.175   3.318 -0.0027 -0.0066  0.1129
 6872TIP3    H142107   6.005   2.124   3.389  0.9439  2.3210  1.3606
 6872TIP3    H242108   5.875   2.192   3.350  0.3286  0.7863  0.6683
 6873TIP3   OH242109   6.355   2.919  15.352  0.0942 -0.0336  0.1041
 6873TIP3    H142110   6.349   3.012  15.332  1.0941 -0.2090 -1.1351
 6873TIP3    H242111   6.449   2.901  15.356 -0.0092 -1.4341 -2.0607
 6874TIP3   OH242112   6.585   3.485   1.862 -0.2251  0.6982  0.0108
 6874TIP3    H142113   6.494   3.461   1.881  0.0520 -0.1000  0.3654
 6874TIP3    H242114   6.627   3.402   1.840  0.3638  1.1011 -0.4126
 6875TIP3   OH242115   3.959   2.830  16.905 -0.0890 -0.3410 -0.0509
 6875TIP3    H142116   4.022   2.897  16.880  0.0531 -0.6562 -0.5489
 6875TIP3    H242117   3.889   2.838  16.840 -1.0982  0.7266  1.1145
 6876TIP3   OH242118   1.387   1.053   0.461  0.1253  0.2030 -0.7964
 6876TIP3    H142119   1.347   1.111   0.526 -0.5266 -0.1519 -0.8805
 6876TIP3    H242120   1.336   0.972   0.466  0.7823 -0.2275 -0.9560
 6877TIP3   OH242121   0.507   2.555  16.101 -0.2430  0.7399  0.0196
 6877TIP3    H142122   0.437   2.509  16.054 -2.7388  2.1407  2.0400
 6877TIP3    H242123   0.525   2.499  16.177 -1.1325  1.6092  0.8962
 6878TIP3   OH242124   4.678   4.739  15.387 -0.0915  0.6643 -0.4415
 6878TIP3    H142125   4.672   4.698  15.300  0.8407  0.8469 -0.6115
 6878TIP3    H242126   4.601   4.708  15.434  0.2099 -0.7110 -0.8117
 6879TIP3   OH242127   4.302   3.071  14.908  0.2749 -0.4438 -0.1829
 6879TIP3    H142128   4.389   3.050  14.943 -0.0472  0.2799  1.0957
 6879TIP3    H242129   4.304   3.165  14.893 -1.0562  0.0433  2.2115
 6880TIP3   OH242130   0.132   3.373   0.161  0.3387 -0.3506  0.7075
 6880TIP3    H142131   0.177   3.366   0.077  0.2588 -0.4262  0.6704
 6880TIP3    H242132   0.200   3.400   0.223  0.1197  1.1705  0.3469
 6881TIP3   OH242133   2.347   5.671  12.903  0.3307 -0.3871  0.3471
 6881TIP3    H142134   2.429   5.645  12.860  0.6059 -0.8421  1.1319
 6881TIP3    H242135   2.368   5.754  12.946  0.1993 -0.1874  0.0268
 6882TIP3   OH242136   3.346   0.899   1.219 -0.7240 -0.0924 -0.2731
 6882TIP3    H142137   3.366   0.993   1.216  1.5068 -0.5235 -0.2032
 6882TIP3    H242138   3.428   0.858   1.243 -0.8033 -2.3330 -3.2568
 6883TIP3   OH242139   1.851   2.230   1.041 -0.1056  0.2371 -0.1192
 6883TIP3    H142140   1.860   2.141   1.006 -0.6429 -0.4903  1.4927
 6883TIP3    H242141   1.757   2.241   1.054  0.0838  0.4335  1.1603
 6884TIP3   OH242142   1.610   4.531   2.692  0.1714  0.3342  0.2221
 6884TIP3    H142143   1.648   4.472   2.627  0.7295  1.4058 -0.4439
 6884TIP3    H242144   1.580   4.606   2.642 -0.9221  0.4398  1.0098
 6885TIP3   OH242145   1.304   6.572   0.219 -0.3350 -0.1758 -0.0010
 6885TIP3    H142146   1.249   6.617   0.155  0.3658  1.9049  0.7761
 6885TIP3    H242147   1.295   6.479   0.197 -0.5711  0.4029 -2.7225
 6886TIP3   OH242148   0.955   4.499   3.729 -0.2877 -0.2119  0.3501
 6886TIP3    H142149   0.946   4.409   3.761  0.6286 -0.7231 -0.7870
 6886TIP3    H242150   1.035   4.531   3.771  1.2062 -1.0558 -1.7003
 6887TIP3   OH242151   2.683   0.351   4.424  0.2157  0.1931 -0.3192
 6887TIP3    H142152   2.629   0.370   4.501  0.5942 -0.9914  0.2579
 6887TIP3    H242153   2.747   0.422   4.421  0.4154  0.0657  0.6591
 6888TIP3   OH242154   4.266   4.152   5.375 -0.0073  0.2112 -0.4763
 6888TIP3    H142155   4.224   4.201   5.305 -0.7069 -0.1697 -0.3307
 6888TIP3    H242156   4.241   4.061   5.360  0.3436  0.0445 -0.0898
 6889TIP3   OH242157   1.066   2.258  12.584  0.0550  0.1177  0.1053
 6889TIP3    H142158   1.115   2.176  12.597  0.7194  0.1049 -2.0388
 6889TIP3    H242159   1.052   2.262  12.489 -2.3398  1.1703  0.4486
 6890TIP3   OH242160   6.761   3.651   4.570 -0.2552  0.4034 -0.1842
 6890TIP3    H142161   6.778   3.730   4.622  0.5853 -1.4511  2.5446
 6890TIP3    H242162   6.680   3.616   4.605  0.0468 -0.6185 -0.4783
 6891TIP3   OH242163   6.528   6.208  10.979  0.1315  0.0781  0.2970
 6891TIP3    H142164   6.620   6.182  10.977  0.1081  0.0065  0.1005
 6891TIP3    H242165   6.526   6.287  11.033  0.2548 -0.1253  0.5999
 6892TIP3   OH242166   4.990   0.516   4.772  0.0990 -0.3272 -0.3090
 6892TIP3    H142167   4.918   0.458   4.745  0.7413 -0.1716 -2.6304
 6892TIP3    H242168   5.050   0.515   4.697  1.9450  0.4828  1.0888
 6893TIP3   OH242169   2.717   5.183  14.022 -0.2897  0.4615 -0.0352
 6893TIP3    H142170   2.697   5.185  13.928  1.2577  1.9188 -0.3959
 6893TIP3    H242171   2.812   5.172  14.025  0.0625  3.0622  1.2347
 6894TIP3   OH242172   0.673   3.153   5.207  0.2046  0.3515 -0.2524
 6894TIP3    H142173   0.639   3.201   5.282 -0.1534  0.1176 -0.2600
 6894TIP3    H242174   0.765   3.138   5.227 -0.4900 -2.2916  1.5623
 6895TIP3   OH242175   6.155   2.441   2.394 -0.1566 -0.0158  0.1085
 6895TIP3    H142176   6.188   2.357   2.427  1.7400  0.0540 -1.3992
 6895TIP3    H242177   6.221   2.504   2.421 -0.7182  0.7168 -0.2049
 6896TIP3   OH242178   2.745   2.088   4.468  0.4398  0.4824 -0.9548
 6896TIP3    H142179   2.696   2.076   4.550  0.6137  0.3822 -0.8670
 6896TIP3    H242180   2.836   2.075   4.492  0.5775  1.3143 -0.9833
 6897TIP3   OH242181   0.474   4.285   6.203  0.4770 -0.1674 -0.1325
 6897TIP3    H142182   0.420   4.218   6.242 -0.3258 -0.5072 -1.7462
 6897TIP3    H242183   0.460   4.363   6.257 -1.5070 -0.2953 -0.3862
 6898TIP3   OH242184   0.807   4.119  15.489  0.6541 -0.3047  0.0758
 6898TIP3    H142185   0.771   4.120  15.578 -0.3369 -0.1638 -0.3116
 6898TIP3    H242186   0.789   4.031  15.457  0.4626 -0.1695 -0.1925
 6899TIP3   OH242187   6.639   0.714   2.669  0.0474  0.0920  0.3790
 6899TIP3    H142188   6.591   0.718   2.752  0.0131  1.3820  0.3240
 6899TIP3    H242189   6.603   0.787   2.617 -0.4214 -1.1179 -1.0515
 6900TIP3   OH242190   1.322   4.196   4.887  0.1707  0.4987  0.5075
 6900TIP3    H142191   1.248   4.225   4.833  0.4721  0.9962  0.3549
 6900TIP3    H242192   1.299   4.106   4.912 -0.3633  0.5555  0.2467
 6901TIP3   OH242193   1.157   0.587   1.088  0.2044 -0.1659 -0.2437
 6901TIP3    H142194   1.213   0.617   1.160 -0.1671 -1.3643  0.5737
 6901TIP3    H242195   1.110   0.665   1.060  0.8992  0.4680  0.3235
 6902TIP3   OH242196   1.570   5.092  12.525  0.0478  0.1969  0.0909
 6902TIP3    H142197   1.634   5.141  12.473 -0.0496 -0.5300 -0.7444
 6902TIP3    H242198   1.570   5.004  12.487 -0.1403 -0.3237  1.2471
 6903TIP3   OH242199   4.547   0.615  17.064 -0.5402 -0.5805  0.3606
 6903TIP3    H142200   4.627   0.667  17.073 -1.5772  0.9527  1.1460
 6903TIP3    H242201   4.506   0.617  17.150 -2.1884 -0.0142 -0.3818
 6904TIP3   OH242202   4.312   2.848  11.780 -0.3844 -0.5076 -0.0196
 6904TIP3    H142203   4.234   2.834  11.834  0.9083 -2.7583  1.4119
 6904TIP3    H242204   4.281   2.841  11.690 -1.9201 -0.8403  0.5128
 6905TIP3   OH242205   5.595   3.704   3.765  0.9711  0.2737  0.2783
 6905TIP3    H142206   5.525   3.680   3.825  0.9322  1.2792  0.6439
 6905TIP3    H242207   5.551   3.748   3.693  1.0406 -0.7468 -0.4114
 6906TIP3   OH242208   2.029   1.541   5.650  0.2763 -0.2363  0.0665
 6906TIP3    H142209   2.010   1.495   5.568 -0.5906  2.5378 -1.4390
 6906TIP3    H242210   1.945   1.547   5.695 -0.2922  2.2698 -1.1718
 6907TIP3   OH242211   2.131   4.576   0.167 -0.3811 -0.1079  0.0208
 6907TIP3    H142212   2.217   4.618   0.170  0.3254 -1.4224 -0.7232
 6907TIP3    H242213   2.094   4.590   0.254  1.1961 -0.7506  0.8228
 6908TIP3   OH242214   3.255   5.322   0.088 -0.1966 -0.0781 -0.9075
 6908TIP3    H142215   3.265   5.307   0.182 -0.7746  0.5296 -0.7338
 6908TIP3    H242216   3.161   5.311   0.073 -0.1630  0.2222 -1.3400
 6909TIP3   OH242217   5.304   3.006   0.917  0.3283 -0.5176 -0.0229
 6909TIP3    H142218   5.358   2.987   0.994  0.9502 -0.3117 -0.4025
 6909TIP3    H242219   5.327   3.096   0.893 -0.8928 -0.0815  0.3760
 6910TIP3   OH242220   3.963   0.006   5.787  0.1663  0.4460 -0.5977
 6910TIP3    H142221   4.046  -0.034   5.809 -0.0765 -0.7177 -1.6697
 6910TIP3    H242222   3.959   0.085   5.841 -0.1817 -1.8323  3.0366
 6911TIP3   OH242223   2.079   3.667  16.416  0.3605 -0.4111  0.0419
 6911TIP3    H142224   2.144   3.660  16.346  0.6152  0.3152  0.1977
 6911TIP3    H242225   2.015   3.730  16.383  0.1868 -0.4852  0.2368
 6912TIP3   OH242226   5.777   4.531   5.223 -0.1252 -0.7978  0.3318
 6912TIP3    H142227   5.760   4.452   5.172 -0.8617 -1.1075  1.0260
 6912TIP3    H242228   5.701   4.539   5.280 -0.7238  1.1706 -0.6564
 6913TIP3   OH242229   5.212   3.883   1.896 -0.1221  0.2487 -0.2452
 6913TIP3    H142230   5.172   3.879   1.810 -0.1450  2.1823 -0.3826
 6913TIP3    H242231   5.303   3.909   1.880  0.2088 -0.5670  0.2527
 6914TIP3   OH242232   0.737   3.635  11.066 -0.3753 -0.2679  0.3137
 6914TIP3    H142233   0.658   3.678  11.032 -1.3443 -2.2917 -0.1566
 6914TIP3    H242234   0.708   3.594  11.148  0.5860  0.1632  0.8852
 6915TIP3   OH242235   2.821   2.859  14.776  0.1009 -0.0697 -0.1233
 6915TIP3    H142236   2.791   2.770  14.760 -0.1078 -0.2100  0.9648
 6915TIP3    H242237   2.895   2.850  14.836 -0.3079  0.5119  0.4893
 6916TIP3   OH242238   1.939   5.318   4.512 -0.1386 -0.3338 -0.1150
 6916TIP3    H142239   2.024   5.322   4.468  1.1650 -2.5592  1.9922
 6916TIP3    H242240   1.948   5.247   4.576 -3.7249 -0.9373 -0.0759
 6917TIP3   OH242241   4.222   3.350  13.749 -0.4627  0.1884 -0.3049
 6917TIP3    H142242   4.176   3.319  13.671 -0.5386  1.0961 -0.6232
 6917TIP3    H242243   4.192   3.291  13.818 -0.7706 -0.3201 -0.8535
 6918TIP3   OH242244   1.653   2.811   0.317 -0.3097 -0.4902  0.1416
 6918TIP3    H142245   1.738   2.788   0.356 -0.7216 -2.9898 -0.2949
 6918TIP3    H242246   1.615   2.874   0.378  0.6632 -1.4929  1.8515
 6919TIP3   OH242247   4.357   1.111  10.486 -0.8448 -0.5116  0.0390
 6919TIP3    H142248   4.338   1.146  10.399 -3.5610 -1.8248  0.0010
 6919TIP3    H242249   4.294   1.039  10.498  0.5501 -1.4691  2.4367
 6920TIP3   OH242250   0.292   0.452   3.496  0.6576  0.3565 -0.3042
 6920TIP3    H142251   0.327   0.380   3.548  0.7305 -0.2155 -1.1368
 6920TIP3    H242252   0.264   0.517   3.561 -0.5740 -0.9355  0.5221
 6921TIP3   OH242253   3.687   2.205  14.381 -0.2626 -0.4492 -0.1600
 6921TIP3    H142254   3.630   2.148  14.330 -1.6404 -0.5225  1.4002
 6921TIP3    H242255   3.697   2.284  14.326  0.0187 -1.3352 -1.4329
 6922TIP3   OH242256   0.771   6.513  16.870 -0.6344  0.2894  0.6782
 6922TIP3    H142257   0.692   6.491  16.820 -0.3036  1.9414 -0.6604
 6922TIP3    H242258   0.840   6.462  16.828 -0.5746  0.7022  0.2746
 6923TIP3   OH242259   4.590   6.536  17.019  0.1785 -0.1677  0.3220
 6923TIP3    H142260   4.685   6.547  17.027  0.2249 -0.5178  0.2722
 6923TIP3    H242261   4.555   6.563  17.104  0.1430  1.8405 -0.2654
 6924TIP3   OH242262   3.773   4.683  10.323  0.4259 -0.1285  0.2134
 6924TIP3    H142263   3.744   4.645  10.406  0.2138 -1.2647 -0.3610
 6924TIP3    H242264   3.709   4.652  10.259 -0.4419  2.1946 -0.1098
 6925TIP3   OH242265   4.524   2.878  15.529 -0.0589 -0.6164  0.2049
 6925TIP3    H142266   4.600   2.866  15.472  0.0775 -1.0737  0.4783
 6925TIP3    H242267   4.524   2.801  15.585 -0.2310 -0.1999  0.7808
 6926TIP3   OH242268   6.630   3.456  14.380 -0.5845 -0.5371  0.4239
 6926TIP3    H142269   6.557   3.407  14.343 -1.6346  0.3721  1.2091
 6926TIP3    H242270   6.592   3.504  14.453  0.4096  1.2820 -0.1758
 6927TIP3   OH242271   0.187   2.352   3.153  0.1929  0.6821  0.1184
 6927TIP3    H142272   0.251   2.282   3.163  1.5917  1.6705 -1.4987
 6927TIP3    H242273   0.108   2.318   3.196  1.8880 -0.3625  2.6918
 6928TIP3   OH242274   0.542   3.417  17.116  0.5145 -0.0980 -0.1944
 6928TIP3    H142275   0.560   3.329  17.147 -0.7392 -0.8266 -1.4255
 6928TIP3    H242276   0.538   3.470  17.196  0.7669 -1.2372  0.5982
 6929TIP3   OH242277   3.165   4.551  14.373  0.0222 -0.2632  0.3458
 6929TIP3    H142278   3.112   4.539  14.294  1.0442 -0.0120 -0.4128
 6929TIP3    H242279   3.240   4.493  14.361  0.4766  0.1968  0.8658
 6930TIP3   OH242280   0.127   6.024  12.128  0.1781 -0.0051 -0.1812
 6930TIP3    H142281   0.119   6.076  12.048  1.6705  0.0903 -0.3007
 6930TIP3    H242282   0.207   5.973  12.116 -1.8083 -3.2857 -0.5676
 6931TIP3   OH242283   1.145   2.389  11.635 -0.2323  0.2596 -0.0348
 6931TIP3    H142284   1.093   2.376  11.714  0.1657 -1.6737 -0.0454
 6931TIP3    H242285   1.188   2.474  11.648 -2.6417  1.4831  0.3484
 6932TIP3   OH242286   2.204   0.243   3.857  0.2142 -0.3661  0.4191
 6932TIP3    H142287   2.284   0.217   3.812  0.6826  0.2681  0.8573
 6932TIP3    H242288   2.148   0.166   3.854  0.3499 -0.4315 -0.9656
 6933TIP3   OH242289   5.534   2.590  12.116  0.5173 -0.4971 -0.4219
 6933TIP3    H142290   5.575   2.527  12.056  3.1099  1.1042 -0.4963
 6933TIP3    H242291   5.583   2.581  12.197 -0.7241 -0.2714  0.3762
 6934TIP3   OH242292   0.480   0.396   3.752  0.8472  0.1410 -0.4727
 6934TIP3    H142293   0.436   0.314   3.772 -0.2991  0.3276 -1.9957
 6934TIP3    H242294   0.530   0.378   3.673  0.2024  0.9983 -1.1008
 6935TIP3   OH242295   4.618   0.239   4.596  0.4053  0.0474 -0.0105
 6935TIP3    H142296   4.566   0.246   4.677 -0.7875 -0.9886 -0.6439
 6935TIP3    H242297   4.580   0.164   4.550  3.2500 -1.5282  0.0200
 6936TIP3   OH242298   1.984   6.329  11.154 -0.3349 -0.3046 -0.3068
 6936TIP3    H142299   1.937   6.269  11.212  0.5171 -0.6744  0.0158
 6936TIP3    H242300   2.041   6.379  11.212 -0.1904  0.0094 -0.7128
 6937TIP3   OH242301   0.237   6.029   2.183  0.8152  0.2445 -0.2280
 6937TIP3    H142302   0.274   5.941   2.186 -1.4058 -0.7755 -0.4599
 6937TIP3    H242303   0.252   6.064   2.270 -1.8795 -2.0431  1.3160
 6938TIP3   OH242304   5.878   0.434  11.565 -0.2020 -0.2411 -0.1552
 6938TIP3    H142305   5.890   0.485  11.645  0.3203 -0.6234  0.0212
 6938TIP3    H242306   5.791   0.394  11.573 -1.1359  1.5409 -0.8377
 6939TIP3   OH242307   5.732   3.475  16.074  0.2082 -0.1042  0.3248
 6939TIP3    H142308   5.690   3.553  16.038  1.0782 -0.1738 -0.8993
 6939TIP3    H242309   5.680   3.402  16.041  0.7615 -0.1450 -0.4974
 6940TIP3   OH242310   6.160   1.075  16.214 -0.2223 -0.3577  0.1436
 6940TIP3    H142311   6.111   1.155  16.193 -2.4801 -1.2786  1.5173
 6940TIP3    H242312   6.124   1.047  16.298  1.0050 -2.4405  0.0263
 6941TIP3   OH242313   4.913   1.563   6.545 -0.1993  0.0527  0.1768
 6941TIP3    H142314   4.842   1.599   6.492  1.1639  0.7994 -1.2510
 6941TIP3    H242315   4.907   1.468   6.532 -0.3942  0.1707 -0.6825
 6942TIP3   OH242316   4.313   3.238   3.867  0.0468  0.2979  0.1056
 6942TIP3    H142317   4.228   3.281   3.882 -0.9174 -1.5085  0.0604
 6942TIP3    H242318   4.336   3.263   3.777 -0.8324  0.1601 -0.1666
 6943TIP3   OH242319   5.174   3.756  14.536 -0.6095 -0.2470 -0.0455
 6943TIP3    H142320   5.154   3.813  14.610 -0.0126  0.0842 -0.1354
 6943TIP3    H242321   5.224   3.684  14.574 -0.2767 -0.0613 -0.1276
 6944TIP3   OH242322   4.964   4.944   4.157  0.1342 -0.5497  0.2436
 6944TIP3    H142323   5.041   4.899   4.124 -0.0567  0.3236 -1.5041
 6944TIP3    H242324   4.890   4.897   4.118 -0.1707 -0.3807  0.6058
 6945TIP3   OH242325   3.565   0.304  12.912  0.4757 -0.0096 -0.3895
 6945TIP3    H142326   3.571   0.340  13.001 -3.2274 -0.9186  0.3734
 6945TIP3    H242327   3.655   0.307  12.880  1.6736  2.1348  2.6494
 6946TIP3   OH242328   2.184   5.457   0.845 -0.0866 -0.3966 -0.0299
 6946TIP3    H142329   2.241   5.517   0.797 -0.9711  1.5178  1.1649
 6946TIP3    H242330   2.243   5.408   0.902  0.8459 -1.9264 -2.1893
 6947TIP3   OH242331   0.517   4.586  11.737  0.2696 -0.2166 -0.1176
 6947TIP3    H142332   0.458   4.567  11.810  1.0143  0.3301  0.6498
 6947TIP3    H242333   0.471   4.653  11.686  0.2201  0.2250  0.4885
 6948TIP3   OH242334   5.230   1.600  16.560  0.1453 -0.0910 -0.4643
 6948TIP3    H142335   5.287   1.662  16.515 -0.3202  1.4359  0.9629
 6948TIP3    H242336   5.206   1.643  16.642 -0.7771 -1.8711  0.2763
 6949TIP3   OH242337   5.925   3.725   2.318  0.2280  0.2600 -0.7817
 6949TIP3    H142338   5.993   3.658   2.314  1.0155  0.9928 -0.1029
 6949TIP3    H242339   5.854   3.690   2.265  1.3150 -0.3321 -1.9130
 6950TIP3   OH242340   3.039   2.106   2.688  0.8513  0.0338 -0.2929
 6950TIP3    H142341   2.989   2.037   2.645 -0.9088  0.5770  0.7882
 6950TIP3    H242342   3.123   2.107   2.643  0.8324 -2.6278 -0.5005
 6951TIP3   OH242343   3.738   3.130  12.256 -0.7542  0.3488 -0.0385
 6951TIP3    H142344   3.712   3.181  12.333  2.2436 -1.4023  2.3764
 6951TIP3    H242345   3.717   3.039  12.279  1.7792 -0.4230 -0.4156
 6952TIP3   OH242346   1.572   3.632   5.229 -0.6832  0.3824  0.2662
 6952TIP3    H142347   1.492   3.606   5.275 -1.9705  0.6612 -1.6976
 6952TIP3    H242348   1.542   3.657   5.142  1.5967  0.3041 -0.5980
 6953TIP3   OH242349   0.826   2.843   5.379  0.3195  0.1729 -0.3307
 6953TIP3    H142350   0.805   2.830   5.471 -0.9698  1.0670 -0.4704
 6953TIP3    H242351   0.920   2.858   5.377  0.5416 -0.9809  0.7040
 6954TIP3   OH242352   0.643   3.903   1.501 -0.2353  0.3134 -0.2310
 6954TIP3    H142353   0.715   3.942   1.453 -0.7419  2.1363  0.3934
 6954TIP3    H242354   0.566   3.916   1.444 -0.6763  1.6586  0.6403
 6955TIP3   OH242355   3.559   1.895  17.003  0.1995 -0.4412 -0.5561
 6955TIP3    H142356   3.523   1.812  17.033 -0.7290 -0.1873 -0.9328
 6955TIP3    H242357   3.616   1.871  16.930  2.6092 -1.0820  1.3953
 6956TIP3   OH242358   5.558   1.665   3.826 -0.6702 -0.0482  0.4016
 6956TIP3    H142359   5.625   1.719   3.870 -0.0143  1.2595 -2.0385
 6956TIP3    H242360   5.594   1.576   3.829  0.5143  0.4045  0.3620
 6957TIP3   OH242361   3.393   0.434   4.866  0.1606 -0.0688  0.3116
 6957TIP3    H142362   3.432   0.351   4.892 -0.6608 -0.0180  1.8406
 6957TIP3    H242363   3.393   0.486   4.946 -0.7404  0.8355 -0.2522
 6958TIP3   OH242364   5.008   6.237   6.167  0.0296  0.1117  0.1749
 6958TIP3    H142365   5.061   6.187   6.230  1.5775 -1.9641 -2.5768
 6958TIP3    H242366   5.057   6.318   6.153  2.0435 -1.2678 -1.4372
 6959TIP3   OH242367   0.209   3.822   0.658 -0.6459 -0.6373 -0.0939
 6959TIP3    H142368   0.275   3.878   0.699 -1.6695 -0.0491  0.8129
 6959TIP3    H242369   0.258   3.767   0.598  0.4407  1.0746 -0.8536
 6960TIP3   OH242370   0.729   2.713  16.003 -0.3531 -0.3900  0.2019
 6960TIP3    H142371   0.654   2.662  15.974 -1.0965 -0.3369  1.9396
 6960TIP3    H242372   0.791   2.648  16.036  0.9866 -0.5547 -2.3713
 6961TIP3   OH242373   4.530   0.863   0.463 -0.4409 -0.1932 -0.1658
 6961TIP3    H142374   4.599   0.849   0.398  0.1171 -0.7224  0.5172
 6961TIP3    H242375   4.459   0.905   0.415  0.5066  0.7106 -0.8017
 6962TIP3   OH242376   3.490   6.224  15.997  0.4441  0.1924  0.3124
 6962TIP3    H142377   3.431   6.201  15.925 -0.4168  2.0975  0.3658
 6962TIP3    H242378   3.530   6.140  16.023 -1.5107 -1.0018 -0.3538
 6963TIP3   OH242379   4.995   1.177   3.315  0.2753  0.4811 -0.5696
 6963TIP3    H142380   4.967   1.142   3.230  0.1605  0.3346 -0.4707
 6963TIP3    H242381   4.963   1.267   3.316 -2.5107 -0.4343  0.6319
 6964TIP3   OH242382   1.639   0.957   4.054 -0.1942  0.3957  0.3346
 6964TIP3    H142383   1.721   0.993   4.089  0.5701 -2.7360  2.2474
 6964TIP3    H242384   1.667   0.876   4.011 -1.9715  0.9467 -2.0119
 6965TIP3   OH242385   1.227   1.242   0.652 -0.2022  0.2264 -0.0574
 6965TIP3    H142386   1.284   1.279   0.719  1.8231  2.8392 -2.9208
 6965TIP3    H242387   1.221   1.311   0.585 -4.1804 -1.1881 -1.4523
 6966TIP3   OH242388   0.787   0.946  15.598  0.0588 -0.0618  0.0630
 6966TIP3    H142389   0.840   0.888  15.652  0.3102 -0.8244 -0.9759
 6966TIP3    H242390   0.824   0.937  15.510 -1.4212 -0.1696 -0.5719
 6967TIP3   OH242391   3.803   0.424   1.612 -0.2510  0.0987  0.0047
 6967TIP3    H142392   3.891   0.432   1.650 -0.0574  1.0462 -0.6002
 6967TIP3    H242393   3.811   0.466   1.526 -1.4348  0.6784  0.1667
 6968TIP3   OH242394   4.394   6.163  13.133 -0.0602 -0.3065  0.6683
 6968TIP3    H142395   4.350   6.147  13.217 -1.3038  1.1599  0.3240
 6968TIP3    H242396   4.327   6.201  13.077  0.7378 -1.2906 -1.0449
 6969TIP3   OH242397   4.598   1.901   1.735  0.2756 -0.2409  0.2366
 6969TIP3    H142398   4.554   1.887   1.818  1.6177 -1.4639  0.7677
 6969TIP3    H242399   4.579   1.823   1.684  0.1640  0.1274 -0.2992
 6970TIP3   OH242400   6.669   0.516  15.381  0.7169  0.1345 -0.5422
 6970TIP3    H142401   6.622   0.599  15.381 -1.1789 -0.8908 -0.3098
 6970TIP3    H242402   6.641   0.472  15.301  0.4652 -0.9385  0.1165
 6971TIP3   OH242403   0.095   3.158  16.220 -0.1246  0.3464  0.2016
 6971TIP3    H142404   0.104   3.248  16.253 -0.3733  0.6574 -0.5576
 6971TIP3    H242405   0.159   3.152  16.149  0.3958 -0.3141  0.7121
 6972TIP3   OH242406   0.154   2.166  16.596  0.3958  0.5779 -0.3678
 6972TIP3    H142407   0.229   2.215  16.564  0.8893  1.9569  2.5618
 6972TIP3    H242408   0.140   2.098  16.531  2.8353  1.5781 -2.0725
 6973TIP3   OH242409   6.723   5.372  16.572 -0.1718 -0.0800  0.3412
 6973TIP3    H142410   6.805   5.338  16.536 -0.3578  1.0773 -1.2855
 6973TIP3    H242411   6.749   5.428  16.645  0.5837  0.9255 -0.6716
 6974TIP3   OH242412   0.132   3.446  13.235  0.4385 -0.4657 -0.4987
 6974TIP3    H142413   0.081   3.499  13.297 -0.5994 -2.5946  0.5948
 6974TIP3    H242414   0.223   3.458  13.262  0.0491 -0.8530  1.0921
 6975TIP3   OH242415   1.173   5.771  17.239  0.2019 -0.6576  0.1161
 6975TIP3    H142416   1.162   5.708  17.310  0.8816  1.6003  2.3910
 6975TIP3    H242417   1.096   5.828  17.246 -0.5758 -1.3502 -2.0990
 6976TIP3   OH242418   0.080   5.989   5.446 -0.4789 -0.2908 -0.1397
 6976TIP3    H142419  -0.009   5.964   5.472 -1.0256 -2.5009 -3.4556
 6976TIP3    H242420   0.067   6.052   5.374  0.6429 -0.4589 -0.5101
 6977TIP3   OH242421   1.246   0.646  15.874  0.3281 -0.3493 -0.0217
 6977TIP3    H142422   1.261   0.573  15.814 -1.3534  0.2415 -1.2663
 6977TIP3    H242423   1.150   0.652  15.881  0.3739  2.0566 -0.4243
 6978TIP3   OH242424   6.617   6.279   5.914 -0.2277 -0.8964  0.0092
 6978TIP3    H142425   6.587   6.365   5.884  2.9295  0.6775  0.9321
 6978TIP3    H242426   6.617   6.224   5.835 -0.5827  0.4791 -0.9794
 6979TIP3   OH242427   2.075   0.171  16.132  0.0766 -0.1675 -0.2557
 6979TIP3    H142428   2.028   0.088  16.124  2.2348 -1.5585  0.5504
 6979TIP3    H242429   2.158   0.157  16.087  0.8507  1.2504  0.6290
 6980TIP3   OH242430   6.265   1.631  15.025  0.3767 -0.2895  0.1461
 6980TIP3    H142431   6.212   1.647  14.946  0.5237  1.6322  0.3954
 6980TIP3    H242432   6.203   1.634  15.097  0.3569 -1.2785  0.1750
 6981TIP3   OH242433   4.863   6.280  13.663  0.8769  0.2723  0.1864
 6981TIP3    H142434   4.894   6.197  13.627  0.3130 -0.5502  1.5419
 6981TIP3    H242435   4.842   6.261  13.754 -2.8030  0.9548 -0.3682
 6982TIP3   OH242436   6.000   5.878   1.551  0.3426  0.6771  0.3415
 6982TIP3    H142437   6.020   5.874   1.644 -0.4762  0.0323  0.5069
 6982TIP3    H242438   6.024   5.967   1.524  2.9499  0.1190  0.5876
 6983TIP3   OH242439   3.605   2.015  14.158  0.5779 -0.4278 -0.2752
 6983TIP3    H142440   3.588   1.970  14.241  0.1395  0.9413  0.4037
 6983TIP3    H242441   3.693   1.987  14.133  0.8747 -0.5612  0.8588
 6984TIP3   OH242442   1.491   3.170  11.079 -0.1071  0.0588 -0.2308
 6984TIP3    H142443   1.480   3.264  11.064 -1.0087  0.0522  0.3440
 6984TIP3    H242444   1.545   3.140  11.005  1.0463  1.1960  0.1166
 6985TIP3   OH242445   1.739   4.908  10.658  0.1591 -0.0344  0.3103
 6985TIP3    H142446   1.786   4.967  10.600 -0.2323 -1.1836 -1.2318
 6985TIP3    H242447   1.801   4.838  10.677  0.2341  0.2555  1.1797
 6986TIP3   OH242448   6.184   6.527  12.970 -0.9355  0.1676 -0.4175
 6986TIP3    H142449   6.211   6.508  13.060 -1.3876 -0.0060 -0.3124
 6986TIP3    H242450   6.265   6.535  12.921 -0.6650  1.2228  0.1976
 6987TIP3   OH242451   4.626   1.487  10.572  0.3216  0.1596 -0.0365
 6987TIP3    H142452   4.549   1.431  10.583  0.9971 -1.1069 -1.3580
 6987TIP3    H242453   4.606   1.542  10.497  1.3278 -1.4512 -1.5883
 6988TIP3   OH242454   5.989   5.357   6.060 -0.4457 -0.4272  0.2178
 6988TIP3    H142455   6.082   5.345   6.083 -0.3036 -2.5342 -1.1796
 6988TIP3    H242456   5.942   5.305   6.125 -0.5155 -0.8359 -0.1583
 6989TIP3   OH242457   1.373   4.532  12.015 -0.4583  0.5088  0.4114
 6989TIP3    H142458   1.450   4.492  12.056 -1.0416 -0.0523  0.9746
 6989TIP3    H242459   1.386   4.518  11.922  0.0108  0.2177  0.5155
 6990TIP3   OH242460   4.013   0.653   4.961 -0.5020 -0.8838  0.4144
 6990TIP3    H142461   4.069   0.729   4.944 -0.3729 -1.4000 -1.7630
 6990TIP3    H242462   4.074   0.580   4.972 -0.6807 -0.9621  0.9355
 6991TIP3   OH242463   1.538   1.472  16.563 -0.0389  0.4692 -0.7705
 6991TIP3    H142464   1.629   1.451  16.584  0.2415  2.4723  0.3365
 6991TIP3    H242465   1.489   1.394  16.587  1.2691 -0.2282 -0.2787
 6992TIP3   OH242466   0.732   4.729   3.059  0.1592 -0.5491 -0.5826
 6992TIP3    H142467   0.781   4.652   3.089  0.2496 -0.2213  0.1553
 6992TIP3    H242468   0.643   4.714   3.091  0.0707 -0.5558 -0.8313
 6993TIP3   OH242469   6.010   6.748  14.893  0.2127 -0.3968 -0.0951
 6993TIP3    H142470   6.104   6.767  14.887  0.3133 -0.9584 -0.4019
 6993TIP3    H242471   5.971   6.829  14.924  0.8420 -0.2598  0.3617
 6994TIP3   OH242472   2.522   6.065  11.839 -0.0510 -0.5502  0.0055
 6994TIP3    H142473   2.509   5.973  11.863  1.0332 -1.2469 -1.8376
 6994TIP3    H242474   2.561   6.061  11.752  0.8370  1.6567  0.2490
 6995TIP3   OH242475   2.784   2.998  16.157 -0.4653 -1.0448 -0.4050
 6995TIP3    H142476   2.793   2.918  16.106 -1.0213 -0.7735 -0.9293
 6995TIP3    H242477   2.786   2.968  16.248 -0.4321 -1.6248 -0.5926
 6996TIP3   OH242478   5.465   1.141   5.813 -0.2271  0.4068  1.0113
 6996TIP3    H142479   5.505   1.137   5.899  1.6082  0.4793  0.2004
 6996TIP3    H242480   5.538   1.139   5.751 -1.4801  0.2784 -0.5613
 6997TIP3   OH242481   1.619   4.597  14.507  0.2846  0.0892  0.2527
 6997TIP3    H142482   1.524   4.610  14.501  0.2565  0.9295  1.9975
 6997TIP3    H242483   1.629   4.521  14.564  0.6633  0.3849  0.5851
 6998TIP3   OH242484   3.818   3.487   1.631 -0.5060  0.8844 -0.7422
 6998TIP3    H142485   3.736   3.468   1.585 -0.2937  0.3168 -0.8938
 6998TIP3    H242486   3.872   3.410   1.616 -0.4524  0.6477  0.5018
 6999TIP3   OH242487   6.338   5.764   4.399  0.7494  0.0959  0.1590
 6999TIP3    H142488   6.377   5.707   4.332 -0.1067  1.5189 -1.6590
 6999TIP3    H242489   6.366   5.852   4.374  0.2492  0.6848  1.5939
 7000TIP3   OH242490   5.376   2.306  16.878  0.1948  0.1972 -0.2552
 7000TIP3    H142491   5.329   2.331  16.958  0.7307  0.5713 -0.0480
 7000TIP3    H242492   5.321   2.239  16.838 -0.6136  0.7733 -0.1320
 7001TIP3   OH242493   4.059   2.397   0.287 -0.1971 -0.3026  0.1265
 7001TIP3    H142494   3.983   2.346   0.257 -0.7770  0.7744 -0.3075
 7001TIP3    H242495   4.098   2.343   0.356 -1.2439 -0.9731  0.2275
 7002TIP3   OH242496   3.203   6.740   3.813 -0.0549 -0.1825 -0.1070
 7002TIP3    H142497   3.257   6.661   3.811 -1.5442 -1.2451  0.5005
 7002TIP3    H242498   3.251   6.800   3.870  1.4863 -0.3020 -1.2055
 7003TIP3   OH242499   0.836   0.298   4.410  0.2139 -0.2990  0.4160
 7003TIP3    H142500   0.793   0.358   4.350 -0.5063 -0.5755  0.6446
 7003TIP3    H242501   0.929   0.317   4.401  0.0217  0.5529  0.1773
 7004TIP3   OH242502   0.502   4.082  16.760 -0.5857 -0.2233 -0.1122
 7004TIP3    H142503   0.558   4.007  16.780 -1.0604 -0.5971 -0.1431
 7004TIP3    H242504   0.481   4.070  16.667 -1.3194 -0.5072  0.0819
 7005TIP3   OH242505   6.753   3.753  14.359 -0.0303 -0.0794 -0.2675
 7005TIP3    H142506   6.675   3.697  14.355  0.0424 -0.4196  1.9092
 7005TIP3    H242507   6.826   3.692  14.371  0.1727  0.3915  1.0338
 7006TIP3   OH242508   2.801   0.589   1.749  0.1239  0.6420  0.0166
 7006TIP3    H142509   2.875   0.647   1.733 -0.0979  0.8904 -0.1207
 7006TIP3    H242510   2.763   0.574   1.663  0.0720  0.4383  0.0746
 7007TIP3   OH242511   4.239   3.686   0.976 -0.4185  0.1094  0.5035
 7007TIP3    H142512   4.198   3.630   1.041 -0.0773  0.6230  1.1708
 7007TIP3    H242513   4.174   3.752   0.956 -0.1865  0.4982  1.0216
 7008TIP3   OH242514   5.813   6.697   3.438 -0.1000  0.0669 -0.2652
 7008TIP3    H142515   5.877   6.715   3.507 -0.3317 -0.1641  0.0139
 7008TIP3    H242516   5.847   6.744   3.361  2.3769 -2.8899 -1.2002
 7009TIP3   OH242517   6.057   3.984  16.786 -0.6282  0.0698 -0.6095
 7009TIP3    H142518   5.983   3.928  16.809  0.1546 -1.1969 -1.1211
 7009TIP3    H242519   6.100   4.003  16.869 -1.3571  0.6126 -0.3410
 7010TIP3   OH242520   6.030   3.860  13.411  0.2748 -0.4804 -0.0465
 7010TIP3    H142521   6.121   3.888  13.421  1.0906  0.2513 -5.7710
 7010TIP3    H242522   5.978   3.939  13.431  1.4053  0.6947 -1.4841
 7011TIP3   OH242523   1.799   5.398   2.986 -0.0953 -0.2106 -0.4253
 7011TIP3    H142524   1.713   5.359   2.998 -1.1101  2.2470  1.0342
 7011TIP3    H242525   1.795   5.441   2.901 -0.4836  0.2859 -0.1578
 7012TIP3   OH242526   4.853   2.288  11.721  0.3829 -0.1421 -0.0471
 7012TIP3    H142527   4.922   2.263  11.660 -0.7621  0.0470 -1.4740
 7012TIP3    H242528   4.895   2.350  11.781  2.4845 -3.0032  1.6938
 7013TIP3   OH242529   1.718   3.141   4.013  0.6246 -0.1777  0.1976
 7013TIP3    H142530   1.769   3.221   4.029 -0.9446  1.1202 -0.9908
 7013TIP3    H242531   1.755   3.105   3.933  0.0419  0.4869 -0.3827
 7014TIP3   OH242532   6.794   4.115  11.999 -0.3354 -0.0767 -0.2424
 7014TIP3    H142533   6.730   4.094  11.931 -1.2647  0.3219  0.4846
 7014TIP3    H242534   6.837   4.195  11.967 -0.5153 -0.0904 -0.5221
 7015TIP3   OH242535   6.550   4.873   5.740 -0.2509  0.3582 -0.0526
 7015TIP3    H142536   6.619   4.808   5.722 -1.8591 -1.1594 -1.0294
 7015TIP3    H242537   6.557   4.889   5.834  0.0181 -1.4734  0.2888
 7016TIP3   OH242538   1.512   4.154   0.212  0.2063  0.0917  0.0657
 7016TIP3    H142539   1.498   4.104   0.132  0.1879  1.0795 -0.5589
 7016TIP3    H242540   1.588   4.112   0.253 -0.2882 -0.9278 -0.0472
 7017TIP3   OH242541   4.443   2.890   3.221  0.2959 -0.0793  0.3460
 7017TIP3    H142542   4.480   2.930   3.300 -0.4283  0.8148  0.2597
 7017TIP3    H242543   4.387   2.820   3.253  0.3610 -0.0178  0.5976
 7018TIP3   OH242544   3.953   4.536   5.256 -0.4066 -0.0906  0.0146
 7018TIP3    H142545   4.044   4.539   5.285  0.0074  1.2642 -1.3028
 7018TIP3    H242546   3.904   4.512   5.335  1.0290 -0.3668  0.8627
 7019TIP3   OH242547   5.744   4.668  13.130 -0.0330 -0.0767  0.2445
 7019TIP3    H142548   5.811   4.670  13.062  0.1651  1.4763  0.4475
 7019TIP3    H242549   5.742   4.577  13.158 -0.6628 -0.9460 -2.3372
 7020TIP3   OH242550   2.754   0.056  11.776 -0.3650  0.1244  0.2468
 7020TIP3    H142551   2.749  -0.030  11.733  1.2431  0.0525  0.1450
 7020TIP3    H242552   2.761   0.118  11.704  0.0004  0.1956  0.3389
 7021TIP3   OH242553   2.568   2.366  12.143  0.0694 -0.2889 -0.4063
 7021TIP3    H142554   2.518   2.447  12.152  1.6879  0.5677  1.7709
 7021TIP3    H242555   2.520   2.315  12.077 -1.7771  1.8178 -0.8090
 7022TIP3   OH242556   3.270   1.536   5.294  0.2253  0.4996  0.0811
 7022TIP3    H142557   3.288   1.459   5.348  0.9668  0.2640 -0.4949
 7022TIP3    H242558   3.353   1.555   5.251 -0.3582  0.6614 -1.0012
 7023TIP3   OH242559   1.658   5.664  15.896 -0.0544  0.0110  0.1067
 7023TIP3    H142560   1.730   5.721  15.869 -0.8889  0.3448 -1.6025
 7023TIP3    H242561   1.592   5.675  15.827 -0.3961 -2.7668 -0.1327
 7024TIP3   OH242562   4.667   0.322  11.914  0.2038  0.1471 -0.6538
 7024TIP3    H142563   4.621   0.256  11.863  1.1323 -0.9793 -0.0692
 7024TIP3    H242564   4.625   0.321  12.000  1.2148 -0.8263 -0.1434
 7025TIP3   OH242565   4.037   4.041  13.312  0.2079  0.2465  0.2098
 7025TIP3    H142566   4.067   4.131  13.300  0.1291  0.2790  0.2593
 7025TIP3    H242567   3.958   4.048  13.366  1.1214  0.0372  1.6244
 7026TIP3   OH242568   1.463   5.751   1.643  0.2297  0.9478 -0.0951
 7026TIP3    H142569   1.526   5.686   1.676 -1.3283 -0.2747  0.6229
 7026TIP3    H242570   1.483   5.830   1.693  2.1041  1.0598 -0.9154
 7027TIP3   OH242571   6.217   0.599   3.339 -0.2589  0.9277  0.7517
 7027TIP3    H142572   6.158   0.661   3.296  0.2969  0.5763 -0.5773
 7027TIP3    H242573   6.283   0.653   3.381  1.4256  1.3064 -2.1138
 7028TIP3   OH242574   2.623   2.718   0.447  0.2384  0.1097  0.0221
 7028TIP3    H142575   2.553   2.782   0.463  0.0081  0.0005 -0.5300
 7028TIP3    H242576   2.582   2.649   0.395  1.6638  2.0760 -4.2101
 7029TIP3   OH242577   6.630   2.930  10.991 -0.0970 -0.7676  0.4065
 7029TIP3    H142578   6.686   2.854  11.005  1.2022  0.2246  0.8687
 7029TIP3    H242579   6.608   2.928  10.898  1.6606 -0.5877 -0.0412
 7030TIP3   OH242580   2.766   5.931  14.927 -0.1688  0.3319 -0.1161
 7030TIP3    H142581   2.831   6.001  14.922 -0.0082  0.1428 -0.7792
 7030TIP3    H242582   2.682   5.977  14.930 -0.0273  0.5687  0.2623
 7031TIP3   OH242583   4.713   1.326   2.417 -0.3823 -0.4160 -0.1229
 7031TIP3    H142584   4.792   1.279   2.443  0.2436  0.5142 -0.3251
 7031TIP3    H242585   4.653   1.256   2.390  0.5367 -1.1173 -0.4335
 7032TIP3   OH242586   1.474   3.588   4.501  0.2399 -0.1281 -0.3110
 7032TIP3    H142587   1.462   3.542   4.585  1.6405  0.1528  0.0623
 7032TIP3    H242588   1.414   3.662   4.506 -0.5777 -0.7769 -0.0809
 7033TIP3   OH242589   3.805   4.254  15.938  0.1996  0.1390 -0.2602
 7033TIP3    H142590   3.724   4.255  15.886 -0.3719 -1.5999  0.5407
 7033TIP3    H242591   3.865   4.199  15.887  0.4720  0.4297 -0.2554
 7034TIP3   OH242592   5.497   4.972  12.419  0.0256  0.2358 -0.4971
 7034TIP3    H142593   5.440   5.044  12.446  0.7719 -0.1950  2.6273
 7034TIP3    H242594   5.439   4.896  12.416  0.0413  0.1442  0.8409
 7035TIP3   OH242595   0.819   6.585   1.545  0.0722 -0.0148  0.2353
 7035TIP3    H142596   0.795   6.519   1.610  3.3009 -0.4139  1.2016
 7035TIP3    H242597   0.782   6.666   1.579 -1.0536 -0.7392  0.8198
 7036TIP3   OH242598   0.838   1.328   0.683  0.0393 -0.8502 -0.0023
 7036TIP3    H142599   0.891   1.396   0.643 -2.1078  1.1786  0.3705
 7036TIP3    H242600   0.899   1.257   0.700  1.8609 -0.1482 -2.9128
 7037TIP3   OH242601   3.663   4.927  14.517  0.6273  0.2045 -0.3005
 7037TIP3    H142602   3.700   4.868  14.452  0.9688  0.6454 -0.5144
 7037TIP3    H242603   3.693   5.014  14.490 -0.5456  0.5721 -0.4672
 7038TIP3   OH242604   1.584   5.248   1.889 -0.5734 -0.5098 -0.7381
 7038TIP3    H142605   1.554   5.178   1.831  1.3967 -1.1454 -1.0979
 7038TIP3    H242606   1.631   5.202   1.959  1.0811  0.4130 -1.1792
 7039TIP3   OH242607   0.673   3.323   1.127 -0.1104  0.0740 -0.5373
 7039TIP3    H142608   0.722   3.381   1.069  1.2243  0.2053  0.6757
 7039TIP3    H242609   0.610   3.380   1.171 -0.4197  0.1608 -1.0885
 7040TIP3   OH242610   0.663   1.539   2.475  0.2391 -0.6751 -0.1124
 7040TIP3    H142611   0.712   1.471   2.428  0.9626 -0.5407  0.4236
 7040TIP3    H242612   0.614   1.492   2.542 -0.9880 -0.8967 -1.1178
 7041TIP3   OH242613   3.675   0.635   0.677  0.4360  0.4814 -0.0230
 7041TIP3    H142614   3.666   0.570   0.608  0.7985  0.2049  0.1874
 7041TIP3    H242615   3.764   0.624   0.709  0.0175  0.0262  1.0596
 7042TIP3   OH242616   0.813   6.231  14.636  0.1018 -0.0265  0.2833
 7042TIP3    H142617   0.905   6.247  14.614  0.2784 -0.4938  0.6774
 7042TIP3    H242618   0.765   6.297  14.585  0.7188  0.8184  0.7655
 7043TIP3   OH242619   4.728   6.174   6.225 -0.2849 -0.0176 -0.2538
 7043TIP3    H142620   4.719   6.234   6.299  0.6777  0.5570 -0.5913
 7043TIP3    H242621   4.820   6.179   6.200 -0.0530 -2.0477  0.0327
 7044TIP3   OH242622   2.532   0.544  15.732  0.0135  0.3847  0.4230
 7044TIP3    H142623   2.474   0.518  15.661  1.2976 -0.2577 -0.4244
 7044TIP3    H242624   2.601   0.595  15.689  0.5622  0.3759  1.2754
 7045TIP3   OH242625   5.477   5.881  12.365 -0.1853 -0.1234  0.4159
 7045TIP3    H142626   5.513   5.960  12.323  0.6028  0.0350  1.3508
 7045TIP3    H242627   5.443   5.912  12.449  0.1854 -0.7841  0.8176
 7046TIP3   OH242628   1.305   1.813   3.229 -0.4452  0.5200 -0.2153
 7046TIP3    H142629   1.325   1.729   3.186  0.2844 -0.3879  1.7625
 7046TIP3    H242630   1.219   1.799   3.269  0.8218 -0.3382  2.4102
 7047TIP3   OH242631   2.202   3.244  14.403 -0.3217  0.1309  0.0617
 7047TIP3    H142632   2.204   3.163  14.353  0.0893  0.2193 -0.0697
 7047TIP3    H242633   2.294   3.266  14.418 -0.3613  1.5397 -1.4810
 7048TIP3   OH242634   4.866   5.153   5.490  0.4002 -0.1450  0.3454
 7048TIP3    H142635   4.909   5.079   5.447 -1.4348 -1.8304  1.2328
 7048TIP3    H242636   4.933   5.190   5.548  1.8559  0.0076 -1.3561
 7049TIP3   OH242637   6.623   3.880  15.096 -0.5237 -0.4994 -0.5466
 7049TIP3    H142638   6.659   3.832  15.170 -0.5061 -1.2883 -1.0576
 7049TIP3    H242639   6.545   3.830  15.071 -0.5164 -0.2532 -1.0713
 7050TIP3   OH242640   5.275   1.845  10.590 -0.3538  0.4172 -0.5385
 7050TIP3    H142641   5.214   1.858  10.518 -0.0136 -0.3693 -0.9791
 7050TIP3    H242642   5.295   1.751  10.588  1.2868  0.7377 -0.7614
 7051TIP3   OH242643   0.180   4.411   3.111 -0.0355  0.3899  0.9074
 7051TIP3    H142644   0.206   4.466   3.037 -1.1644 -0.3211 -0.0501
 7051TIP3    H242645   0.191   4.321   3.078 -2.8837  0.0435  0.7012
 7052TIP3   OH242646   0.391   3.376  11.914  0.0202  0.4090  0.6160
 7052TIP3    H142647   0.362   3.371  12.005  2.4217  2.3884  1.6127
 7052TIP3    H242648   0.439   3.294  11.900 -1.1739 -0.3379  0.7719
 7053TIP3   OH242649   3.759   6.682  15.731  0.6477  0.0303 -0.6579
 7053TIP3    H142650   3.851   6.678  15.756  0.3893  0.6923  0.4928
 7053TIP3    H242651   3.729   6.768  15.762 -1.1257 -1.3740  1.9383
 7054TIP3   OH242652   5.578   0.766   1.607  0.2694 -0.2231 -0.6008
 7054TIP3    H142653   5.548   0.847   1.649 -3.9582 -1.9796  0.2769
 7054TIP3    H242654   5.656   0.742   1.656 -0.5681  1.3677  1.7271
 7055TIP3   OH242655   6.084   5.298  11.023  0.0027 -0.1181 -0.4915
 7055TIP3    H142656   6.140   5.340  10.958 -1.1071  1.3473 -0.5748
 7055TIP3    H242657   6.001   5.345  11.016 -0.0451  0.3865  2.2500
 7056TIP3   OH242658   6.671   6.801   4.392  0.2065  0.2700 -0.1171
 7056TIP3    H142659   6.711   6.889   4.391  1.4577 -0.2774 -0.4953
 7056TIP3    H242660   6.726   6.749   4.333 -0.1084 -0.9438  0.6292
 7057TIP3   OH242661   2.919   3.198   4.296 -0.3049  0.3890  0.0029
 7057TIP3    H142662   2.877   3.230   4.375  0.6152 -1.3819  1.2873
 7057TIP3    H242663   2.913   3.103   4.302  1.6905  0.1370 -0.9575
 7058TIP3   OH242664   4.224   4.350  14.182  0.1235  0.4284  0.1809
 7058TIP3    H142665   4.275   4.318  14.107  0.5569  0.2326  0.5552
 7058TIP3    H242666   4.289   4.390  14.240 -0.4310  2.3886 -0.4482
 7059TIP3   OH242667   4.889   5.749  13.884 -0.0293 -0.4081  0.1491
 7059TIP3    H142668   4.820   5.787  13.829 -0.1821 -1.3803 -0.3416
 7059TIP3    H242669   4.943   5.698  13.825 -0.1287 -1.3816  0.8665
 7060TIP3   OH242670   4.890   1.458  16.765 -0.6536  0.5932  0.0183
 7060TIP3    H142671   4.875   1.430  16.855  2.8142  1.1346  0.9250
 7060TIP3    H242672   4.907   1.552  16.771  0.2829  0.5249 -1.0665
 7061TIP3   OH242673   3.367   3.400   4.829  0.3202 -0.3182 -0.5246
 7061TIP3    H142674   3.342   3.468   4.766  0.0375 -1.0215 -1.1762
 7061TIP3    H242675   3.457   3.422   4.853  0.3826  0.0360 -1.0613
 7062TIP3   OH242676   0.314   1.406  15.331 -0.0710 -0.3978  0.0344
 7062TIP3    H142677   0.291   1.347  15.402 -0.6062 -0.3928 -0.1329
 7062TIP3    H242678   0.400   1.376  15.302  1.4560  1.2613  2.4491
 7063TIP3   OH242679   6.429   5.545   4.257 -0.0737  0.6274 -0.3421
 7063TIP3    H142680   6.342   5.505   4.254  0.2764 -0.1788 -0.0108
 7063TIP3    H242681   6.482   5.492   4.198 -0.2294  2.2436 -2.0453
 7064TIP3   OH242682   5.987   5.415  11.578  0.1835  0.2555  0.3010
 7064TIP3    H142683   6.065   5.360  11.589 -0.5573 -0.7153  0.8951
 7064TIP3    H242684   5.918   5.368  11.625 -0.9197  0.7566 -0.7591
 7065TIP3   OH242685   5.744   6.155   2.475 -0.3079  0.5047  0.3034
 7065TIP3    H142686   5.803   6.086   2.504 -0.3281  0.5925  0.5580
 7065TIP3    H242687   5.659   6.131   2.511 -0.7865 -0.4563 -1.3683
 7066TIP3   OH242688   2.851   0.556   4.925 -0.2784 -0.8405  0.7147
 7066TIP3    H142689   2.945   0.554   4.944 -0.3886 -0.4060  1.3502
 7066TIP3    H242690   2.836   0.479   4.870  0.3108 -1.3883  1.2936
 7067TIP3   OH242691   1.251   5.258  12.356 -0.5241 -0.1193 -0.2412
 7067TIP3    H142692   1.230   5.300  12.273  0.0168  0.3662 -0.1351
 7067TIP3    H242693   1.285   5.172  12.331  2.0943  0.9437 -0.7156
 7068TIP3   OH242694   5.183   1.127  15.908 -0.5184 -0.1319  0.7705
 7068TIP3    H142695   5.115   1.187  15.878 -1.7113 -1.0344  1.5838
 7068TIP3    H242696   5.205   1.075  15.831  0.3335  1.1237  0.1271
 7069TIP3   OH242697   1.926   3.322  16.273 -0.1011 -0.1864 -0.2229
 7069TIP3    H142698   1.939   3.415  16.254 -0.9297  0.0387  0.2750
 7069TIP3    H242699   1.913   3.282  16.187 -2.4875  0.6066 -0.3166
 7070TIP3   OH242700   6.116   4.020  13.922 -0.4165  0.4615  0.6394
 7070TIP3    H142701   6.191   3.974  13.959 -1.1324 -1.5959 -0.3067
 7070TIP3    H242702   6.154   4.085  13.864  0.6385  1.2376  2.1416
 7071TIP3   OH242703   5.741   2.231   0.658 -0.0541 -0.0229 -0.6026
 7071TIP3    H142704   5.766   2.232   0.566  2.1511 -0.3578 -0.0592
 7071TIP3    H242705   5.699   2.146   0.670 -1.8886  0.6677 -1.6021
 7072TIP3   OH242706   2.259   3.130  16.412 -0.0290 -0.3874 -0.0936
 7072TIP3    H142707   2.283   3.217  16.444 -0.8435 -0.0146 -0.4818
 7072TIP3    H242708   2.235   3.082  16.490  1.7152 -0.7044  0.2894
 7073TIP3   OH242709   0.479   6.098  13.920 -0.1530  0.6294  0.0011
 7073TIP3    H142710   0.443   6.049  13.994  1.0088 -1.8402 -0.9451
 7073TIP3    H242711   0.460   6.189  13.940 -0.3094  0.0284  3.0808
 7074TIP3   OH242712   2.311   5.656  17.031 -0.0989  0.5556 -0.6579
 7074TIP3    H142713   2.314   5.650  16.935 -1.7532  0.0770 -0.7179
 7074TIP3    H242714   2.258   5.734  17.048 -0.2730  0.3250 -0.1355
 7075TIP3   OH242715   6.057   1.231   2.128  0.4627 -0.0984  0.0931
 7075TIP3    H142716   6.070   1.296   2.197  1.2862  0.5505 -0.6563
 7075TIP3    H242717   6.140   1.183   2.124  0.4272 -0.1202 -0.4603
 7076TIP3   OH242718   0.736   4.853  12.693  0.3786  0.6755 -0.3556
 7076TIP3    H142719   0.659   4.909  12.701 -0.6961 -0.5229 -1.6585
 7076TIP3    H242720   0.721   4.784  12.758 -0.0951 -0.0100 -1.1698
 7077TIP3   OH242721   4.480   2.322  11.978  0.0312  0.1254  0.2320
 7077TIP3    H142722   4.517   2.313  11.890 -0.3455  1.3495 -0.0745
 7077TIP3    H242723   4.496   2.413  12.001 -1.7753  0.3943  0.5543
 7078TIP3   OH242724   4.531   3.442   4.161  0.9891 -0.0639 -0.1269
 7078TIP3    H142725   4.520   3.351   4.190  0.1448 -0.1844 -0.7818
 7078TIP3    H242726   4.569   3.487   4.236 -0.5051 -0.4969  0.9333
 7079TIP3   OH242727   6.018   6.770   6.444 -0.1471  0.0868 -0.3576
 7079TIP3    H142728   6.055   6.682   6.442  0.5987  0.4026 -1.1898
 7079TIP3    H242729   5.959   6.769   6.519  2.2742 -0.1646  1.6852
 7080TIP3   OH242730   3.476   4.657  17.013  0.0802 -0.4565 -0.3643
 7080TIP3    H142731   3.541   4.600  16.971 -1.0284 -0.9963 -1.3906
 7080TIP3    H242732   3.402   4.658  16.953 -0.8639  0.1774  0.7631
 7081TIP3   OH242733   1.171   4.790  11.151 -0.0115 -0.2375 -0.0575
 7081TIP3    H142734   1.111   4.724  11.184 -1.0020  0.8171  0.3490
 7081TIP3    H242735   1.114   4.856  11.112  1.0250 -0.3439 -1.8353
 7082TIP3   OH242736   5.692   0.087  11.665 -0.4672  0.7457  0.0338
 7082TIP3    H142737   5.746   0.051  11.595 -1.6328  0.9376 -0.9866
 7082TIP3    H242738   5.660   0.170  11.631 -1.3466  0.6717  0.6360
 7083TIP3   OH242739   3.608   3.701   2.512  0.4388 -0.0386 -0.6128
 7083TIP3    H142740   3.658   3.711   2.431 -0.4457 -0.1594 -1.1810
 7083TIP3    H242741   3.663   3.742   2.579  1.1288  0.1607 -1.2917
 7084TIP3   OH242742   2.609   4.692  10.431  0.1494 -0.2341 -0.1551
 7084TIP3    H142743   2.676   4.688  10.500  0.4996  0.0055 -0.4753
 7084TIP3    H242744   2.611   4.605  10.391 -1.7103 -1.1936  1.6488
 7085TIP3   OH242745   5.377   3.458  16.110  1.0482 -0.1137  0.2593
 7085TIP3    H142746   5.410   3.459  16.199  0.8034  0.3016  0.3490
 7085TIP3    H242747   5.297   3.510  16.113  0.9052 -0.2986 -0.1524
 7086TIP3   OH242748   1.907   5.916  15.564  0.0470 -0.0905  0.0697
 7086TIP3    H142749   1.941   5.904  15.476  1.2028  0.1826  0.4559
 7086TIP3    H242750   1.824   5.961  15.552 -0.2669 -0.9208 -0.9212
 7087TIP3   OH242751   0.617   5.364   1.377  0.0756 -0.1690 -0.1886
 7087TIP3    H142752   0.584   5.275   1.380  1.9217 -0.8554  1.6200
 7087TIP3    H242753   0.693   5.360   1.319 -0.1967  0.3829 -0.5995
 7088TIP3   OH242754   4.046   5.076  12.199 -0.1037 -0.0339 -0.1110
 7088TIP3    H142755   4.041   5.096  12.106 -0.0434 -2.1643 -0.6245
 7088TIP3    H242756   4.139   5.066  12.217 -0.0726  0.9086  0.3369
 7089TIP3   OH242757   0.156   5.141  15.843 -0.8871  0.1611 -0.6005
 7089TIP3    H142758   0.085   5.165  15.903 -0.6694  0.1923 -0.3585
 7089TIP3    H242759   0.194   5.225  15.816  1.1354  0.0826  1.7354
 7090TIP3   OH242760   4.976   5.229  13.902  0.1855  0.0017  0.8300
 7090TIP3    H142761   4.887   5.196  13.906 -0.0586  0.4158 -0.6637
 7090TIP3    H242762   5.028   5.156  13.868  0.6589 -0.6071  2.7032
 7091TIP3   OH242763   3.486   4.100   2.297 -0.4109 -0.2934 -0.1700
 7091TIP3    H142764   3.410   4.044   2.283  0.9085 -1.8256 -1.8098
 7091TIP3    H242765   3.536   4.092   2.215  0.2674  2.6927 -0.1734
 7092TIP3   OH242766   2.954   4.993  13.725 -0.2150 -0.4692  0.7787
 7092TIP3    H142767   2.920   5.074  13.686  1.5597  1.2498  2.5339
 7092TIP3    H242768   2.886   4.928  13.708 -0.9134  0.8541 -2.3696
 7093TIP3   OH242769   6.208   4.736  16.759 -0.6238 -0.5775 -0.3319
 7093TIP3    H142770   6.206   4.770  16.670 -2.5959  0.4556  0.0346
 7093TIP3    H242771   6.299   4.742  16.786 -0.5193  2.5020 -1.0555
 7094TIP3   OH242772   0.139   1.540   4.085 -0.1838  0.4158 -0.7701
 7094TIP3    H142773   0.051   1.578   4.089 -0.7755 -0.9349 -0.6082
 7094TIP3    H242774   0.181   1.586   4.013 -1.1330  0.8389 -1.0733
 7095TIP3   OH242775   4.631   3.433   6.767  0.2695 -0.0959 -0.6580
 7095TIP3    H142776   4.681   3.367   6.718 -1.8316 -1.9230 -0.4636
 7095TIP3    H242777   4.603   3.496   6.700 -0.6360 -1.3326 -1.4884
 7096TIP3   OH242778   5.648   3.356   1.512  0.1756  0.5779 -0.1642
 7096TIP3    H142779   5.701   3.292   1.465  1.8225  0.5449  1.6491
 7096TIP3    H242780   5.562   3.352   1.469  0.2837 -2.6252 -0.3190
 7097TIP3   OH242781   1.869   5.837  15.824 -0.2750 -0.0197  0.4031
 7097TIP3    H142782   1.911   5.861  15.742 -0.2808 -0.2686  0.3273
 7097TIP3    H242783   1.914   5.889  15.891 -1.4021  1.5059  0.0478
 7098TIP3   OH242784   0.660   0.531   0.706 -0.1098 -0.3755 -0.2244
 7098TIP3    H142785   0.697   0.601   0.652  0.6491 -0.6603 -0.0857
 7098TIP3    H242786   0.678   0.558   0.796  1.2338 -1.2876 -0.1923
 7099TIP3   OH242787   6.089   4.693  15.921 -0.2408  0.0827  0.1128
 7099TIP3    H142788   6.137   4.614  15.896  0.1404 -0.0818  1.3080
 7099TIP3    H242789   6.123   4.761  15.862  0.0664 -0.4489 -0.3349
 7100TIP3   OH242790   0.283   5.322  15.663 -0.5061  0.0175  0.0004
 7100TIP3    H142791   0.289   5.408  15.706 -0.4192  0.2964 -0.5610
 7100TIP3    H242792   0.308   5.339  15.573 -0.7310 -0.5592 -0.1717
 7101TIP3   OH242793   6.101   2.422   1.846  0.1432  0.4863 -0.2043
 7101TIP3    H142794   6.056   2.471   1.914 -0.4873  0.3117 -0.4913
 7101TIP3    H242795   6.046   2.431   1.769 -0.5907 -1.6058  0.0255
 7102TIP3   OH242796   6.741   0.038   3.528 -0.1053  0.1922  0.1710
 7102TIP3    H142797   6.788   0.107   3.575 -0.5275  1.7865 -1.6314
 7102TIP3    H242798   6.731  -0.032   3.593  3.5513  0.2598  1.0540
 7103TIP3   OH242799   1.612   2.448  11.633  1.0606  0.1499  0.3982
 7103TIP3    H142800   1.639   2.456  11.542  1.2845 -0.4670  0.4026
 7103TIP3    H242801   1.655   2.368  11.664 -0.8815 -0.9998  0.3575
 7104TIP3   OH242802   4.033   3.895   4.143 -0.4626 -0.0130 -0.0596
 7104TIP3    H142803   3.964   3.846   4.097 -0.6655  1.0358 -0.9099
 7104TIP3    H242804   4.110   3.839   4.136 -1.3062 -1.4667  1.3747
 7105TIP3   OH242805   0.444   4.842  14.448 -0.3416 -0.5432 -0.5780
 7105TIP3    H142806   0.491   4.886  14.519 -0.9189  0.2279 -0.6643
 7105TIP3    H242807   0.352   4.868  14.459 -0.5680 -1.0782 -1.1137
 7106TIP3   OH242808   1.784   6.613  12.906 -0.0821  0.3723  0.0177
 7106TIP3    H142809   1.700   6.658  12.897  0.4374  1.2731 -0.3505
 7106TIP3    H242810   1.770   6.530  12.860 -0.8447  0.4043  0.1659
 7107TIP3   OH242811   2.073   4.476   4.405  0.2968 -0.1135 -0.6393
 7107TIP3    H142812   2.071   4.381   4.394 -1.0587 -0.0526 -1.0850
 7107TIP3    H242813   2.142   4.505   4.345  1.6975 -0.9097  0.5256
 7108TIP3   OH242814   2.389   4.738   5.250  0.5771  0.3650 -1.4537
 7108TIP3    H142815   2.346   4.823   5.262 -2.1882 -1.1299  0.4647
 7108TIP3    H242816   2.386   4.722   5.156 -0.7358  1.5389 -1.6479
 7109TIP3   OH242817   0.943   4.487   0.459 -0.0681 -0.3047 -0.6192
 7109TIP3    H142818   0.998   4.447   0.393 -0.7830  0.6410 -1.8539
 7109TIP3    H242819   0.961   4.581   0.451  0.0343 -0.1948  0.7336
 7110TIP3   OH242820   3.639   4.932   2.535  0.0157  0.1374  0.4236
 7110TIP3    H142821   3.720   4.925   2.586  0.8063 -1.6208 -0.9816
 7110TIP3    H242822   3.588   4.855   2.561 -0.0261 -0.2073 -0.6278
 7111TIP3   OH242823   6.262   3.478  15.583 -0.3395 -0.5116  0.2278
 7111TIP3    H142824   6.300   3.391  15.569  1.1512 -0.0868  1.3176
 7111TIP3    H242825   6.209   3.468  15.663 -1.2676 -0.7145 -0.3941
 7112TIP3   OH242826   3.843   3.953  13.138  0.2686  0.1776 -0.4233
 7112TIP3    H142827   3.930   3.980  13.168  0.4172  0.8472 -1.4134
 7112TIP3    H242828   3.860   3.906  13.056 -0.3497  0.9988 -1.0370
 7113TIP3   OH242829   2.433   2.420   2.927 -0.7231  0.0494 -0.0447
 7113TIP3    H142830   2.431   2.468   3.010  1.0700  0.4832 -0.2141
 7113TIP3    H242831   2.445   2.488   2.861  0.0791 -0.4806 -0.4508
 7114TIP3   OH242832   1.510   1.134  13.706 -0.2267 -0.4967  0.0481
 7114TIP3    H142833   1.433   1.086  13.737  1.8121 -3.5859  0.8123
 7114TIP3    H242834   1.566   1.067  13.666  2.6205  1.3257  0.6317
 7115TIP3   OH242835   0.978   2.316  11.866 -0.0793  0.0899 -0.1141
 7115TIP3    H142836   0.901   2.316  11.809 -0.8132 -1.9938  0.7680
 7115TIP3    H242837   0.996   2.223  11.881  1.2422  0.5687  1.5168
 7116TIP3   OH242838   5.818   5.434   3.552  0.5498  0.0066  0.7409
 7116TIP3    H142839   5.805   5.473   3.466  1.9048  1.1601  1.0139
 7116TIP3    H242840   5.751   5.366   3.559  0.5168 -0.2014 -1.2698
 7117TIP3   OH242841   5.155   3.878  11.784  0.2582  0.4627  0.6855
 7117TIP3    H142842   5.063   3.873  11.812 -0.5127 -2.3691 -1.8243
 7117TIP3    H242843   5.161   3.962  11.739 -0.5379  1.5635  2.5369
 7118TIP3   OH242844   3.478   0.597   4.319 -0.1265 -0.9739  0.7580
 7118TIP3    H142845   3.419   0.540   4.368 -0.0308 -1.4905  0.2821
 7118TIP3    H242846   3.476   0.562   4.230 -0.9259  0.4349  0.1925
 7119TIP3   OH242847   5.144   0.762  12.444  0.0614  0.0321 -0.2852
 7119TIP3    H142848   5.089   0.694  12.482 -1.0838  1.8267  1.4327
 7119TIP3    H242849   5.088   0.805  12.380 -0.2335  1.2332  0.7600
 7120TIP3   OH242850   1.356   0.798  11.856 -0.3832 -0.3181 -0.2352
 7120TIP3    H142851   1.424   0.731  11.858  1.9346  1.9183  0.5902
 7120TIP3    H242852   1.403   0.881  11.865 -3.0690  1.5091 -1.6848
 7121TIP3   OH242853   3.857   4.587   6.050 -0.0408 -0.0183  0.2253
 7121TIP3    H142854   3.781   4.634   6.084 -1.1576  0.3246 -2.4890
 7121TIP3    H242855   3.837   4.495   6.064 -0.3002  0.1277  0.8122
 7122TIP3   OH242856   3.385   4.022   3.939 -0.4562 -0.5185 -0.1467
 7122TIP3    H142857   3.299   4.024   3.980 -0.5453  1.8878 -0.3286
 7122TIP3    H242858   3.428   3.945   3.978 -1.5104  0.0984  2.4264
 7123TIP3   OH242859   3.253   4.109  10.705 -0.0414 -0.1724 -0.2017
 7123TIP3    H142860   3.248   4.016  10.682 -0.7932  0.0960 -1.2091
 7123TIP3    H242861   3.339   4.137  10.675 -0.4853 -0.1512 -1.5145
 7124TIP3   OH242862   4.915   4.973  10.822 -0.1609 -0.0196  0.6914
 7124TIP3    H142863   4.833   4.933  10.792 -0.5518  0.4902  1.0463
 7124TIP3    H242864   4.968   4.899  10.851 -0.2985 -0.4000  0.0055
 7125TIP3   OH242865   4.008   3.653  12.451 -0.7366  0.0576 -0.1941
 7125TIP3    H142866   4.023   3.669  12.358  1.2343  1.5519  0.3218
 7125TIP3    H242867   3.999   3.558  12.458 -0.0414 -0.1495 -1.7990
 7126TIP3   OH242868   5.110   6.811  15.726  0.0065 -0.1999  0.0109
 7126TIP3    H142869   5.068   6.897  15.731  0.1986 -0.1408  0.6808
 7126TIP3    H242870   5.126   6.787  15.818  0.3261 -0.7657 -0.1915
 7127TIP3   OH242871   6.465   4.838   2.700 -0.4745  0.8017 -0.2479
 7127TIP3    H142872   6.466   4.929   2.731 -3.6022  0.3718  1.5689
 7127TIP3    H242873   6.511   4.789   2.768  0.4565  0.8837 -0.8018
 7128TIP3   OH242874   1.034   3.845  13.137  0.2163  0.2700 -0.3106
 7128TIP3    H142875   1.105   3.781  13.137  0.6375  0.7261 -0.8322
 7128TIP3    H242876   0.955   3.793  13.151  0.5111 -0.4224 -1.0914
 7129TIP3   OH242877   0.164   0.667  12.483 -1.0765 -0.0625  0.3000
 7129TIP3    H142878   0.202   0.579  12.489  2.5450  1.1601 -1.7113
 7129TIP3    H242879   0.149   0.679  12.389  2.0580  2.6162 -0.0470
 7130TIP3   OH242880   6.151   3.788  12.891  0.1679 -0.9913 -0.0487
 7130TIP3    H142881   6.101   3.817  12.967  0.0412 -0.8575 -0.1801
 7130TIP3    H242882   6.179   3.699  12.912  0.6489 -0.7358  0.4049
 7131TIP3   OH242883   2.911   1.988   0.101 -0.8190 -0.0523  0.0697
 7131TIP3    H142884   2.886   2.081   0.095  0.2606  0.5198  2.6508
 7131TIP3    H242885   2.878   1.961   0.187  1.2973 -1.2111  0.5796
 7132TIP3   OH242886   0.564   0.598  16.755  0.1773 -0.1412 -0.3181
 7132TIP3    H142887   0.470   0.616  16.758 -0.0233 -0.9674  3.8922
 7132TIP3    H242888   0.570   0.510  16.717 -0.9073 -0.6732  0.6938
 7133TIP3   OH242889   2.077   0.858   3.645 -0.4676  0.7708  0.2529
 7133TIP3    H142890   1.997   0.823   3.606  0.6281 -0.3753 -1.0497
 7133TIP3    H242891   2.119   0.783   3.687 -0.1555  1.4001  1.1175
 7134TIP3   OH242892   3.092   5.046   0.853  0.3103 -0.0471 -0.6390
 7134TIP3    H142893   3.087   5.099   0.932  1.2677 -1.4751  0.4221
 7134TIP3    H242894   3.044   5.097   0.787  0.0768  1.4907  0.6568
 7135TIP3   OH242895   0.529   5.180  16.038  0.4112  0.1095 -0.2253
 7135TIP3    H142896   0.479   5.148  16.112 -0.2642 -0.0941 -0.7569
 7135TIP3    H242897   0.616   5.198  16.073  0.4487 -1.1255  0.3466
 7136TIP3   OH242898   2.192   5.007   5.955  0.0613 -0.4789  0.3900
 7136TIP3    H142899   2.159   5.064   6.024 -2.0100 -0.5692 -0.4803
 7136TIP3    H242900   2.153   5.040   5.874  0.1676 -2.0960 -0.3619
 7137TIP3   OH242901   1.483   2.736  15.521  0.0324  0.6004  0.0121
 7137TIP3    H142902   1.558   2.766  15.469 -1.1259  1.0962 -1.4521
 7137TIP3    H242903   1.407   2.772  15.476 -1.1268 -0.2075  1.2394
 7138TIP3   OH242904   6.136   6.031   2.956 -0.6956 -0.1042  0.6267
 7138TIP3    H142905   6.121   5.961   2.893  1.2726 -1.0675  1.1634
 7138TIP3    H242906   6.048   6.067   2.974 -1.4931 -1.0396 -1.2053
 7139TIP3   OH242907   1.043   5.583   0.857 -0.2886 -0.0780  0.1410
 7139TIP3    H142908   0.952   5.565   0.833 -1.4532  0.0753  3.7973
 7139TIP3    H242909   1.080   5.496   0.875  0.6012 -0.2038 -2.0193
 7140TIP3   OH242910   5.082   4.655   3.596  0.4168 -0.0154  0.0950
 7140TIP3    H142911   5.161   4.695   3.559 -0.6478 -0.2255 -2.6657
 7140TIP3    H242912   5.029   4.729   3.625  2.1709  0.0848  3.4825
 7141TIP3   OH242913   1.760   0.632  12.897  0.2033 -0.2256 -0.4581
 7141TIP3    H142914   1.777   0.588  12.981 -1.3627  0.2143  0.1205
 7141TIP3    H242915   1.688   0.583  12.858  1.3246 -0.8165 -1.8940
 7142TIP3   OH242916   0.952   2.157   3.903  0.2235 -0.5119  0.0846
 7142TIP3    H142917   0.857   2.163   3.914  0.1923  1.3520 -0.7922
 7142TIP3    H242918   0.977   2.078   3.951 -2.0666 -2.4890 -1.7374
 7143TIP3   OH242919   4.411   2.603  14.594 -0.7282  0.6274  0.1938
 7143TIP3    H142920   4.429   2.509  14.593 -0.6202  0.5822 -2.6086
 7143TIP3    H242921   4.318   2.610  14.575 -0.2252  1.0183 -2.6195
 7144TIP3   OH242922   0.740   5.868  10.949  0.6670  0.2403  0.0016
 7144TIP3    H142923   0.675   5.924  10.905  0.9716  1.2729  0.8369
 7144TIP3    H242924   0.814   5.926  10.966  1.3899 -0.6673  0.0305
 7145TIP3   OH242925   5.560   0.423   3.805 -0.4028  0.2749 -0.3075
 7145TIP3    H142926   5.500   0.366   3.757 -0.7975 -0.0770  0.5671
 7145TIP3    H242927   5.593   0.485   3.740 -2.3256  0.9798 -0.6585
 7146TIP3   OH242928   1.649   5.272   4.646  0.1089  0.1838  0.1257
 7146TIP3    H142929   1.694   5.333   4.587 -2.3053  0.7264 -1.2902
 7146TIP3    H242930   1.719   5.219   4.684  1.9698  1.4053 -1.4222
 7147TIP3   OH242931   0.354   5.917  12.940  0.1466  0.0598 -0.4903
 7147TIP3    H142932   0.449   5.924  12.932  0.2596 -1.4861 -0.7898
 7147TIP3    H242933   0.336   5.934  13.032  0.7538  0.0681 -0.3708
 7148TIP3   OH242934   2.128   3.998  14.262  0.1232  0.1357  0.3846
 7148TIP3    H142935   2.070   4.074  14.262  0.2590  0.2480  0.8690
 7148TIP3    H242936   2.113   3.958  14.348 -0.2942 -0.6528 -0.0487
 7149TIP3   OH242937   5.537   2.371   1.169  0.0705  0.7041 -0.6517
 7149TIP3    H142938   5.473   2.307   1.138 -0.7687  0.9994  0.4152
 7149TIP3    H242939   5.503   2.456   1.141 -0.2097  0.8930  0.2151
 7150TIP3   OH242940   6.345   5.811  12.174 -0.3383  0.4654  0.0569
 7150TIP3    H142941   6.283   5.820  12.246  2.4014 -1.0898  2.8475
 7150TIP3    H242942   6.410   5.880  12.190 -0.7833  1.5204 -2.2873
 7151TIP3   OH242943   2.599   3.693   5.982 -0.0668  0.7888  0.0623
 7151TIP3    H142944   2.536   3.737   6.039 -0.0910 -1.5294  1.9938
 7151TIP3    H242945   2.650   3.638   6.041  2.0403  0.6186 -1.8085
 7152TIP3   OH242946   5.751   0.537   2.740 -0.1201  0.0359  0.5210
 7152TIP3    H142947   5.704   0.455   2.726  1.4387 -0.8683  0.4169
 7152TIP3    H242948   5.733   0.588   2.661  0.9436 -1.2530 -0.6058
 7153TIP3   OH242949   3.521   0.493   4.647  0.1123  0.4838  0.4292
 7153TIP3    H142950   3.469   0.473   4.725  0.4265 -1.7864  0.1161
 7153TIP3    H242951   3.582   0.560   4.676 -1.1866  1.2339  1.5382
 7154TIP3   OH242952   0.611   4.595  16.106 -0.1700  0.5157  0.0190
 7154TIP3    H142953   0.684   4.630  16.159  1.1724 -0.1741 -1.2982
 7154TIP3    H242954   0.596   4.662  16.040  1.5548 -0.7099 -1.7333
 7155TIP3   OH242955   2.852   6.274  13.012 -0.2289  0.1287 -0.4906
 7155TIP3    H142956   2.882   6.267  13.103 -0.6652 -0.4541 -0.3823
 7155TIP3    H242957   2.929   6.303  12.964  0.2259 -0.3126 -0.0518
 7156TIP3   OH242958   3.684   1.800   1.338  0.0733 -0.0041 -0.2423
 7156TIP3    H142959   3.647   1.741   1.272  0.4370  1.9773 -2.3257
 7156TIP3    H242960   3.611   1.856   1.364  0.0283 -0.5161  0.7791
 7157TIP3   OH242961   6.275   1.781  16.064 -0.4900  0.3887 -0.1220
 7157TIP3    H142962   6.289   1.876  16.055  1.3684  0.0326 -1.7564
 7157TIP3    H242963   6.306   1.761  16.152  0.8458  1.0734 -0.4001
 7158TIP3   OH242964   0.149   3.557   1.864  0.5639 -0.1928 -0.2132
 7158TIP3    H142965   0.098   3.503   1.924 -0.4565 -1.0300 -1.7713
 7158TIP3    H242966   0.214   3.599   1.920 -0.3869 -0.8567  1.4847
 7159TIP3   OH242967   5.838   3.427  14.114 -0.2621  0.1086  0.0958
 7159TIP3    H142968   5.794   3.421  14.199 -0.5588  1.8074  0.1029
 7159TIP3    H242969   5.766   3.426  14.050 -0.3996  2.6292  0.0960
 7160TIP3   OH242970   4.779   0.873   4.638  0.2134  0.1674  0.0430
 7160TIP3    H142971   4.776   0.777   4.628 -0.9393  0.3296 -1.5275
 7160TIP3    H242972   4.778   0.887   4.732  1.1298 -1.3847  0.3177
 7161TIP3   OH242973   4.675   2.862   3.590 -0.2191  0.4104 -0.0098
 7161TIP3    H142974   4.652   2.919   3.516  0.7608 -0.1666 -0.7788
 7161TIP3    H242975   4.604   2.798   3.593 -1.4157  1.7161  0.9627
 7162TIP3   OH242976   2.043   5.864  17.177 -0.6547  0.0574  0.2668
 7162TIP3    H142977   1.995   5.946  17.184 -0.5248  0.1713 -0.1785
 7162TIP3    H242978   2.133   5.887  17.199 -0.1874  0.4692 -1.9064
 7163TIP3   OH242979   5.988   4.482   3.034  0.2751 -0.0228 -0.3921
 7163TIP3    H142980   6.007   4.444   3.119 -0.9845  1.4348  0.6039
 7163TIP3    H242981   5.907   4.531   3.047  1.1206  1.9476 -1.8764
 7164TIP3   OH242982   2.127   6.210  16.828 -0.1019  0.1259  0.3379
 7164TIP3    H142983   2.200   6.206  16.890 -0.8557 -0.3661  1.2208
 7164TIP3    H242984   2.152   6.151  16.757 -0.6049 -1.9243  1.7513
 7165TIP3   OH242985   6.053   1.941  15.878 -0.7604 -0.4559 -0.2373
 7165TIP3    H142986   6.059   1.855  15.921 -1.2407 -0.7061 -0.6656
 7165TIP3    H242987   6.125   1.942  15.816 -1.8374 -1.3036 -1.5509
 7166TIP3   OH242988   2.841   0.338  12.118 -0.0833  0.1122 -0.4819
 7166TIP3    H142989   2.813   0.342  12.210  0.2530  3.0718 -0.4031
 7166TIP3    H242990   2.928   0.377  12.118 -0.7291  1.7118 -2.2258
 7167TIP3   OH242991   0.980   0.531  16.252  0.4257 -0.4932 -0.0171
 7167TIP3    H142992   0.911   0.469  16.229 -0.3488 -0.2258  1.4658
 7167TIP3    H242993   0.950   0.615  16.216 -0.9743  0.0055  2.1197
 7168TIP3   OH242994   3.568   0.226   1.914  0.1314 -0.6860  0.2176
 7168TIP3    H142995   3.517   0.195   1.989  0.6970 -1.8150  0.1462
 7168TIP3    H242996   3.651   0.256   1.952 -1.3877  3.5734  0.6989
 7169TIP3   OH242997   2.229   5.535  15.501  0.4607 -0.4097 -0.3949
 7169TIP3    H142998   2.165   5.577  15.558  1.0999  0.7736 -0.5350
 7169TIP3    H242999   2.181   5.514  15.422  0.0052 -0.4683 -0.1073
 7170TIP3   OH243000   0.631   6.546   3.665 -0.1712 -0.1522 -0.0767
 7170TIP3    H143001   0.582   6.530   3.585 -1.7687  2.3456  0.2793
 7170TIP3    H243002   0.679   6.627   3.647  0.7596 -0.4511  0.9518
 7171TIP3   OH243003   0.057   3.432   1.135  0.1109  0.5377  0.0642
 7171TIP3    H143004   0.112   3.508   1.115  0.3672  0.5253  0.7112
 7171TIP3    H243005   0.098   3.391   1.210  1.1507 -1.4406 -1.4904
 7172TIP3   OH243006   0.505   5.491  13.339 -0.7845  0.3426 -0.1399
 7172TIP3    H143007   0.562   5.453  13.406 -0.1685  0.4592 -0.5895
 7172TIP3    H243008   0.476   5.417  13.286  0.1066  0.4455 -0.7817
 7173TIP3   OH243009   0.346   5.445   2.682 -0.4085 -0.0106 -0.8478
 7173TIP3    H143010   0.277   5.398   2.729 -0.3124 -1.1290 -1.7731
 7173TIP3    H243011   0.426   5.424   2.729 -0.7297  1.8675  0.6623
 7174TIP3   OH243012   2.912   1.955  14.825 -0.0846 -0.3352 -0.6655
 7174TIP3    H143013   2.946   2.044  14.817 -0.5847 -0.2467 -2.0925
 7174TIP3    H243014   2.818   1.965  14.808 -0.6144 -0.7824  1.7094
 7175TIP3   OH243015   5.320   6.271  16.965  0.0185 -0.6346 -0.0475
 7175TIP3    H143016   5.390   6.336  16.970 -0.7420  0.2289 -0.3503
 7175TIP3    H243017   5.334   6.214  17.041  2.0417 -1.5188 -1.0221
 7176TIP3   OH243018   3.081   5.399   2.935 -0.4296 -0.6689 -0.3794
 7176TIP3    H143019   3.084   5.475   2.994  1.9464 -1.7481  1.0371
 7176TIP3    H243020   3.072   5.437   2.848 -0.6207  1.1781  0.3955
 7177TIP3   OH243021   3.360   4.333  17.147 -0.4631 -0.1142 -0.2118
 7177TIP3    H143022   3.419   4.396  17.105 -1.4782  0.5062 -0.7281
 7177TIP3    H243023   3.416   4.258  17.167  0.0554 -0.5053 -2.8046
 7178TIP3   OH243024   1.869   4.416   0.174  0.3356 -0.2377 -0.4204
 7178TIP3    H143025   1.842   4.508   0.171  3.5354  0.8051 -1.1797
 7178TIP3    H243026   1.959   4.419   0.205  0.7184 -3.1063 -1.0110
 7179TIP3   OH243027   1.428   5.889  14.192  0.3961  0.4386  0.3803
 7179TIP3    H143028   1.351   5.833  14.207  0.9466 -0.1303  1.1498
 7179TIP3    H243029   1.393   5.978  14.194 -0.1959  0.2050  1.0895
 7180TIP3   OH243030   5.256   4.515  11.227  0.1919  0.0049 -0.7593
 7180TIP3    H143031   5.199   4.559  11.290 -0.6414 -2.5540  0.3920
 7180TIP3    H243032   5.338   4.501  11.275 -0.7758 -2.8454  0.2660
 7181TIP3   OH243033   1.348   0.599   4.128  0.1894 -0.1417  0.0111
 7181TIP3    H143034   1.254   0.583   4.124  0.1610 -0.2459  0.9000
 7181TIP3    H243035   1.387   0.513   4.142  0.3855 -0.0514  0.0280
 7182TIP3   OH243036   1.782   2.637  10.571  0.8949 -0.4441 -0.0586
 7182TIP3    H143037   1.790   2.602  10.482 -1.1698 -1.6048  0.1664
 7182TIP3    H243038   1.733   2.719  10.559  0.3688 -0.7443  0.0342
 7183TIP3   OH243039   0.369   6.196  13.407  0.3003 -0.2438 -0.0490
 7183TIP3    H143040   0.423   6.160  13.477 -0.4512 -2.3415 -0.4723
 7183TIP3    H243041   0.431   6.230  13.343  0.9943  2.0843  1.7484
 7184TIP3   OH243042   5.411   6.299  13.721 -0.2104  0.0734  0.1207
 7184TIP3    H143043   5.456   6.228  13.766 -0.0919 -0.2240 -0.4526
 7184TIP3    H243044   5.318   6.280  13.731 -0.3864  2.0404  3.5215
 7185TIP3   OH243045   4.480   0.974  14.366 -0.0033  0.7015 -0.8318
 7185TIP3    H143046   4.394   0.963  14.325  0.2776 -1.2473 -0.9915
 7185TIP3    H243047   4.541   0.936  14.303  0.7576  0.2494  0.1581
 7186TIP3   OH243048   1.052   3.666  12.699  0.0951  0.1997  0.1342
 7186TIP3    H143049   1.097   3.734  12.650  2.2778  1.4357  3.4966
 7186TIP3    H243050   0.981   3.711  12.744 -0.1837 -0.3318  0.2397
 7187TIP3   OH243051   6.320   4.684  16.313  0.2674  0.1666 -0.0286
 7187TIP3    H143052   6.340   4.590  16.312  0.1463  0.1411 -0.0872
 7187TIP3    H243053   6.226   4.689  16.296  0.1357  0.2676  0.7294
 7188TIP3   OH243054   4.985   6.315  17.105  0.3018 -0.0249 -0.3208
 7188TIP3    H143055   5.058   6.299  17.165 -0.6644  0.9720  1.1872
 7188TIP3    H243056   5.011   6.271  17.024  1.8703 -1.0137  0.6575
 7189TIP3   OH243057   3.098   1.743   5.333  0.2265 -0.0747 -0.0272
 7189TIP3    H143058   3.027   1.729   5.270 -0.2255 -0.9326  0.6479
 7189TIP3    H243059   3.155   1.667   5.323 -1.7620 -2.2283  3.0331
 7190TIP3   OH243060   6.180   3.079  13.152  0.1927 -0.0259  0.0476
 7190TIP3    H143061   6.200   3.163  13.192 -0.8095 -0.0424  0.6334
 7190TIP3    H243062   6.257   3.057  13.101  1.0130  0.5950  0.9872
 7191TIP3   OH243063   5.397   6.326  11.402  0.5158 -0.6673  0.1024
 7191TIP3    H143064   5.388   6.253  11.340 -0.9651  0.2899 -0.8870
 7191TIP3    H243065   5.316   6.323  11.454  0.1150  0.6390 -0.4014
 7192TIP3   OH243066   2.161   0.253  16.843  0.3386  0.2980  0.1095
 7192TIP3    H143067   2.243   0.302  16.850  0.7747 -0.5461  1.0597
 7192TIP3    H243068   2.098   0.317  16.809  0.9051  1.4979  1.2287
 7193TIP3   OH243069   1.990   2.911  15.653 -0.0995 -0.1090 -0.2829
 7193TIP3    H143070   1.985   2.886  15.561  1.6265  0.9033 -0.7020
 7193TIP3    H243071   2.068   2.866  15.686  0.6081  1.2800  0.0425
 7194TIP3   OH243072   4.049   5.415   2.804  0.7796 -0.3311  0.5426
 7194TIP3    H143073   3.975   5.358   2.787  1.2587 -0.2337 -2.4141
 7194TIP3    H243074   4.038   5.443   2.895 -1.6402 -1.9150  0.8201
 7195TIP3   OH243075   1.575   2.844  15.930 -0.0948 -0.2701 -0.3766
 7195TIP3    H143076   1.670   2.837  15.940 -0.1685  0.7689  1.8820
 7195TIP3    H243077   1.550   2.769  15.876  1.9937 -0.6138 -0.9378
 7196TIP3   OH243078   4.548   4.384   6.649 -0.3259  0.2597 -0.0272
 7196TIP3    H143079   4.608   4.341   6.588  0.6585  1.3409  0.1298
 7196TIP3    H243080   4.605   4.436   6.705 -1.4660  1.9350 -0.3534
 7197TIP3   OH243081   2.564   2.042   2.539  0.0807 -0.5862 -0.2735
 7197TIP3    H143082   2.517   2.085   2.611 -0.3172 -1.3206 -0.0782
 7197TIP3    H243083   2.499   1.982   2.501  0.5774 -0.9040 -0.6321
 7198TIP3   OH243084   3.570   5.972  15.503  0.0003 -0.5321  0.2314
 7198TIP3    H143085   3.665   5.975  15.516 -0.1447  0.9572  1.1811
 7198TIP3    H243086   3.556   6.014  15.418  0.1971 -0.9405 -0.0067
 7199TIP3   OH243087   0.699   5.060  13.925 -0.2200  0.1685  0.0499
 7199TIP3    H143088   0.696   5.004  13.848 -0.0808  0.6046 -0.2760
 7199TIP3    H243089   0.653   5.010  13.993 -0.3543 -0.2100 -0.3160
 7200TIP3   OH243090   6.715   1.714  16.065 -0.9019  0.2304 -0.1095
 7200TIP3    H143091   6.729   1.696  16.158  0.7257 -2.7499 -0.8079
 7200TIP3    H243092   6.660   1.641  16.035  0.8485 -0.4339 -1.9622
 7201TIP3   OH243093   4.410   3.643  15.516  0.1215  0.2388  0.1396
 7201TIP3    H143094   4.397   3.585  15.441 -0.8664  0.7905 -0.1475
 7201TIP3    H243095   4.492   3.689  15.497 -0.4781  0.9047 -0.9973
 7202TIP3   OH243096   4.720   6.518  13.679 -0.1544  0.2040 -0.0628
 7202TIP3    H143097   4.655   6.513  13.749 -1.1557  0.4241 -0.9536
 7202TIP3    H243098   4.763   6.433  13.681 -0.6932 -0.0692  0.3325
 7203TIP3   OH243099   6.310   4.687   4.304  0.5503 -0.3894 -0.2139
 7203TIP3    H143100   6.308   4.776   4.270  1.7029 -0.2750 -0.0094
 7203TIP3    H243101   6.322   4.697   4.398 -0.3795 -0.7525 -0.0410
 7204TIP3   OH243102   6.118   4.607   6.360  0.1469  0.2444 -0.3616
 7204TIP3    H143103   6.208   4.574   6.355  0.0378 -0.1527  0.1775
 7204TIP3    H243104   6.124   4.697   6.329  0.6796  0.1249 -0.6190
 7205TIP3   OH243105   4.310   6.025  16.084  0.2292  0.4200 -0.3509
 7205TIP3    H143106   4.282   6.105  16.040  0.4907 -0.5208 -2.3011
 7205TIP3    H243107   4.403   6.017  16.065  0.5336  0.3712  1.0387
 7206TIP3   OH243108   0.150   3.488  14.021 -0.6035  0.2481  0.6573
 7206TIP3    H143109   0.204   3.417  13.988  0.7980  2.8607 -3.4565
 7206TIP3    H243110   0.210   3.543  14.071 -1.1877 -0.2787  1.9885
 7207TIP3   OH243111   0.330   1.566   0.640  0.0724  0.6281  0.6296
 7207TIP3    H143112   0.385   1.614   0.577  0.2889 -0.1342  0.2146
 7207TIP3    H243113   0.348   1.474   0.620  1.1883  0.3388  2.7026
 7208TIP3   OH243114   5.960   4.678  13.716 -0.1526  0.2065  0.3390
 7208TIP3    H143115   6.025   4.631  13.663 -0.1669  1.0505 -0.4630
 7208TIP3    H243116   5.968   4.640  13.803 -0.1854 -1.2917 -0.2774
 7209TIP3   OH243117   5.688   5.783   1.305 -0.1144  0.6660 -0.2932
 7209TIP3    H143118   5.698   5.875   1.327  0.2871  0.3491  0.9411
 7209TIP3    H243119   5.755   5.738   1.357 -0.7030 -0.3825 -0.4075
 7210TIP3   OH243120   1.722   2.480   2.028  0.1803 -0.0700 -0.3429
 7210TIP3    H143121   1.643   2.526   2.055 -0.2993 -0.3255 -1.2556
 7210TIP3    H243122   1.711   2.390   2.059 -0.3818 -0.3695 -1.3530
 7211TIP3   OH243123   1.946   6.004  12.810  0.1094  0.8323  0.2227
 7211TIP3    H143124   1.984   5.921  12.782 -0.2152  0.7909 -0.1070
 7211TIP3    H243125   1.953   6.003  12.906 -0.6511  0.0550  0.2774
 7212TIP3   OH243126   5.048   2.232   2.879 -0.8159  0.0244 -0.3227
 7212TIP3    H143127   4.988   2.204   2.948 -0.6244 -3.8750 -1.5115
 7212TIP3    H243128   4.991   2.265   2.810 -1.2687  0.3536  0.2008
 7213TIP3   OH243129   5.699   2.828   3.845 -0.3365  0.0548 -0.8400
 7213TIP3    H143130   5.719   2.751   3.792 -0.3195 -0.1530 -0.5345
 7213TIP3    H243131   5.610   2.853   3.820 -0.5565 -0.4054 -0.5266
 7214TIP3   OH243132   1.961   0.480   1.211  0.4512  0.3167 -0.0804
 7214TIP3    H143133   1.920   0.429   1.141  0.4098  0.5921 -0.2594
 7214TIP3    H243134   1.926   0.444   1.292 -1.6069  1.7804 -0.2613
 7215TIP3   OH243135   3.738   1.070  12.752  0.4925  0.1699  0.4120
 7215TIP3    H143136   3.720   0.976  12.750  0.9294  0.0549 -2.3829
 7215TIP3    H243137   3.807   1.079  12.817 -1.1409 -1.0518  2.4478
 7216TIP3   OH243138   4.871   4.462  11.920 -0.3097  0.0832  0.2953
 7216TIP3    H143139   4.836   4.513  11.993  1.3697  2.4122 -0.3827
 7216TIP3    H243140   4.965   4.482  11.921  1.0710 -4.9036  1.3626
 7217TIP3   OH243141   6.216   5.555   1.526 -0.2681  0.0048  0.2650
 7217TIP3    H143142   6.194   5.463   1.542  0.7700 -0.2923  0.0439
 7217TIP3    H243143   6.309   5.561   1.547  0.0186  0.6736 -1.0985
 7218TIP3   OH243144   4.203   2.879   4.643  0.5323 -0.5920 -0.4331
 7218TIP3    H143145   4.292   2.892   4.677  0.1134  2.0489 -0.1370
 7218TIP3    H243146   4.199   2.937   4.566 -1.7768  1.7396  1.2655
 7219TIP3   OH243147   1.048   0.475   2.722 -0.3172  0.2176 -0.2379
 7219TIP3    H143148   1.050   0.410   2.651 -1.8785  0.3184 -0.4296
 7219TIP3    H243149   1.097   0.434   2.793 -0.2368 -0.6626 -0.7747
 7220TIP3   OH243150   5.012   6.504  13.820 -0.2174 -0.6900 -0.1603
 7220TIP3    H143151   5.050   6.472  13.738  1.3883 -1.0173  0.6661
 7220TIP3    H243152   5.010   6.600  13.810  1.1192 -0.6424 -0.1315
 7221TIP3   OH243153   0.449   2.695   1.542 -0.1760 -0.2473  0.6151
 7221TIP3    H143154   0.544   2.691   1.552 -0.3168 -0.0006  2.1906
 7221TIP3    H243155   0.415   2.633   1.606 -1.0654 -1.0629 -0.6072
 7222TIP3   OH243156   6.343   0.269  11.049  0.1131 -0.0769  0.4430
 7222TIP3    H143157   6.423   0.307  11.012  0.1625 -0.1522  0.4732
 7222TIP3    H243158   6.303   0.222  10.976 -1.3730  2.2670 -0.3880
 7223TIP3   OH243159   0.237   1.173  17.177 -0.1031  0.2470 -0.3412
 7223TIP3    H143160   0.261   1.225  17.253 -1.6978 -0.8300  0.9529
 7223TIP3    H243161   0.271   1.223  17.102  0.0454  2.1710  0.9466
 7224TIP3   OH243162   0.507   5.534   0.305  0.6606  0.1614 -0.2571
 7224TIP3    H143163   0.573   5.514   0.371  0.3097 -1.3164 -0.3097
 7224TIP3    H243164   0.428   5.491   0.336  0.1877  0.4286 -1.0579
 7225TIP3   OH243165   0.638   6.502  16.423  0.7400 -0.3520  0.2224
 7225TIP3    H143166   0.585   6.484  16.345  1.2563 -0.0771 -0.2006
 7225TIP3    H243167   0.691   6.424  16.435  1.8413  0.2209 -0.6835
 7226TIP3   OH243168   4.932   5.453   2.200  0.0527  0.1978  0.6171
 7226TIP3    H143169   4.845   5.444   2.239 -0.8867 -3.0856 -1.7764
 7226TIP3    H243170   4.985   5.387   2.245  0.2604 -0.2942 -0.3145
 7227TIP3   OH243171   1.930   0.986   4.143  0.4583 -0.4033 -0.1001
 7227TIP3    H143172   2.000   0.957   4.084  0.3325  0.2670 -0.5966
 7227TIP3    H243173   1.948   1.079   4.158  0.2188 -0.4551  0.5467
 7228TIP3   OH243174   0.526   3.123  11.907  0.2822  0.1311 -0.3763
 7228TIP3    H143175   0.573   3.150  11.985 -1.0282  0.6336  0.2801
 7228TIP3    H243176   0.495   3.034  11.927 -1.2060  0.7557  0.2763
 7229TIP3   OH243177   2.917   3.617  13.679 -0.1977 -0.3976  0.7094
 7229TIP3    H143178   2.848   3.621  13.613  0.8910 -0.5205 -0.4986
 7229TIP3    H243179   2.997   3.637  13.630  0.6962 -0.8539  1.9360
 7230TIP3   OH243180   3.053   0.029   1.776 -0.3239  0.0542  0.0324
 7230TIP3    H143181   3.118   0.027   1.707  1.3290  0.5665  1.5078
 7230TIP3    H243182   2.969   0.039   1.730  0.4873 -1.6444 -1.9545
 7231TIP3   OH243183   2.260   3.940   1.840 -0.1184 -0.5734  0.0205
 7231TIP3    H143184   2.264   3.859   1.891  0.4036 -0.6135 -0.0739
 7231TIP3    H243185   2.338   3.988   1.867 -0.7423  0.1656  0.5199
 7232TIP3   OH243186   3.526   0.574   2.828  0.1068  0.1824  0.4965
 7232TIP3    H143187   3.600   0.515   2.841 -0.5764 -0.6922  0.4984
 7232TIP3    H243188   3.553   0.656   2.869  0.3832 -0.6741  2.1155
 7233TIP3   OH243189   1.286   0.915  14.709  0.4747  0.0150 -0.3117
 7233TIP3    H143190   1.325   1.001  14.690  1.0271  0.1272  1.2122
 7233TIP3    H243191   1.329   0.886  14.789 -2.7555  0.2794  1.7066
 7234TIP3   OH243192   2.794   5.869  14.150  0.1592  0.4318 -0.2247
 7234TIP3    H143193   2.711   5.881  14.195  0.4124 -0.8654  0.6550
 7234TIP3    H243194   2.771   5.817  14.072  0.0764  0.4829 -0.2350
 7235TIP3   OH243195   5.544   2.104   2.396  0.2496  0.2557 -0.0035
 7235TIP3    H143196   5.616   2.126   2.338  0.0474  0.7014 -0.0895
 7235TIP3    H243197   5.526   2.012   2.378 -0.1051  0.5067 -0.9729
 7236TIP3   OH243198   3.524   0.662  13.421  0.0531  0.1356 -0.2501
 7236TIP3    H143199   3.551   0.687  13.509  0.5071  2.2223 -0.9219
 7236TIP3    H243200   3.433   0.634  13.431  0.1447  0.1886  0.8845
 7237TIP3   OH243201   1.821   3.845  13.857 -0.3321 -0.9867  0.0032
 7237TIP3    H143202   1.786   3.764  13.820 -2.2851 -0.5795  0.8377
 7237TIP3    H243203   1.789   3.846  13.947  1.1240 -0.1117  0.5485
 7238TIP3   OH243204   4.101   4.309  13.225 -0.7430 -0.1838 -0.0617
 7238TIP3    H143205   4.092   4.404  13.229  2.7218  0.2177  2.3370
 7238TIP3    H243206   4.171   4.294  13.162  0.2273 -0.9121  1.1466
 7239TIP3   OH243207   5.310   0.358   1.004 -1.1471 -0.2081  0.1358
 7239TIP3    H143208   5.398   0.357   0.968 -1.2694 -0.2375 -0.1646
 7239TIP3    H243209   5.319   0.320   1.092 -0.6107  1.1313  0.6866
 7240TIP3   OH243210   4.507   2.178  13.676 -0.1248  0.4095 -0.2292
 7240TIP3    H143211   4.467   2.249  13.627 -1.9871  0.5141  1.3264
 7240TIP3    H243212   4.570   2.220  13.734 -1.5127  0.8951  0.9786
 7241TIP3   OH243213   1.653   4.933  15.029  0.6502  0.1773  0.2038
 7241TIP3    H143214   1.560   4.912  15.023  0.6703  0.3538 -1.1575
 7241TIP3    H243215   1.678   4.908  15.118 -0.9557  1.2372  0.9991
 7242TIP3   OH243216   2.589   0.264  12.925  0.5823 -0.5177  0.5109
 7242TIP3    H143217   2.549   0.227  13.004  2.9696 -1.4142  1.3771
 7242TIP3    H243218   2.656   0.324  12.958  0.6007  0.2457 -0.8607
 7243TIP3   OH243219   2.237   1.290  11.432  0.7327 -0.3726 -0.4067
 7243TIP3    H143220   2.313   1.259  11.482  1.0197 -0.1532 -0.7057
 7243TIP3    H243221   2.252   1.258  11.344  1.0006  0.5445 -0.7093
 7244TIP3   OH243222   4.292   4.158   1.921  0.2425  0.4216 -0.8893
 7244TIP3    H143223   4.279   4.064   1.905 -1.0541  0.6402 -1.1895
 7244TIP3    H243224   4.384   4.164   1.948  0.4031 -0.9098 -1.0322
 7245TIP3   OH243225   6.113   1.908   5.448 -0.6066 -0.1825 -0.1579
 7245TIP3    H143226   6.023   1.934   5.468 -0.8203  1.4321 -2.8391
 7245TIP3    H243227   6.167   1.973   5.492 -0.8748  0.5021 -0.8285
 7246TIP3   OH243228   6.589   1.595  15.072 -0.5218  0.4285  0.0838
 7246TIP3    H143229   6.552   1.650  15.141 -2.1851 -0.7958  0.2250
 7246TIP3    H243230   6.525   1.598  15.001  0.7682  1.0026 -1.1109
 7247TIP3   OH243231   0.468   4.676  11.107  0.1244  0.1164  0.2101
 7247TIP3    H143232   0.477   4.659  11.201 -2.0455  0.7292  0.5732
 7247TIP3    H243233   0.557   4.697  11.078  0.9171 -0.5730  2.0144
 7248TIP3   OH243234   4.306   4.048   3.328 -0.5021  0.0654 -0.2783
 7248TIP3    H143235   4.249   4.038   3.405  0.5346 -0.9168  0.3986
 7248TIP3    H243236   4.380   3.990   3.346  0.1372  0.4140 -1.6806
 7249TIP3   OH243237   0.099   4.141  13.263 -0.1998 -0.2210 -0.0494
 7249TIP3    H143238   0.171   4.200  13.240 -1.8631  1.5040 -1.1476
 7249TIP3    H243239   0.048   4.134  13.183 -1.5377 -0.9838  0.8402
 7250TIP3   OH243240   6.457   4.844   3.676 -0.3118 -0.2469  0.5487
 7250TIP3    H143241   6.550   4.822   3.671 -0.1449  0.1381  1.5977
 7250TIP3    H243242   6.452   4.934   3.643 -0.3723 -0.3950  0.1487
 7251TIP3   OH243243   2.007   0.442  16.736  0.2398 -0.4317 -0.6861
 7251TIP3    H143244   1.996   0.505  16.665  0.1739 -0.0495 -0.3427
 7251TIP3    H243245   1.944   0.372  16.717  0.0608 -0.2190 -0.8756
 7252TIP3   OH243246   0.860   5.671   4.115 -0.8845  0.4871 -0.1395
 7252TIP3    H143247   0.892   5.587   4.080  0.3164  1.4335 -1.4580
 7252TIP3    H243248   0.869   5.662   4.209 -2.1817 -1.3886 -0.1292
 7253TIP3   OH243249   4.411   3.587   4.805  0.8927  0.3260 -0.4027
 7253TIP3    H143250   4.389   3.675   4.836  1.6349  0.1900  0.5354
 7253TIP3    H243251   4.357   3.576   4.726  0.9898  1.7258 -0.6992
 7254TIP3   OH243252   3.847   4.909   2.309  0.3508 -0.2684 -0.0126
 7254TIP3    H143253   3.886   4.856   2.239 -0.1881 -0.0443 -0.4913
 7254TIP3    H243254   3.787   4.849   2.354 -0.1737 -0.0980 -0.4821
 7255TIP3   OH243255   2.754   0.102   4.535 -1.2353 -0.0484  0.2580
 7255TIP3    H143256   2.700   0.179   4.518  1.0112  1.4788 -0.5267
 7255TIP3    H243257   2.759   0.096   4.630 -1.2586  0.9613  0.3326
 7256TIP3   OH243258   3.952   1.000  12.918 -0.0431 -0.6563 -0.0007
 7256TIP3    H143259   4.036   1.009  12.874  0.2596 -0.4200  0.6052
 7256TIP3    H243260   3.975   0.971  13.007 -0.6084 -0.7356  0.1232
 7257TIP3   OH243261   5.820   2.219   2.908  0.0093 -0.5865  0.3422
 7257TIP3    H143262   5.842   2.247   2.819 -0.2491 -0.8175  0.2033
 7257TIP3    H243263   5.782   2.296   2.949  1.0613 -0.1820  0.5837
 7258TIP3   OH243264   3.769   4.998   4.633  0.5671  0.6347  0.0114
 7258TIP3    H143265   3.748   4.905   4.642  1.2548  0.4973  0.2343
 7258TIP3    H243266   3.802   5.007   4.544 -2.0483  1.1832 -0.9967
 7259TIP3   OH243267   5.019   2.230  14.710 -0.0093  0.2566  0.4305
 7259TIP3    H143268   5.024   2.299  14.777  1.2615  0.5880  0.0164
 7259TIP3    H243269   5.051   2.152  14.754  0.3482  0.3606  0.3575
 7260TIP3   OH243270   2.862   5.616  10.817 -0.0103  0.6650  0.0866
 7260TIP3    H143271   2.831   5.617  10.727  1.4613  1.6479 -0.4485
 7260TIP3    H243272   2.799   5.672  10.864 -0.6485  0.3436 -0.3667
 7261TIP3   OH243273   0.502   4.069  17.219 -0.0848 -0.2247 -0.1737
 7261TIP3    H143274   0.590   4.102  17.235 -0.6145  1.3605 -0.3409
 7261TIP3    H243275   0.509   3.975  17.230  1.7455 -0.1862 -0.7297
 7262TIP3   OH243276   1.099   2.417   1.602 -0.3647  0.6987  0.4697
 7262TIP3    H143277   1.192   2.428   1.585 -0.5575  1.4817 -0.1183
 7262TIP3    H243278   1.058   2.497   1.570 -1.4617 -0.3981 -1.0725
 7263TIP3   OH243279   0.136   0.971  13.276  0.2088 -0.3698 -0.3789
 7263TIP3    H143280   0.100   0.898  13.225  1.0285 -0.9011 -0.2288
 7263TIP3    H243281   0.227   0.945  13.292  0.3796  0.4878  0.0655
 7264TIP3   OH243282   2.653   5.258  11.922  0.7029 -0.6736  0.2327
 7264TIP3    H143283   2.725   5.316  11.944  1.4728 -1.9980  1.4138
 7264TIP3    H243284   2.575   5.303  11.955  0.7259  1.4227 -2.2917
 7265TIP3   OH243285   0.862   4.885  14.958  0.2647 -0.6116 -0.5540
 7265TIP3    H143286   0.899   4.878  14.870  1.2159 -0.8615 -0.1430
 7265TIP3    H243287   0.874   4.798  14.996 -0.9121 -0.7472 -0.4656
 7266TIP3   OH243288   6.528   0.481   4.663 -0.1109  0.2776 -0.0626
 7266TIP3    H143289   6.574   0.452   4.584 -0.5076 -0.5481 -0.0044
 7266TIP3    H243290   6.489   0.401   4.699 -0.2708  0.7061  0.7526
 7267TIP3   OH243291   3.621   6.330  13.306 -0.1100  0.2741 -0.1112
 7267TIP3    H143292   3.699   6.279  13.283 -2.6378 -2.8776 -2.5282
 7267TIP3    H243293   3.628   6.410  13.254  0.8770 -0.5984 -1.3839
 7268TIP3   OH243294   2.821   0.078  15.870 -0.1895 -0.1736  0.1617
 7268TIP3    H143295   2.744   0.132  15.849 -0.1890 -0.8392 -1.7382
 7268TIP3    H243296   2.871   0.075  15.788  1.1685 -0.8799  0.9858
 7269TIP3   OH243297   3.310   1.092  13.795  0.5921  0.5225  0.0482
 7269TIP3    H143298   3.271   1.005  13.785 -1.4711  1.3904  0.0641
 7269TIP3    H243299   3.313   1.106  13.890  0.6728  0.5747  0.0382
 7270TIP3   OH243300   3.042   5.308  11.085 -0.4363 -0.1961  0.4429
 7270TIP3    H143301   3.031   5.397  11.054 -0.0582 -0.8140 -1.5980
 7270TIP3    H243302   3.125   5.308  11.133 -0.3095  0.4743  0.2189
 7271TIP3   OH243303   1.463   1.452  10.357  0.0774 -0.3358  0.6080
 7271TIP3    H143304   1.425   1.394  10.291 -0.1036 -1.3331  1.5559
 7271TIP3    H243305   1.403   1.526  10.362  0.1687 -0.1817 -0.4340
 7272TIP3   OH243306   0.332   1.984  12.111  0.2346 -0.2619  0.4176
 7272TIP3    H143307   0.279   1.905  12.105 -0.1693  0.0912 -1.3364
 7272TIP3    H243308   0.275   2.054  12.078  1.2589  0.3773 -0.0616
 7273TIP3   OH243309   5.566   1.333  14.471 -0.7005 -0.1948  0.1003
 7273TIP3    H143310   5.511   1.346  14.394  0.1418  0.4737 -0.4009
 7273TIP3    H243311   5.532   1.253  14.511  0.5634 -2.1908 -2.4976
 7274TIP3   OH243312   5.621   6.675  13.207  0.1150 -0.1034  0.2622
 7274TIP3    H143313   5.642   6.741  13.273  1.6508 -0.1403 -0.1649
 7274TIP3    H243314   5.696   6.616  13.206 -0.3770 -0.7425 -0.7355
 7275TIP3   OH243315   0.088   5.336  11.637 -0.0537  0.5182  0.0571
 7275TIP3    H143316  -0.006   5.320  11.636  0.2792 -1.8387  0.1733
 7275TIP3    H243317   0.119   5.300  11.554  0.8132  0.8544  0.2209
 7276TIP3   OH243318   4.051   1.998   3.202  0.9164 -0.1302 -0.0593
 7276TIP3    H143319   4.068   1.942   3.126  3.1995 -0.0119  0.2745
 7276TIP3    H243320   4.021   2.081   3.164 -1.4105 -1.1560 -0.6064
 7277TIP3   OH243321   1.045   6.173  11.299 -0.4870  0.3767  0.0835
 7277TIP3    H143322   1.044   6.135  11.387 -0.0662 -2.5492 -1.0722
 7277TIP3    H243323   1.137   6.187  11.280 -0.5011 -0.0086 -0.2765
 7278TIP3   OH243324   5.246   6.386  12.299 -0.5229 -0.3884  0.0270
 7278TIP3    H143325   5.335   6.400  12.267  0.4198 -1.3103  2.0457
 7278TIP3    H243326   5.201   6.344  12.226 -0.0473  2.1627 -1.8763
 7279TIP3   OH243327   1.353   1.920  12.459 -0.1310 -0.5357 -0.3377
 7279TIP3    H143328   1.303   2.001  12.457  1.3489  0.3940 -1.3885
 7279TIP3    H243329   1.414   1.932  12.531 -0.1126 -0.8507 -0.3003
 7280TIP3   OH243330   4.490   5.268  16.240 -0.2925 -0.3146  0.5804
 7280TIP3    H143331   4.560   5.330  16.220 -0.2991  0.1720  2.0007
 7280TIP3    H243332   4.499   5.250  16.333 -2.2446 -0.0042  0.8656
 7281TIP3   OH243333   1.790   5.656  11.321 -0.2420  0.1871  0.2694
 7281TIP3    H143334   1.796   5.700  11.236 -0.0994 -1.0749 -0.3931
 7281TIP3    H243335   1.823   5.721  11.383  2.5353  0.1593 -0.9824
 7282TIP3   OH243336   2.873   0.358   5.219 -0.1734 -0.5448  0.3719
 7282TIP3    H143337   2.888   0.341   5.126 -1.6043 -0.7200  0.1549
 7282TIP3    H243338   2.916   0.442   5.236  0.3816 -0.6755 -0.3547
 7283TIP3   OH243339   5.989   3.058  16.573 -0.3228 -0.2701 -0.0704
 7283TIP3    H143340   5.944   3.128  16.526  0.9312  1.8546  1.6652
 7283TIP3    H243341   6.069   3.042  16.523  0.0667  0.5796  0.2653
 7284TIP3   OH243342   0.218   2.381   1.890 -0.1867  0.3361 -0.0642
 7284TIP3    H143343   0.243   2.423   1.972 -0.2043 -2.1760  1.3554
 7284TIP3    H243344   0.302   2.362   1.847 -0.1196  0.7495 -0.1118
 7285TIP3   OH243345   1.320   3.855  14.652  0.0586  0.6518 -0.0738
 7285TIP3    H143346   1.381   3.786  14.625  1.1961  1.1541  1.1023
 7285TIP3    H243347   1.324   3.854  14.748 -1.2583  1.1851  0.0086
 7286TIP3   OH243348   0.057   5.177   4.033 -0.1338 -0.0525 -0.0046
 7286TIP3    H143349   0.081   5.088   4.007 -1.3450 -0.4640  0.1999
 7286TIP3    H243350  -0.009   5.204   3.969  0.0141  0.5948  0.1058
 7287TIP3   OH243351   3.654   5.652  16.767  0.1315 -0.2171  0.1959
 7287TIP3    H143352   3.687   5.562  16.769 -1.0501 -0.6727  0.0998
 7287TIP3    H243353   3.559   5.642  16.766 -0.1083  1.0524  2.4952
 7288TIP3   OH243354   2.057   5.631   2.878 -0.3123 -0.0665 -0.0488
 7288TIP3    H143355   1.961   5.627   2.875 -0.2596 -1.4858 -1.9951
 7288TIP3    H243356   2.079   5.601   2.966 -1.6483  0.7346  0.5991
 7289TIP3   OH243357   6.655   1.430   2.498  0.2289  0.6022 -0.4772
 7289TIP3    H143358   6.659   1.336   2.480 -0.6334  0.2555  0.9555
 7289TIP3    H243359   6.564   1.454   2.484  0.8309  1.7692 -3.0209
 7290TIP3   OH243360   0.428   5.736  11.881 -0.0695 -0.0187  0.1403
 7290TIP3    H143361   0.395   5.655  11.844 -0.2969 -0.3828  1.1055
 7290TIP3    H243362   0.438   5.795  11.806 -2.2095 -0.1396 -0.3052
 7291TIP3   OH243363   0.540   1.461   2.221 -0.5373  0.3442  0.4131
 7291TIP3    H143364   0.484   1.391   2.255  0.7643 -0.8420  0.2046
 7291TIP3    H243365   0.512   1.539   2.268 -1.6984 -0.4046  1.0212
 7292TIP3   OH243366   0.028   3.406  14.271 -0.0129 -0.0923  0.0761
 7292TIP3    H143367  -0.055   3.435  14.308 -1.2113 -1.4513 -1.3683
 7292TIP3    H243368   0.028   3.442  14.182  0.4150 -1.0031 -0.3046
 7293TIP3   OH243369   1.584   2.899  15.113  0.3886  0.0533 -0.2014
 7293TIP3    H143370   1.636   2.979  15.111  3.6183 -1.8701 -0.5933
 7293TIP3    H243371   1.615   2.849  15.038 -1.3208 -1.7075  0.1940
 7294TIP3   OH243372   0.964   2.744   4.604 -0.8959 -0.6682 -0.0414
 7294TIP3    H143373   0.935   2.727   4.514 -0.7677 -5.2043  0.5335
 7294TIP3    H243374   1.059   2.738   4.600 -0.8518 -0.2821  0.3444
 7295TIP3   OH243375   1.317   6.189   0.683 -0.0611 -0.0429  0.7488
 7295TIP3    H143376   1.339   6.128   0.754 -0.1872  0.6208  1.3691
 7295TIP3    H243377   1.297   6.271   0.728 -1.2736  0.0782  0.0126
 7296TIP3   OH243378   2.629   1.063  13.654 -0.0350 -0.0327 -0.0209
 7296TIP3    H143379   2.655   1.078  13.563  0.5113 -0.4500  0.0575
 7296TIP3    H243380   2.536   1.043  13.649 -0.8797  3.3636 -0.1114
 7297TIP3   OH243381   4.606   1.287  11.554  0.2514  0.2066  0.7271
 7297TIP3    H143382   4.665   1.220  11.519  0.9351  0.3647  1.5489
 7297TIP3    H243383   4.528   1.281  11.499  1.2011  0.3033 -0.6992
 7298TIP3   OH243384   2.162   1.167   3.856 -0.2013 -0.2925  0.0245
 7298TIP3    H143385   2.182   1.075   3.873 -2.8146 -0.6816  1.4967
 7298TIP3    H243386   2.154   1.173   3.761 -0.9647 -1.8365 -0.0393
 7299TIP3   OH243387   0.563   5.019   2.514  0.1608 -0.1334 -0.2682
 7299TIP3    H143388   0.613   5.017   2.432 -0.8170  0.5786 -0.9044
 7299TIP3    H243389   0.621   5.064   2.576 -0.7081  3.3870 -1.7670
 7300TIP3   OH243390   0.883   3.428  14.745 -0.2305 -0.2574 -0.0875
 7300TIP3    H143391   0.941   3.454  14.673  0.5958 -2.8164 -0.4565
 7300TIP3    H243392   0.795   3.452  14.714  0.4217  2.5840 -0.0357
 7301TIP3   OH243393   4.918   6.240   0.785 -0.1624 -0.2597  0.0934
 7301TIP3    H143394   5.006   6.262   0.757 -0.1584 -0.8148 -0.3353
 7301TIP3    H243395   4.921   6.147   0.805 -0.7662 -0.3919 -0.3991
 7302TIP3   OH243396   1.474   2.626   2.314 -0.1170 -0.0059 -0.1427
 7302TIP3    H143397   1.488   2.660   2.226 -0.0800  0.1055 -0.0940
 7302TIP3    H243398   1.384   2.593   2.313 -0.9668  2.1455  0.4556
 7303TIP3   OH243399   0.516   0.436   4.009 -0.2506 -0.4010  0.1290
 7303TIP3    H143400   0.504   0.418   3.916 -1.6184 -0.0612  0.2136
 7303TIP3    H243401   0.541   0.352   4.047  0.0841 -0.5931 -0.4981
 7304TIP3   OH243402   5.309   3.440   5.935  0.3102 -0.0672 -0.2903
 7304TIP3    H143403   5.338   3.518   5.888  0.9820  0.3926  0.8575
 7304TIP3    H243404   5.215   3.451   5.944  0.7188  2.3150  2.7267
 7305TIP3   OH243405   3.172   0.839   0.258  0.4230  0.0297 -0.6273
 7305TIP3    H143406   3.127   0.802   0.181  0.7477  1.4948 -1.5665
 7305TIP3    H243407   3.220   0.765   0.295  0.4571 -0.6718 -1.9837
 7306TIP3   OH243408   3.289   5.480  14.070 -0.6827  0.0937  0.0854
 7306TIP3    H143409   3.295   5.536  14.147 -1.2146  0.3519 -0.0608
 7306TIP3    H243410   3.368   5.501  14.019 -0.4866  0.1403  0.4056
 7307TIP3   OH243411   3.923   1.403   5.008 -0.0275  0.2948 -0.2744
 7307TIP3    H143412   3.965   1.431   5.089 -0.5530 -0.1779  0.1746
 7307TIP3    H243413   3.992   1.356   4.961  0.1601  0.1675  0.1174
 7308TIP3   OH243414   4.349   1.540   1.462  0.3520 -0.5177  0.4814
 7308TIP3    H143415   4.402   1.563   1.538  2.8387 -0.4405 -1.1686
 7308TIP3    H243416   4.393   1.464   1.424 -1.1190 -0.8560 -0.6128
 7309TIP3   OH243417   5.505   4.490  12.528 -0.2979 -0.1602  0.6164
 7309TIP3    H143418   5.576   4.426  12.526  0.6527  0.8537  0.2875
 7309TIP3    H243419   5.425   4.438  12.534  0.5135 -1.3118  2.4350
 7310TIP3   OH243420   2.462   2.759  13.469  0.0812 -0.1093  0.0009
 7310TIP3    H143421   2.532   2.812  13.507 -0.0596  0.3589 -0.3772
 7310TIP3    H243422   2.382   2.806  13.491  0.0926  1.1615 -2.3532
 7311TIP3   OH243423   1.425   2.814  14.586  0.3812 -0.4232  0.2989
 7311TIP3    H143424   1.353   2.816  14.648  1.0615 -0.5452  1.1091
 7311TIP3    H243425   1.411   2.735  14.534 -0.0914 -0.4138  0.4108
 7312TIP3   OH243426   3.158   1.893   0.843  0.1165 -0.7306  0.4098
 7312TIP3    H143427   3.149   1.987   0.860 -1.0381 -0.6091 -0.7056
 7312TIP3    H243428   3.068   1.859   0.849  0.4904 -1.7371  0.5838
 7313TIP3   OH243429   1.806   5.274  15.160 -0.3449 -0.3529  0.2285
 7313TIP3    H143430   1.855   5.198  15.129  1.1466  0.0850  1.4131
 7313TIP3    H243431   1.727   5.237  15.199 -0.4448 -1.1544 -0.6854
 7314TIP3   OH243432   5.379   1.820   6.010  0.1885 -0.2244  0.7282
 7314TIP3    H143433   5.364   1.748   6.072 -0.9053 -1.0510 -0.4329
 7314TIP3    H243434   5.469   1.848   6.027  0.0169 -0.6057  2.4767
 7315TIP3   OH243435   2.827   4.214  11.861  0.0459  0.2695 -0.0856
 7315TIP3    H143436   2.800   4.200  11.770 -1.2164 -1.7904  0.5243
 7315TIP3    H243437   2.781   4.294  11.887  0.7788  1.1354 -1.3622
 7316TIP3   OH243438   1.893   4.459   2.241 -0.5471  0.0441 -0.4461
 7316TIP3    H143439   1.898   4.482   2.149 -4.4575 -1.6803 -1.2764
 7316TIP3    H243440   1.835   4.524   2.280 -0.6931 -0.5067  0.2913
 7317TIP3   OH243441   6.534   3.336  13.712  0.5505 -0.4626  0.0376
 7317TIP3    H143442   6.509   3.300  13.797 -1.1301 -0.5059 -0.4426
 7317TIP3    H243443   6.564   3.425  13.732  2.9397 -1.4197  0.9937
 7318TIP3   OH243444   6.068   4.156   2.650  0.1705  0.3605  0.0597
 7318TIP3    H143445   5.999   4.197   2.703  0.8533  0.8837  0.5563
 7318TIP3    H243446   6.023   4.130   2.569 -0.4020  1.6272 -0.0623
 7319TIP3   OH243447   0.024   1.257  13.742  0.1100  0.4901 -0.2611
 7319TIP3    H143448   0.036   1.250  13.647  1.2317  0.9703 -0.1792
 7319TIP3    H243449   0.083   1.328  13.768 -0.2777  0.4494  0.7783
 7320TIP3   OH243450   5.182   5.714  15.407  0.0246  0.1679 -0.1001
 7320TIP3    H143451   5.109   5.704  15.345 -0.8681 -1.2235  1.1105
 7320TIP3    H243452   5.155   5.786  15.464 -0.8480 -0.9066  0.8872
 7321TIP3   OH243453   1.008   3.665  11.864 -0.4523  0.2850  0.1283
 7321TIP3    H143454   0.991   3.625  11.949 -0.7318 -0.7079 -0.3682
 7321TIP3    H243455   0.986   3.757  11.875 -1.7947 -0.0881  0.7572
 7322TIP3   OH243456   1.766   5.570   1.884  0.0101  0.4233  0.1536
 7322TIP3    H143457   1.815   5.506   1.936  0.1437 -0.6783 -1.2692
 7322TIP3    H243458   1.831   5.634   1.856  0.0401  0.7039  0.8420
 7323TIP3   OH243459   0.865   3.733  16.807  0.3932  0.4104  0.2529
 7323TIP3    H143460   0.926   3.773  16.870  0.4079  0.5893  0.1276
 7323TIP3    H243461   0.921   3.705  16.734  0.2557  1.1457 -0.1464
 7324TIP3   OH243462   2.980   2.432  11.173  0.8883  0.3575 -0.0865
 7324TIP3    H143463   2.998   2.424  11.266 -1.9783 -0.3415  0.4998
 7324TIP3    H243464   2.997   2.345  11.137 -0.2029 -0.0187  0.2669
 7325TIP3   OH243465   4.012   3.714  16.423  0.2933  0.8821 -0.1376
 7325TIP3    H143466   4.031   3.762  16.504 -0.7577  0.9369  0.0906
 7325TIP3    H243467   4.066   3.756  16.356  0.1195  1.7471  0.2553
 7326TIP3   OH243468   1.490   3.808   2.870  0.0215 -0.3511  0.2116
 7326TIP3    H143469   1.506   3.816   2.964 -0.3836  0.4765  0.2196
 7326TIP3    H243470   1.403   3.845   2.857 -0.5158 -1.7085 -0.3043
 7327TIP3   OH243471   1.889   0.470  11.471  0.2091 -0.6022  0.1874
 7327TIP3    H143472   1.844   0.432  11.396 -0.5766  0.2147  0.2348
 7327TIP3    H243473   1.865   0.412  11.544 -0.4589 -0.3955  0.1393
 7328TIP3   OH243474   5.093   5.110   2.851  0.4903 -0.1020 -0.2396
 7328TIP3    H143475   5.133   5.030   2.817 -1.2175 -1.3052  0.4194
 7328TIP3    H243476   5.020   5.078   2.904  0.3558  1.8818  0.8293
 7329TIP3   OH243477   0.536   1.684   0.759  0.4096 -0.0586 -0.3372
 7329TIP3    H143478   0.446   1.657   0.776  0.2907  1.1290  1.0906
 7329TIP3    H243479   0.589   1.610   0.787 -0.0410  0.0266  0.7766
 7330TIP3   OH243480   2.691   5.497   0.958 -0.4794  0.7539  0.0641
 7330TIP3    H143481   2.757   5.491   1.027  2.0010  2.5888 -1.9449
 7330TIP3    H243482   2.628   5.561   0.991 -1.1458 -0.7369  1.8583
 7331TIP3   OH243483   2.539   4.828   2.711 -0.5166 -0.9279  0.2607
 7331TIP3    H143484   2.598   4.904   2.707 -0.3225 -1.0884 -0.0168
 7331TIP3    H243485   2.595   4.756   2.741 -0.3972 -1.2413 -0.6755
 7332TIP3   OH243486   3.665   2.366  14.151 -0.1945  0.3741 -0.4319
 7332TIP3    H143487   3.703   2.453  14.164 -0.4793  0.5682 -0.8691
 7332TIP3    H243488   3.728   2.321  14.095  0.5732 -0.1421  0.8133
 7333TIP3   OH243489   4.327   1.498  15.660 -0.1543 -0.1984  0.1622
 7333TIP3    H143490   4.348   1.537  15.575  3.0943 -0.5853  0.6238
 7333TIP3    H243491   4.410   1.501  15.708 -2.0254  0.6467  3.6351
 7334TIP3   OH243492   4.366   5.542  16.724  0.0533 -0.2227 -0.3947
 7334TIP3    H143493   4.352   5.498  16.808 -1.1230 -0.8097 -0.8700
 7334TIP3    H243494   4.455   5.520  16.700  0.3179 -0.2616  0.5724
 7335TIP3   OH243495   2.230   0.626  15.566 -0.2320 -0.6890 -0.0269
 7335TIP3    H143496   2.321   0.635  15.539 -0.3353 -0.1007 -0.1890
 7335TIP3    H243497   2.219   0.690  15.636 -0.0459 -1.9874  1.2436
 7336TIP3   OH243498   3.172   5.508   4.605  0.1386  0.2903  0.2090
 7336TIP3    H143499   3.181   5.430   4.660 -0.0565 -0.8361 -1.2930
 7336TIP3    H243500   3.091   5.549   4.635 -0.2728 -0.6249  0.3919
 7337TIP3   OH243501   6.695   4.332  14.501 -0.5480  0.3277  0.2716
 7337TIP3    H143502   6.785   4.308  14.480 -0.2587  2.6932 -1.6726
 7337TIP3    H243503   6.683   4.304  14.592  1.5220 -1.6353  0.0195
 7338TIP3   OH243504   5.886   3.214   1.794  0.7618 -0.1937 -0.4978
 7338TIP3    H143505   5.863   3.307   1.793  2.2569  0.2804  1.6728
 7338TIP3    H243506   5.948   3.203   1.721 -1.1760 -0.0772 -2.2517
 7339TIP3   OH243507   6.153   2.728   4.128  0.0961  0.0556  0.5132
 7339TIP3    H143508   6.068   2.738   4.171 -0.3992 -0.3519 -0.3674
 7339TIP3    H243509   6.138   2.667   4.057  0.7718  1.1367 -0.6084
 7340TIP3   OH243510   3.380   4.919   2.135 -0.1111  0.2545 -0.1358
 7340TIP3    H143511   3.304   4.912   2.193 -0.9012 -0.1797 -1.2025
 7340TIP3    H243512   3.441   4.976   2.183 -1.8586  2.1393 -0.0415
 7341TIP3   OH243513   2.635   2.822  14.330 -0.0477 -0.7362 -0.0834
 7341TIP3    H143514   2.696   2.775  14.274 -0.4365 -0.6827 -0.5520
 7341TIP3    H243515   2.576   2.754  14.363 -0.6111 -0.5844 -0.7624
 7342TIP3   OH243516   5.936   2.380  15.352  0.3723  0.6894 -0.8500
 7342TIP3    H143517   5.903   2.320  15.285 -0.0974  0.1539 -0.1490
 7342TIP3    H243518   5.863   2.390  15.413  0.6124  1.5936 -0.6911
 7343TIP3   OH243519   0.892   2.944   1.597  0.5468 -0.3982 -0.3952
 7343TIP3    H143520   0.940   2.993   1.531 -1.9583  1.1522 -1.2096
 7343TIP3    H243521   0.832   2.888   1.547 -0.4538 -0.1792  0.5064
 7344TIP3   OH243522   4.644   0.961  14.926 -0.3945  0.0182  0.0085
 7344TIP3    H143523   4.582   0.992  14.992 -0.8306  1.4371 -1.0018
 7344TIP3    H243524   4.648   1.033  14.862  0.2055 -1.1893 -1.3668
 7345TIP3   OH243525   5.169   2.542   3.682 -0.0835  0.1295 -0.1957
 7345TIP3    H143526   5.113   2.505   3.614 -1.6826  1.1578  0.4905
 7345TIP3    H243527   5.141   2.498   3.762  1.5993 -0.8765 -0.1059
 7346TIP3   OH243528   4.909   4.038  11.015  0.1234 -0.6498 -0.2699
 7346TIP3    H143529   4.991   4.088  11.015  0.6624 -1.4992  0.8670
 7346TIP3    H243530   4.884   4.033  10.922  0.3300  1.2509 -0.4705
 7347TIP3   OH243531   0.916   2.061   3.198 -0.1157 -0.7245 -0.1219
 7347TIP3    H143532   0.942   2.033   3.286 -1.0604  1.2219  0.8352
 7347TIP3    H243533   0.901   1.979   3.150  0.0608 -1.8299  1.6243
 7348TIP3   OH243534   2.159   5.985  14.733 -0.0895  0.2932 -0.0060
 7348TIP3    H143535   2.167   5.896  14.698  1.4855  1.2010 -2.1414
 7348TIP3    H243536   2.245   6.024  14.721 -1.2048  2.7213 -0.8723
 7349TIP3   OH243537   3.098   2.771  14.574 -0.0779 -0.3249 -0.1826
 7349TIP3    H143538   3.103   2.691  14.627  0.0434  0.0057  0.3121
 7349TIP3    H243539   3.030   2.753  14.509 -1.0136 -0.3267  0.7831
 7350TIP3   OH243540   2.844   1.377   3.442 -0.4674  0.1906  0.2529
 7350TIP3    H143541   2.908   1.442   3.413  0.5767 -0.4379  1.0823
 7350TIP3    H243542   2.879   1.344   3.524 -0.8885 -1.5294 -0.2190
 7351TIP3   OH243543   5.003   1.288  13.114 -0.0375 -0.5144 -0.3250
 7351TIP3    H143544   4.953   1.340  13.177  0.7006 -0.1426 -0.0300
 7351TIP3    H243545   4.938   1.260  13.049 -1.0259 -1.7785  1.1276
 7352TIP3   OH243546   6.254   2.477  11.735  0.0245 -0.2999  0.0104
 7352TIP3    H143547   6.174   2.516  11.701  1.0370  2.3380  0.3494
 7352TIP3    H243548   6.319   2.489  11.665  0.6522 -0.3288  0.5743
 7353TIP3   OH243549   6.284   0.907  11.753 -0.3104  0.0827 -0.3264
 7353TIP3    H143550   6.361   0.873  11.798  0.1380 -1.0288 -1.8467
 7353TIP3    H243551   6.320   0.957  11.680 -1.0257  1.2575  0.1019
 7354TIP3   OH243552   4.785   0.707  11.575 -0.7276  0.3982  0.4236
 7354TIP3    H143553   4.795   0.785  11.629 -3.1946  1.0066  0.1161
 7354TIP3    H243554   4.728   0.735  11.503 -1.0753 -1.4984 -0.0866
 7355TIP3   OH243555   2.648   5.623   4.279 -0.1625  0.0753  0.4902
 7355TIP3    H143556   2.585   5.642   4.210 -1.3881 -0.9371  1.2777
 7355TIP3    H243557   2.682   5.709   4.305 -1.3852  0.6726  0.1890
 7356TIP3   OH243558   4.669   0.986  16.537 -0.4179  0.2500  0.0706
 7356TIP3    H143559   4.724   0.917  16.500 -0.6917 -0.2146  0.5218
 7356TIP3    H243560   4.676   1.058  16.474 -0.8061 -0.4871 -0.8395
 7357TIP3   OH243561   6.813   2.473   3.968 -0.7332 -0.3174 -0.1134
 7357TIP3    H143562   6.838   2.400   4.025  0.5255  1.4564  1.7272
 7357TIP3    H243563   6.766   2.534   4.026  0.6463  1.5768 -0.8808
 7358TIP3   OH243564   6.767   6.711   2.805  0.2391 -0.0125 -0.0373
 7358TIP3    H143565   6.672   6.699   2.802  0.2975 -0.9969  1.4160
 7358TIP3    H243566   6.803   6.626   2.782  0.7276 -0.2748  1.5621
 7359TIP3   OH243567   1.777   6.612   3.119 -0.2866 -0.2445  0.5415
 7359TIP3    H143568   1.794   6.629   3.212 -1.9082  0.0730  0.8086
 7359TIP3    H243569   1.856   6.641   3.075 -0.3801  1.8194  1.6104
 7360TIP3   OH243570   4.951   1.987   4.530 -0.4452 -0.1891 -0.3177
 7360TIP3    H143571   5.019   1.971   4.596 -0.3238  0.8426 -0.1734
 7360TIP3    H243572   4.902   1.905   4.526  1.3925 -1.3166 -1.1407
 7361TIP3   OH243573   0.277   2.515  16.440  0.4810  0.5785  0.2023
 7361TIP3    H143574   0.368   2.523  16.411  0.1764  0.7976 -0.7095
 7361TIP3    H243575   0.239   2.449  16.382 -0.0934  0.8969  0.2098
 7362TIP3   OH243576   2.483   1.407   4.127  0.1213 -0.2019 -0.2172
 7362TIP3    H143577   2.451   1.403   4.217  3.3506  0.9805  1.1390
 7362TIP3    H243578   2.408   1.380   4.073 -2.7230  1.3943  2.6056
 7363TIP3   OH243579   2.430   0.492  15.431  0.1277  0.4959  0.4323
 7363TIP3    H143580   2.348   0.502  15.382 -0.1458 -0.7793  0.5889
 7363TIP3    H243581   2.499   0.494  15.364 -0.3447 -3.1161 -0.3800
 7364TIP3   OH243582   0.139   2.649  14.749  0.5274  0.4579 -0.0890
 7364TIP3    H143583   0.101   2.677  14.832  1.0073 -1.0234  0.6671
 7364TIP3    H243584   0.203   2.582  14.773  0.5437 -0.1434 -1.6793
 7365TIP3   OH243585   1.831   2.549  12.547 -0.2220 -0.3033 -0.7335
 7365TIP3    H143586   1.925   2.566  12.552 -0.6298  2.0739 -0.1231
 7365TIP3    H243587   1.815   2.486  12.618  0.8377 -0.4608 -0.6111
 7366TIP3   OH243588   6.388   0.982  15.543  0.5696  0.3257  0.4517
 7366TIP3    H143589   6.445   0.979  15.466  1.9520  2.4441  1.2964
 7366TIP3    H243590   6.351   1.071  15.541 -0.9666 -0.2741  1.1472
 7367TIP3   OH243591   3.272   5.612   0.014  0.1754  0.5123 -0.2100
 7367TIP3    H143592   3.290   5.657   0.097  2.0693 -0.0755 -0.2635
 7367TIP3    H243593   3.270   5.519   0.036 -0.6662  0.4221 -0.6174
 7368TIP3   OH243594   1.859   5.361   0.183 -0.1915 -0.6205  0.5536
 7368TIP3    H143595   1.879   5.402   0.099 -0.8611 -1.3969 -0.0095
 7368TIP3    H243596   1.798   5.421   0.226  1.2536  0.4842  1.1432
 7369TIP3   OH243597   5.049   1.792  11.923 -0.1354  0.5213 -0.4551
 7369TIP3    H143598   5.125   1.779  11.979  0.6304 -1.2763 -1.8052
 7369TIP3    H243599   5.047   1.714  11.868 -1.9182  1.3727 -1.6743
 7370TIP3   OH243600   3.995   0.421  10.644  0.5927 -0.3212  0.1236
 7370TIP3    H143601   3.908   0.406  10.681  0.4824 -1.1181 -0.4352
 7370TIP3    H243602   4.056   0.404  10.717  0.4474 -2.9832 -0.2806
 7371TIP3   OH243603   0.768   5.190   1.915 -0.2620  0.0288 -0.0038
 7371TIP3    H143604   0.760   5.268   1.860  0.0241 -1.8410 -2.8680
 7371TIP3    H243605   0.855   5.156   1.896 -0.6292 -1.3620  0.7059
 7372TIP3   OH243606   2.309   2.376   4.446  0.3348 -0.0172 -0.3791
 7372TIP3    H143607   2.274   2.435   4.513 -0.1538 -0.5581 -0.1464
 7372TIP3    H243608   2.339   2.434   4.376 -0.7502  0.4853 -0.4464
 7373TIP3   OH243609   6.529   1.717  15.323  0.1024 -0.3973  0.0610
 7373TIP3    H143610   6.478   1.651  15.369 -0.4411 -0.1070 -0.1032
 7373TIP3    H243611   6.480   1.799  15.337 -1.1893 -0.5841 -2.6065
 7374TIP3   OH243612   2.255   4.847   4.047  0.3716 -1.1136 -0.8451
 7374TIP3    H143613   2.197   4.911   4.005 -2.1960 -2.7165  0.0445
 7374TIP3    H243614   2.342   4.872   4.017 -0.7734  1.1158 -2.7174
 7375TIP3   OH243615   0.706   6.158  16.019 -0.1474 -0.1808 -0.1400
 7375TIP3    H143616   0.663   6.156  16.104  0.1146 -2.6996 -0.0113
 7375TIP3    H243617   0.643   6.119  15.958  0.0024  0.8075 -0.9598
 7376TIP3   OH243618   4.511   5.167  15.018 -0.1145 -0.0749 -0.1498
 7376TIP3    H143619   4.518   5.253  14.976  2.1457 -0.3857 -0.5478
 7376TIP3    H243620   4.544   5.182  15.107  2.0575 -0.7996 -0.7528
 7377TIP3   OH243621   5.702   4.079  10.674  0.2438 -0.1556 -0.5932
 7377TIP3    H143622   5.796   4.065  10.673  0.6764  2.2939  0.0429
 7377TIP3    H243623   5.688   4.146  10.742 -2.0348 -0.9335 -0.1886
 7378TIP3   OH243624   2.072   4.389   3.777  0.1517  0.1096 -0.5345
 7378TIP3    H143625   2.113   4.473   3.798 -1.0308  1.2407 -2.4671
 7378TIP3    H243626   2.144   4.327   3.775  1.3014  1.3995 -0.6552
 7379TIP3   OH243627   0.526   0.850  11.942  0.3490  0.2085  0.3412
 7379TIP3    H143628   0.535   0.808  11.857 -0.7381  1.3133 -0.3573
 7379TIP3    H243629   0.525   0.778  12.005 -1.2031 -0.8338 -0.8030
 7380TIP3   OH243630   4.741   6.109  13.187 -0.3446 -0.9071 -0.0572
 7380TIP3    H143631   4.758   6.042  13.121 -0.0686 -2.1491  1.2214
 7380TIP3    H243632   4.745   6.191  13.140  1.8526 -1.6264 -1.2247
 7381TIP3   OH243633   0.851   4.402   0.943 -0.2114 -0.7851 -0.0560
 7381TIP3    H143634   0.834   4.473   0.881  0.2293  1.8571  2.6297
 7381TIP3    H243635   0.925   4.354   0.906  0.3840  1.0248 -1.3251
 7382TIP3   OH243636   1.530   6.765  16.885  0.2578 -0.8496 -0.3831
 7382TIP3    H143637   1.539   6.804  16.972  0.9208  0.0608 -0.8460
 7382TIP3    H243638   1.437   6.778  16.863  0.6943  1.7522 -1.0683
 7383TIP3   OH243639   3.536   2.992   3.695 -0.0348  0.6705  0.2670
 7383TIP3    H143640   3.628   3.017   3.692  0.1470 -0.0313 -0.7018
 7383TIP3    H243641   3.518   2.958   3.607 -0.5784 -1.3987  1.1114
 7384TIP3   OH243642   3.476   5.303  16.337  0.1723 -0.2037  0.1129
 7384TIP3    H143643   3.439   5.251  16.409  0.1210  1.4525  1.3260
 7384TIP3    H243644   3.407   5.365  16.315  0.6725  0.1441 -0.4988
 7385TIP3   OH243645   5.834   2.465   1.125  0.6751  0.1508 -0.1996
 7385TIP3    H143646   5.895   2.445   1.196 -0.5792  0.6351  1.0469
 7385TIP3    H243647   5.763   2.401   1.134 -1.2246  2.3109  1.1884
 7386TIP3   OH243648   6.225   3.861  16.308 -0.3804  0.4083  0.2438
 7386TIP3    H143649   6.302   3.809  16.284 -0.0989  1.0693 -0.3052
 7386TIP3    H243650   6.169   3.861  16.230 -0.8606  0.0744  0.5805
 7387TIP3   OH243651   2.075   6.670  12.217 -0.1849  0.5373 -0.0460
 7387TIP3    H143652   2.165   6.703  12.221  0.1120 -0.3408  1.5847
 7387TIP3    H243653   2.070   6.623  12.134  1.2971 -0.5524  0.4301
 7388TIP3   OH243654   1.657   5.796  14.083 -0.5228  0.2056 -0.1575
 7388TIP3    H143655   1.566   5.800  14.114 -0.4431  0.1563  0.0826
 7388TIP3    H243656   1.708   5.835  14.153 -0.2280 -0.8246  0.2260
 7389TIP3   OH243657   0.183   0.094  15.573 -0.5116 -0.7905 -0.2049
 7389TIP3    H143658   0.145   0.157  15.512 -2.1178 -0.6494  0.8756
 7389TIP3    H243659   0.108   0.049  15.611  0.2555  0.2021  2.7630
 7390TIP3   OH243660   5.175   3.497   0.909  0.0523 -0.3881 -0.3244
 7390TIP3    H143661   5.080   3.492   0.923 -0.1326 -1.3377 -1.7177
 7390TIP3    H243662   5.193   3.590   0.902 -0.5969 -0.1368  0.9926
 7391TIP3   OH243663   3.309   2.994  14.618  0.4668 -0.3883 -0.0685
 7391TIP3    H143664   3.305   2.997  14.714 -1.9729 -1.3363 -0.0706
 7391TIP3    H243665   3.222   2.963  14.591  0.3212  1.9305 -2.7006
 7392TIP3   OH243666   5.165   3.615  15.586  0.0564 -0.1942 -0.6001
 7392TIP3    H143667   5.176   3.554  15.513  0.2907 -2.5155  1.2461
 7392TIP3    H243668   5.207   3.696  15.556  0.0159 -0.9998 -3.0563
 7393TIP3   OH243669   0.119   1.629  17.163 -0.7168  0.2331 -0.3459
 7393TIP3    H143670   0.086   1.568  17.097 -3.4731 -0.6691  1.7020
 7393TIP3    H243671   0.155   1.572  17.232  0.5491  1.1065 -0.2472
 7394TIP3   OH243672   2.479   3.047   5.485  0.1422 -0.3291 -0.1005
 7394TIP3    H143673   2.490   2.959   5.523 -1.0506  0.5033  2.3860
 7394TIP3    H243674   2.557   3.095   5.514  1.7538 -0.9572 -3.0183
 7395TIP3   OH243675   1.047   3.759  15.459  0.2775 -0.3502 -0.0776
 7395TIP3    H143676   0.980   3.714  15.510 -2.4999 -1.2171 -4.0387
 7395TIP3    H243677   1.110   3.691  15.436  0.2099 -0.5053  0.2045
 7396TIP3   OH243678   1.773   1.587   1.410  0.4760 -0.6674 -0.0254
 7396TIP3    H143679   1.839   1.536   1.362  0.9140 -1.8776  1.7608
 7396TIP3    H243680   1.771   1.547   1.497 -1.2370  0.6018  0.5644
 7397TIP3   OH243681   3.084   3.080  11.151 -0.2154  0.7764 -0.3835
 7397TIP3    H143682   3.135   3.001  11.169  0.0963  0.5622 -2.0180
 7397TIP3    H243683   3.139   3.151  11.181 -0.9636  0.3990  2.1576
 7398TIP3   OH243684   5.275   2.923   4.662 -0.2995 -0.0740  0.1946
 7398TIP3    H143685   5.282   3.003   4.611  0.5552 -0.0940  0.2727
 7398TIP3    H243686   5.302   2.948   4.750  1.3853 -0.7575 -0.1036
 7399TIP3   OH243687   3.790   5.674   5.604 -0.0791 -0.2141 -0.6294
 7399TIP3    H143688   3.857   5.615   5.640  0.1320  1.9115  3.0510
 7399TIP3    H243689   3.707   5.633   5.628  0.0406  0.0174  0.2244
 7400TIP3   OH243690   5.420   0.733  17.084 -0.2411  0.0585 -0.2174
 7400TIP3    H143691   5.402   0.800  17.150 -0.7977  0.0081 -0.3150
 7400TIP3    H243692   5.475   0.669  17.130  0.4726  0.6813 -0.1845
 7401TIP3   OH243693   3.547   2.690   4.878  0.1601 -0.2909  0.0443
 7401TIP3    H143694   3.565   2.608   4.923  1.0559 -0.5225 -0.7171
 7401TIP3    H243695   3.452   2.689   4.862 -0.0801 -0.4651  1.3745
 7402TIP3   OH243696   0.321   0.550   5.741  0.1464 -0.1229 -0.8442
 7402TIP3    H143697   0.348   0.546   5.832  1.9875  1.6532 -1.2400
 7402TIP3    H243698   0.232   0.516   5.741 -0.2951  0.8062  1.7782
 7403TIP3   OH243699   2.299   1.274   3.035  0.1759 -0.7688  0.0726
 7403TIP3    H143700   2.364   1.290   2.966 -1.2533  0.0583 -1.1304
 7403TIP3    H243701   2.245   1.203   3.001 -1.8793  1.0655 -0.7104
 7404TIP3   OH243702   5.240   4.203  12.183  0.3381 -0.5347  0.6221
 7404TIP3    H143703   5.202   4.185  12.097 -1.3416  3.3052  0.3704
 7404TIP3    H243704   5.173   4.176  12.246 -0.8901  1.7311  0.3790
 7405TIP3   OH243705   0.215   5.137   1.060  0.4674 -0.0966  0.3051
 7405TIP3    H143706   0.160   5.160   0.985  1.2187 -0.0212 -0.2352
 7405TIP3    H243707   0.168   5.172   1.136 -0.3875 -0.3249 -0.1102
 7406TIP3   OH243708   3.587   2.963  17.239 -0.1430 -0.1175 -0.3474
 7406TIP3    H143709   3.574   2.871  17.264 -2.5762 -0.5140 -2.6780
 7406TIP3    H243710   3.676   2.966  17.204  0.4829 -1.2168  1.0425
 7407TIP3   OH243711   3.051   6.356   1.098 -0.2896  0.3564  0.4048
 7407TIP3    H143712   3.094   6.401   1.170  0.5982 -0.8358  0.6618
 7407TIP3    H243713   3.085   6.398   1.019 -0.4304  0.9388  0.6485
 7408TIP3   OH243714   0.745   0.248   4.006 -0.8493 -0.9412 -0.5224
 7408TIP3    H143715   0.825   0.215   3.964  0.5816  1.3482  0.1804
 7408TIP3    H243716   0.743   0.340   3.983 -2.2043 -0.5130  1.1293
 7409TIP3   OH243717   1.602   3.789   1.144  0.4359  0.0785  0.0519
 7409TIP3    H143718   1.557   3.839   1.212  0.9053 -1.4002  1.5403
 7409TIP3    H243719   1.532   3.749   1.093  0.0785  1.2396 -0.4016
 7410TIP3   OH243720   2.469   5.969   5.719  0.2511  0.0235  0.1751
 7410TIP3    H143721   2.564   5.958   5.717  0.2496 -0.0798  0.6289
 7410TIP3    H243722   2.456   6.064   5.719  0.3810  0.0515  1.0838
 7411TIP3   OH243723   0.468   6.402   1.713 -0.0004  0.5012 -0.1306
 7411TIP3    H143724   0.531   6.330   1.719 -0.3941  0.1944  0.5435
 7411TIP3    H243725   0.396   6.367   1.661 -0.5630  0.1018  0.8762
 7412TIP3   OH243726   6.569   5.658  13.731  0.2233  0.6416 -0.5042
 7412TIP3    H143727   6.570   5.586  13.794  2.8979  1.1653  0.1978
 7412TIP3    H243728   6.516   5.726  13.773  0.4932  0.3247  0.3711
 7413TIP3   OH243729   5.956   4.608  12.982  0.3072  0.1619 -0.1776
 7413TIP3    H143730   5.983   4.675  12.919  0.4862 -2.1509 -2.7644
 7413TIP3    H243731   6.002   4.529  12.954 -0.1518 -1.1783  2.5135
 7414TIP3   OH243732   1.648   3.482  15.264 -0.1024 -0.9162  0.1152
 7414TIP3    H143733   1.634   3.508  15.355 -0.8471 -0.6553 -0.0694
 7414TIP3    H243734   1.645   3.386  15.266 -0.6705 -0.8935  0.2740
 7415TIP3   OH243735   6.030   2.562   4.786 -0.0655  0.6217 -0.8944
 7415TIP3    H143736   5.966   2.622   4.746 -0.1129 -0.0960 -1.9439
 7415TIP3    H243737   5.999   2.549   4.875 -0.9572  0.8855 -1.1566
 7416TIP3   OH243738   2.338   5.019  11.650 -0.3897 -0.1317  0.4599
 7416TIP3    H143739   2.270   5.049  11.590 -0.5729  0.0493  0.7575
 7416TIP3    H243740   2.409   5.082  11.640 -0.7210  0.3295  0.9865
 7417TIP3   OH243741   1.045   2.216  13.242 -0.3698  0.4360  0.1240
 7417TIP3    H143742   1.096   2.137  13.226  0.9569  1.3999 -0.6628
 7417TIP3    H243743   0.982   2.219  13.170 -1.5316 -0.7011  1.0387
 7418TIP3   OH243744   2.902   6.452  13.977 -0.3086 -0.2252  0.4938
 7418TIP3    H143745   2.954   6.390  13.925  0.7702  1.3720 -0.4287
 7418TIP3    H243746   2.952   6.534  13.973 -2.4560  1.1539  0.3426
 7419TIP3   OH243747   4.893   2.719  13.402  0.1041 -0.0173  0.1005
 7419TIP3    H143748   4.881   2.737  13.495  1.5956  0.4669  0.2226
 7419TIP3    H243749   4.838   2.642  13.386 -0.5563  0.1795  1.2536
 7420TIP3   OH243750   1.278   4.384   1.205 -0.0816  0.3963  0.3503
 7420TIP3    H143751   1.231   4.455   1.159 -1.4512 -2.0401 -2.3300
 7420TIP3    H243752   1.370   4.399   1.182 -0.3657  1.1963 -0.3540
 7421TIP3   OH243753   6.475   2.676  16.271  0.0631 -0.1635 -0.1975
 7421TIP3    H143754   6.419   2.750  16.247  0.2804 -0.2250 -0.9138
 7421TIP3    H243755   6.554   2.717  16.306  0.2516 -0.0423 -0.7458
 7422TIP3   OH243756   5.303   0.855  12.097  0.0099  0.2193  0.3414
 7422TIP3    H143757   5.328   0.783  12.155 -0.4318 -0.2772 -0.0702
 7422TIP3    H243758   5.358   0.928  12.124  3.2545 -1.2723 -1.7118
 7423TIP3   OH243759   1.304   1.850  16.210  0.3398 -0.3745  0.4700
 7423TIP3    H143760   1.210   1.843  16.225  0.0847 -0.5376 -1.0788
 7423TIP3    H243761   1.336   1.760  16.212 -0.2760 -0.8354 -3.1213
 7424TIP3   OH243762   6.274   6.071  10.903 -0.6042  0.1273  0.0748
 7424TIP3    H143763   6.354   6.103  10.944 -0.9390  1.0631  0.0233
 7424TIP3    H243764   6.303   6.010  10.835 -0.0391 -1.8532  1.9814
 7425TIP3   OH243765   2.160   0.969  11.418 -0.3406 -0.5316 -0.2516
 7425TIP3    H143766   2.244   1.002  11.386  0.4412 -0.3530  1.8301
 7425TIP3    H243767   2.110   1.048  11.438 -0.4733 -0.6329 -0.1894
 7426TIP3   OH243768   3.895   4.178   5.656 -0.2483 -0.3212  0.0505
 7426TIP3    H143769   3.984   4.146   5.642  0.4923  0.5928  2.2346
 7426TIP3    H243770   3.897   4.215   5.745 -2.3508  1.2575 -0.4929
 7427TIP3   OH243771   5.417   3.622   3.976  0.0114  0.0553 -0.2658
 7427TIP3    H143772   5.441   3.611   4.068 -1.5267 -0.6603  0.0796
 7427TIP3    H243773   5.340   3.568   3.964  0.7953 -0.7269 -2.2844
 7428TIP3   OH243774   4.302   0.103  16.235  0.2318  0.5530  0.1891
 7428TIP3    H143775   4.225   0.145  16.272 -1.2177 -1.0035 -0.8918
 7428TIP3    H243776   4.373   0.165  16.249 -1.1123  1.8284  1.6573
 7429TIP3   OH243777   4.184   2.182  14.505 -0.0827  0.2905 -0.8111
 7429TIP3    H143778   4.233   2.171  14.586 -0.6149  0.1335 -0.5032
 7429TIP3    H243779   4.238   2.141  14.438  0.1758  0.0640 -0.4653
 7430TIP3   OH243780   6.248   4.424   1.940  0.4269  0.0235 -0.1309
 7430TIP3    H143781   6.299   4.343   1.942  0.3535 -0.0599 -1.0726
 7430TIP3    H243782   6.313   4.493   1.934  0.5232  0.0992  1.5184
 7431TIP3   OH243783   3.006   6.264   5.352 -0.0739 -0.3224  0.6725
 7431TIP3    H143784   3.020   6.358   5.348 -2.0167 -0.0167 -1.0518
 7431TIP3    H243785   3.086   6.226   5.317  0.1827  0.7926  0.0051
 7432TIP3   OH243786   0.349   1.010  14.598  0.5004 -0.2995  0.5418
 7432TIP3    H143787   0.348   0.915  14.589  1.7542 -0.2459 -0.4596
 7432TIP3    H243788   0.311   1.042  14.516  0.7070  0.0663  0.5880
 7433TIP3   OH243789   3.826   6.588  13.385 -0.0144 -0.4205 -0.1549
 7433TIP3    H143790   3.791   6.533  13.315 -0.9745 -1.1578  0.8796
 7433TIP3    H243791   3.821   6.677  13.349 -2.6701 -0.5143 -0.2072
 7434TIP3   OH243792   0.777   4.391   3.544 -0.0051  0.3235  0.7162
 7434TIP3    H143793   0.855   4.421   3.591  0.2832 -2.2135  2.0213
 7434TIP3    H243794   0.722   4.352   3.612 -1.0559 -0.5732 -0.6141
 7435TIP3   OH243795   6.342   4.444  16.680 -0.0801 -0.0969  0.2874
 7435TIP3    H143796   6.259   4.419  16.720 -0.3228  1.1727  0.6193
 7435TIP3    H243797   6.378   4.509  16.740  1.4723 -1.0816  0.4883
 7436TIP3   OH243798   5.266   2.586   1.922 -0.0024 -0.0336  0.3682
 7436TIP3    H143799   5.239   2.677   1.918  0.5058  0.1216  0.3814
 7436TIP3    H243800   5.244   2.550   1.836  0.8711  0.4144 -0.0551
 7437TIP3   OH243801   0.972   3.967  11.948  0.0932 -0.0776  0.3434
 7437TIP3    H143802   0.930   3.965  12.034 -1.3415  0.3208 -0.3091
 7437TIP3    H243803   0.914   4.022  11.895  0.1547 -1.5139 -1.2755
 7438TIP3   OH243804   1.234   2.847  15.525  0.2279 -0.2007 -0.4077
 7438TIP3    H143805   1.272   2.854  15.612  0.2978 -0.3187 -0.4284
 7438TIP3    H243806   1.197   2.758  15.522  0.5218 -0.3204 -0.6147
 7439TIP3   OH243807   5.051   0.577   0.604  0.0816 -0.1546  0.4402
 7439TIP3    H143808   5.028   0.515   0.535  1.5415 -0.5875  0.3078
 7439TIP3    H243809   5.094   0.524   0.670  0.2547  0.5336  0.8924
 7440TIP3   OH243810   6.347   1.358  14.709 -0.7340  0.4582 -0.0574
 7440TIP3    H143811   6.355   1.438  14.760  0.0727 -0.3733  1.1688
 7440TIP3    H243812   6.430   1.312  14.722 -1.7453 -1.3126  0.5951
 7441TIP3   OH243813   5.336   3.467   0.646 -0.2989 -0.2859 -0.2895
 7441TIP3    H143814   5.305   3.462   0.555  1.1347  0.7926 -0.8669
 7441TIP3    H243815   5.307   3.553   0.676  0.6019  0.0120 -0.2614
 7442TIP3   OH243816   6.377   1.087  11.572 -0.5201  0.0448  0.0160
 7442TIP3    H143817   6.367   1.168  11.623 -3.5343 -0.9151  1.1393
 7442TIP3    H243818   6.339   1.107  11.487  0.9771  0.4787 -0.5848
 7443TIP3   OH243819   6.202   3.896  14.707  0.0869 -0.1328  0.5804
 7443TIP3    H143820   6.146   3.962  14.747  0.2174 -0.0024  0.5509
 7443TIP3    H243821   6.205   3.919  14.614  1.1039  0.5496  0.7558
 7444TIP3   OH243822   5.054   6.155   2.880  0.1138  0.5533  0.2395
 7444TIP3    H143823   5.049   6.096   2.804 -1.2312 -0.0437  0.7566
 7444TIP3    H243824   5.019   6.238   2.849  0.5656  0.6246 -0.0800
 7445TIP3   OH243825   6.696   6.223   1.523 -0.4856  0.1881  0.0587
 7445TIP3    H143826   6.689   6.135   1.487  0.4016 -0.6369  1.7991
 7445TIP3    H243827   6.644   6.278   1.463 -2.4729 -1.7733 -0.1402
 7446TIP3   OH243828   5.767   1.365  13.493 -0.0419 -0.0264 -0.4013
 7446TIP3    H143829   5.720   1.392  13.572  0.6950  0.7063 -0.2054
 7446TIP3    H243830   5.748   1.433  13.429 -1.3756 -1.0659 -1.1840
 7447TIP3   OH243831   6.638   4.859  15.398  0.5140  0.0006 -0.1468
 7447TIP3    H143832   6.574   4.879  15.467  0.7815 -0.4727  0.2505
 7447TIP3    H243833   6.643   4.939  15.346 -1.9767 -0.6168 -1.4939
 7448TIP3   OH243834   4.875   5.470   5.707 -0.1440  0.1233 -0.3866
 7448TIP3    H143835   4.932   5.496   5.635 -0.8803 -0.4491 -1.1844
 7448TIP3    H243836   4.823   5.548   5.726 -0.1390  0.1939 -0.6598
 7449TIP3   OH243837   4.243   0.086  14.796 -0.3893 -0.2039 -0.3271
 7449TIP3    H143838   4.212   0.033  14.869  2.1098 -2.1004 -0.5132
 7449TIP3    H243839   4.215   0.036  14.718 -0.6874  0.3877 -0.6029
 7450TIP3   OH243840   5.311   2.685   5.807  0.3162 -0.5422  0.1353
 7450TIP3    H143841   5.381   2.632   5.770 -0.3479 -2.0412  0.9775
 7450TIP3    H243842   5.232   2.657   5.760  0.1418  0.6930 -0.3662
 7451TIP3   OH243843   5.572   4.113  10.417  0.4990  0.4072 -0.5014
 7451TIP3    H143844   5.562   4.159  10.500  1.2887  1.1516 -0.7972
 7451TIP3    H243845   5.645   4.053  10.431 -1.3104 -1.7588  0.2781
 7452TIP3   OH243846   3.273   4.012   6.300  0.2340  0.0701 -0.5861
 7452TIP3    H143847   3.195   4.067   6.310 -0.1752 -0.4789 -0.6756
 7452TIP3    H243848   3.318   4.017   6.384 -1.5017 -1.9956  0.5712
 7453TIP3   OH243849   5.735   1.532  13.270  0.2416 -0.1936 -0.5213
 7453TIP3    H143850   5.725   1.499  13.180  0.1695 -1.3725 -0.1057
 7453TIP3    H243851   5.757   1.624  13.259  0.7846 -0.4369 -1.7769
 7454TIP3   OH243852   6.041   5.830   6.735  0.3168 -0.3399 -0.5705
 7454TIP3    H143853   6.069   5.905   6.682 -1.9768 -0.5998 -2.2984
 7454TIP3    H243854   6.115   5.770   6.733  2.3673  1.9449  1.1818
 7455TIP3   OH243855   1.333   5.627  15.702 -0.5086  0.3125  0.1628
 7455TIP3    H143856   1.407   5.585  15.658 -1.6743 -0.5116 -1.1036
 7455TIP3    H243857   1.288   5.676  15.633 -3.7513 -2.9155 -0.3407
 7456TIP3   OH243858   6.097   1.293  11.827  0.3580  0.1380 -0.6522
 7456TIP3    H143859   6.050   1.284  11.744  1.3041  1.3296 -1.3484
 7456TIP3    H243860   6.188   1.272  11.804  0.4501 -0.6075  0.3343
 7457TIP3   OH243861   4.047   5.203   6.303 -0.1211  0.2328 -0.3078
 7457TIP3    H143862   4.041   5.128   6.361  0.8635  0.9147  0.7140
 7457TIP3    H243863   3.963   5.248   6.312 -1.1333 -1.2290 -1.6962
 7458TIP3   OH243864   0.623   6.566  10.380 -0.7203 -0.4596 -0.2572
 7458TIP3    H143865   0.640   6.478  10.414 -1.2001 -0.3790  0.1997
 7458TIP3    H243866   0.588   6.553  10.293  2.2366 -0.6365 -1.5361
 7459TIP3   OH243867   1.250   0.299   1.827 -0.4967 -0.3192  0.1480
 7459TIP3    H143868   1.163   0.304   1.866 -1.2184  0.3099 -1.4638
 7459TIP3    H243869   1.265   0.387   1.790  0.2895 -0.7795 -0.6833
 7460TIP3   OH243870   1.469   5.691   5.162  0.6627 -0.2703  0.3051
 7460TIP3    H143871   1.541   5.717   5.105  1.1014 -2.2075 -0.0943
 7460TIP3    H243872   1.391   5.728   5.120  1.2053  0.1909 -0.3253
 7461TIP3   OH243873   5.513   1.457  10.689 -0.0466  0.6254  0.2114
 7461TIP3    H143874   5.455   1.494  10.755 -2.0357  0.0492 -1.1425
 7461TIP3    H243875   5.459   1.448  10.611  1.5739 -0.9383 -0.8118
 7462TIP3   OH243876   6.512   1.950  14.261  0.4916 -0.1423 -0.0194
 7462TIP3    H143877   6.427   1.958  14.219  0.7516 -1.3262 -0.8304
 7462TIP3    H243878   6.575   1.973  14.193  0.8588 -0.3003  0.2625
 7463TIP3   OH243879   4.504   0.158   1.214  0.2273  0.1450  0.5836
 7463TIP3    H143880   4.589   0.118   1.234  0.3273  0.6053  1.1242
 7463TIP3    H243881   4.523   0.252   1.211  0.0824  0.1500 -1.0499
 7464TIP3   OH243882   2.350   6.739   2.857  0.2881  0.7306 -0.2708
 7464TIP3    H143883   2.442   6.751   2.879  0.4875  2.8584 -1.9323
 7464TIP3    H243884   2.350   6.692   2.773 -0.0907  1.3595 -0.6348
 7465TIP3   OH243885   2.561   1.198   5.570 -0.4676 -0.0342  0.5442
 7465TIP3    H143886   2.548   1.147   5.650 -1.4889  1.2329  1.2238
 7465TIP3    H243887   2.473   1.203   5.531  0.1973 -1.6611 -1.3421
 7466TIP3   OH243888   1.879   0.353   0.686 -0.0252 -0.1842  0.8136
 7466TIP3    H143889   1.787   0.374   0.703  0.2407  0.5483  1.3738
 7466TIP3    H243890   1.923   0.438   0.679  0.3616 -0.4873 -0.9750
 7467TIP3   OH243891   2.228   3.859   5.941 -0.1257  0.0842  0.0049
 7467TIP3    H143892   2.293   3.843   6.010  2.8157  2.3584 -1.9722
 7467TIP3    H243893   2.275   3.911   5.876 -3.0886 -0.8415 -3.1601
 7468TIP3   OH243894   1.274   0.755  12.777  0.1985 -0.2470 -0.6681
 7468TIP3    H143895   1.234   0.674  12.810  2.1286  0.1152  3.2011
 7468TIP3    H243896   1.359   0.728  12.743  1.3125  0.0908  1.6125
 7469TIP3   OH243897   1.140   4.677   3.136 -0.5310 -0.1372 -0.3965
 7469TIP3    H143898   1.167   4.638   3.053 -0.1276 -0.6879 -0.0184
 7469TIP3    H243899   1.073   4.618   3.170 -0.6355  0.0379 -0.2985
 7470TIP3   OH243900   5.261   1.996   0.779  0.0264  0.7111 -0.0830
 7470TIP3    H143901   5.298   2.013   0.866  1.2799  0.4038 -0.5270
 7470TIP3    H243902   5.270   2.079   0.732  2.9608 -0.0795 -1.1343
 7471TIP3   OH243903   4.090   6.576  13.866  0.8369 -0.2946 -0.0977
 7471TIP3    H143904   4.093   6.591  13.772  1.2510  1.0689  0.1015
 7471TIP3    H243905   4.139   6.495  13.879 -2.2746 -2.5454 -1.3650
 7472TIP3   OH243906   4.126   3.138  16.531  0.4837  0.9952  0.2100
 7472TIP3    H143907   4.050   3.122  16.475 -0.5380  4.4054  0.4087
 7472TIP3    H243908   4.181   3.198  16.481  1.0199  1.7810  1.6791
 7473TIP3   OH243909   5.543   6.489   4.262  0.7064 -0.2842  0.2038
 7473TIP3    H143910   5.588   6.549   4.203  0.0818  0.2501  0.2491
 7473TIP3    H243911   5.498   6.428   4.204 -1.3738  1.3151  0.0135
 7474TIP3   OH243912   5.539   6.721  11.354 -0.1579  0.9268  0.5015
 7474TIP3    H143913   5.567   6.635  11.385 -0.6294  1.1059  1.4824
 7474TIP3    H243914   5.621   6.765  11.330  0.3365  1.0138  2.1826
 7475TIP3   OH243915   2.746   2.566  13.390  0.1200  0.1093  0.0017
 7475TIP3    H143916   2.720   2.599  13.476 -0.5152  0.1921 -0.2168
 7475TIP3    H243917   2.688   2.612  13.328 -0.3158 -0.9029 -0.3640
 7476TIP3   OH243918   3.039   3.668  15.616 -0.0950 -0.3838 -0.4763
 7476TIP3    H143919   3.002   3.676  15.704  0.6960  2.1700 -0.2889
 7476TIP3    H243920   2.988   3.730  15.563 -0.6935 -2.0237 -1.9103
 7477TIP3   OH243921   4.680   1.757  16.971 -0.6254  0.6901  0.5107
 7477TIP3    H143922   4.766   1.735  16.934 -0.8513  1.7335 -0.7237
 7477TIP3    H243923   4.670   1.697  17.045 -0.0636 -1.4595 -1.0227
 7478TIP3   OH243924   2.507   2.572  14.425  0.2803 -0.2750  0.2466
 7478TIP3    H143925   2.524   2.483  14.395  0.8712 -0.0768 -0.0071
 7478TIP3    H243926   2.411   2.578  14.429  0.1399 -0.1666 -2.0481
 7479TIP3   OH243927   6.691   5.269   2.754 -0.4107 -0.1565  0.4072
 7479TIP3    H143928   6.602   5.294   2.727 -0.1064  0.7011  0.1557
 7479TIP3    H243929   6.727   5.348   2.794  0.6566 -0.1241 -0.5783
 7480TIP3   OH243930   1.124   3.631   6.550  0.7749  0.0332 -0.0279
 7480TIP3    H143931   1.159   3.564   6.492 -0.9513 -0.5834 -0.4122
 7480TIP3    H243932   1.056   3.587   6.600  1.0728  0.9833  1.2822
 7481TIP3   OH243933   3.344   1.874   5.218  0.0495 -0.2206  0.3999
 7481TIP3    H143934   3.316   1.901   5.130  2.7162  0.8462 -0.2431
 7481TIP3    H243935   3.264   1.872   5.270 -1.2085  2.5371 -1.2015
 7482TIP3   OH243936   1.782   3.744  12.430  0.4710  0.3760  0.3117
 7482TIP3    H143937   1.804   3.754  12.523  1.6690 -1.0435  0.2130
 7482TIP3    H243938   1.844   3.801  12.385  1.2131 -0.4314  0.2863
 7483TIP3   OH243939   5.902   6.330  14.290 -0.0232 -0.6217  1.2557
 7483TIP3    H143940   5.920   6.357  14.200 -1.2027 -1.0530  0.8778
 7483TIP3    H243941   5.959   6.385  14.343 -0.2368  0.5337  0.3190
 7484TIP3   OH243942   1.181   5.685   1.435  0.5095 -0.4056  0.3561
 7484TIP3    H143943   1.135   5.767   1.451 -1.4122 -0.9657 -1.7392
 7484TIP3    H243944   1.258   5.710   1.386  0.2076  0.2013  0.1841
 7485TIP3   OH243945   6.377   3.417  14.843 -0.1932  0.4998 -0.0808
 7485TIP3    H143946   6.470   3.437  14.855 -0.4195  1.6714 -0.1773
 7485TIP3    H243947   6.334   3.458  14.919 -0.4873 -1.3443  0.8049
 7486TIP3   OH243948   4.986   6.769  13.802  0.3297  0.3483 -0.0437
 7486TIP3    H143949   4.978   6.759  13.707 -0.7139  1.1279 -0.0682
 7486TIP3    H243950   5.012   6.861  13.814  2.6913 -0.3198  0.3675
 7487TIP3   OH243951   6.118   0.308   5.172  0.7200  0.1149 -0.3711
 7487TIP3    H143952   6.028   0.281   5.153  1.1326 -1.8641  0.3054
 7487TIP3    H243953   6.173   0.243   5.129  1.9513  2.2979 -2.3186
 7488TIP3   OH243954   6.566   1.499  11.500  0.0608  0.0961 -0.3801
 7488TIP3    H143955   6.507   1.503  11.425 -1.2333 -2.0965  0.4350
 7488TIP3    H243956   6.536   1.568  11.559  1.1767  1.9387 -1.8306
 7489TIP3   OH243957   2.500   3.817   3.899 -0.4907 -0.5165  0.1385
 7489TIP3    H143958   2.594   3.818   3.918 -0.2822  1.6289 -0.6938
 7489TIP3    H243959   2.458   3.835   3.983 -0.0089  0.7603  0.1263
 7490TIP3   OH243960   2.711   6.564   5.273 -0.1695  0.1401  0.3804
 7490TIP3    H143961   2.689   6.496   5.209 -3.0299  1.3227 -0.0534
 7490TIP3    H243962   2.805   6.577   5.264  0.3068 -2.9795 -0.2572
 7491TIP3   OH243963   4.349   2.306  14.843 -0.5332  0.1026  0.5375
 7491TIP3    H143964   4.313   2.363  14.910 -0.9059 -1.7648  2.0323
 7491TIP3    H243965   4.281   2.240  14.828 -0.0994 -0.0311 -1.0549
 7492TIP3   OH243966   2.436   1.330   4.411  0.3618  0.5070 -0.6570
 7492TIP3    H143967   2.501   1.290   4.468 -0.7380 -0.5039 -0.0772
 7492TIP3    H243968   2.354   1.324   4.460 -0.1466  1.9751 -1.2703
 7493TIP3   OH243969   6.370   4.829   4.835 -0.1766 -0.0324  0.2455
 7493TIP3    H143970   6.439   4.763   4.843 -0.8205 -0.6531  0.6923
 7493TIP3    H243971   6.402   4.887   4.766  1.2070  0.1994  1.0387
 7494TIP3   OH243972   2.155   6.821   5.514  0.3145  0.3451  0.4645
 7494TIP3    H143973   2.227   6.822   5.577  0.4555  0.0592  0.3104
 7494TIP3    H243974   2.095   6.755   5.547 -0.7646  1.7996  1.5569
 7495TIP3   OH243975   4.969   1.221   1.845 -0.5038 -0.0600  0.0733
 7495TIP3    H143976   4.999   1.244   1.757 -1.7273 -0.3390 -0.4399
 7495TIP3    H243977   5.026   1.150   1.872 -0.0704  0.0676 -0.4816
 7496TIP3   OH243978   6.090   1.180   6.164 -0.2478 -0.0352 -0.6631
 7496TIP3    H143979   6.153   1.227   6.218  0.0207 -1.3840  0.2345
 7496TIP3    H243980   6.010   1.178   6.216  0.3948 -2.5215  0.3742
 7497TIP3   OH243981   1.341   5.716   2.027 -0.3337 -0.3524  0.3835
 7497TIP3    H143982   1.384   5.631   2.016  0.1601  0.0943 -1.4978
 7497TIP3    H243983   1.401   5.768   2.080  0.5696 -0.3618 -0.6062
 7498TIP3   OH243984   3.423   3.200  14.486 -0.4875 -0.0522 -0.1913
 7498TIP3    H143985   3.373   3.132  14.531 -0.4260  0.5791  0.8401
 7498TIP3    H243986   3.425   3.170  14.395 -0.4598 -1.4363  0.2329
 7499TIP3   OH243987   4.521   2.831  10.847 -0.4470  0.0883  0.2210
 7499TIP3    H143988   4.475   2.800  10.769  1.5914 -0.1615 -0.9752
 7499TIP3    H243989   4.503   2.925  10.851 -2.5639 -0.2926  0.9365
 7500TIP3   OH243990   5.674   0.391   5.420  0.1295 -0.0941 -0.0415
 7500TIP3    H143991   5.680   0.454   5.348  1.0927 -2.3998 -2.0926
 7500TIP3    H243992   5.765   0.370   5.442  0.0075 -3.8958 -2.4217
 7501TIP3   OH243993   4.372   6.438   1.038 -0.0918 -0.4340  0.3961
 7501TIP3    H143994   4.373   6.508   0.972  0.9896 -0.3466  0.4825
 7501TIP3    H243995   4.374   6.357   0.987  2.9529 -0.3738  0.2521
 7502TIP3   OH243996   6.298   6.509  15.714 -0.1672  0.1939 -0.6577
 7502TIP3    H143997   6.325   6.427  15.673  3.0475  0.4070  0.6823
 7502TIP3    H243998   6.268   6.483  15.801 -1.0251  0.2747 -0.9272
 7503TIP3   OH243999   5.832   2.627  14.497  0.3107  0.6010  0.1622
 7503TIP3    H144000   5.917   2.635  14.541  0.1895 -0.8183  0.7183
 7503TIP3    H244001   5.790   2.552  14.540 -0.8597  0.7394 -0.6980
 7504TIP3   OH244002   3.073   5.553  10.980 -0.5566  0.4450  0.4227
 7504TIP3    H144003   3.085   5.625  11.042 -1.3314  2.3537 -1.5473
 7504TIP3    H244004   3.000   5.580  10.925 -1.8028 -2.5010  0.4395
 7505TIP3   OH244005   3.370   6.496   1.061  0.1109 -0.2622  0.9997
 7505TIP3    H144006   3.316   6.527   0.988  0.1942  2.9824  2.1480
 7505TIP3    H244007   3.369   6.401   1.053 -1.7176 -0.1260 -1.8790
 7506TIP3   OH244008   0.483   6.247   2.513  0.5888 -0.5021 -0.0187
 7506TIP3    H144009   0.493   6.279   2.423  0.7156  2.0980  0.8520
 7506TIP3    H244010   0.405   6.291   2.545  0.5973 -1.3311  1.1853
 7507TIP3   OH244011   0.609   0.979   5.231 -0.3843 -0.2257 -0.9201
 7507TIP3    H144012   0.584   0.905   5.287 -1.6499 -0.2296 -1.4580
 7507TIP3    H244013   0.672   1.029   5.284 -1.5890 -0.1933  0.5406
 7508TIP3   OH244014   5.656   3.682   4.367 -0.0432 -0.5258  0.3035
 7508TIP3    H144015   5.659   3.777   4.353 -0.1914 -0.9652 -4.0256
 7508TIP3    H244016   5.746   3.659   4.390  0.5046  0.4682 -0.7047
 7509TIP3   OH244017   5.641   5.600   5.307 -0.1372 -0.7619 -0.2848
 7509TIP3    H144018   5.633   5.679   5.360  1.5332 -0.5486 -0.3164
 7509TIP3    H244019   5.692   5.627   5.231 -2.4924 -1.0442 -2.0966
 7510TIP3   OH244020   2.796   6.065   4.028 -0.2987 -0.0803 -0.7175
 7510TIP3    H144021   2.853   6.081   4.103 -0.0707 -1.4459 -0.5799
 7510TIP3    H244022   2.713   6.034   4.066 -1.6346  2.9848 -0.8408
 7511TIP3   OH244023   2.552   1.998  14.284  0.1352 -0.1269  0.4989
 7511TIP3    H144024   2.552   2.029  14.194 -0.7592 -2.5331 -0.4411
 7511TIP3    H244025   2.519   2.072  14.335  1.2232  1.4932 -1.0327
 7512TIP3   OH244026   3.507   0.094   5.515 -0.0996  0.1713 -0.1614
 7512TIP3    H144027   3.591   0.129   5.545 -0.0228 -0.2611  0.1336
 7512TIP3    H244028   3.449   0.171   5.513  0.1731  0.3863  0.1035
 7513TIP3   OH244029   0.497   0.259  14.888  0.1567 -0.1965  0.3952
 7513TIP3    H144030   0.425   0.195  14.887  0.1512 -0.2140 -1.6240
 7513TIP3    H244031   0.506   0.287  14.797  2.9523 -0.4496  0.5155
 7514TIP3   OH244032   5.608   4.687  14.864  0.0905 -0.5476 -0.3998
 7514TIP3    H144033   5.655   4.762  14.900  0.1454 -0.9687  0.4160
 7514TIP3    H244034   5.516   4.709  14.876  0.1075 -1.2230  1.1654
 7515TIP3   OH244035   1.700   6.568   3.651 -0.2033 -0.4745 -0.1417
 7515TIP3    H144036   1.709   6.594   3.743 -1.5398 -0.0954 -0.0904
 7515TIP3    H244037   1.725   6.476   3.650 -1.0343 -0.7343  0.7883
 7516TIP3   OH244038   2.599   4.489   1.854 -0.0321 -0.5102 -0.1265
 7516TIP3    H144039   2.648   4.438   1.919 -2.2173 -1.2156  1.0741
 7516TIP3    H244040   2.597   4.578   1.891 -0.3122 -0.6526  0.2006
 7517TIP3   OH244041   2.152   2.241  13.857 -0.0581 -0.2913  0.6554
 7517TIP3    H144042   2.064   2.242  13.820 -0.3292 -1.1872  1.2428
 7517TIP3    H244043   2.179   2.149  13.854  0.9985  0.0153  0.1714
 7518TIP3   OH244044   5.440   2.938  12.152  0.2655 -0.2345  0.1885
 7518TIP3    H144045   5.378   2.920  12.081 -1.9771 -2.0298  2.4090
 7518TIP3    H244046   5.453   2.853  12.194  3.8876  0.1948  0.2245
 7519TIP3   OH244047   4.304   2.133  13.846  0.0805  0.1177 -0.4628
 7519TIP3    H144048   4.375   2.146  13.783  0.5924  2.4725  0.4868
 7519TIP3    H244049   4.344   2.080  13.916  0.7943  1.0144 -0.1698
 7520TIP3   OH244050   4.649   1.049  10.431  0.5864  0.0667 -0.6220
 7520TIP3    H144051   4.562   1.084  10.411  0.6478  1.3024  1.0684
 7520TIP3    H244052   4.674   1.000  10.353 -0.6470  1.6340 -2.0744
 7521TIP3   OH244053   1.540   3.963   3.305  0.3031 -0.4815  0.3025
 7521TIP3    H144054   1.622   4.011   3.317  0.0701 -0.7400  3.8582
 7521TIP3    H244055   1.474   4.015   3.351 -1.1068 -1.3983 -0.5821
 7522TIP3   OH244056   2.101   1.290  15.751 -0.6842 -0.5762  0.1886
 7522TIP3    H144057   2.137   1.341  15.824 -2.3949  0.3796  0.4152
 7522TIP3    H244058   2.128   1.200  15.770  0.0257 -0.1626  1.2848
 7523TIP3   OH244059   5.441   0.162  15.042 -0.1394 -0.3676  0.3678
 7523TIP3    H144060   5.436   0.217  14.963 -0.8758 -0.3909  0.3996
 7523TIP3    H244061   5.508   0.205  15.096 -0.0942  0.0136  0.0140
 7524TIP3   OH244062   3.910   2.269  16.299 -0.7938  0.1706 -0.0447
 7524TIP3    H144063   3.885   2.234  16.213  0.7176 -1.6074  0.1680
 7524TIP3    H244064   3.907   2.364  16.288 -2.5862  0.0110 -1.4354
 7525TIP3   OH244065   5.788   1.664  15.817 -0.2191  0.2629  0.3442
 7525TIP3    H144066   5.869   1.649  15.866  0.6135  1.3401 -0.6288
 7525TIP3    H244067   5.762   1.577  15.786  2.2666  0.1425 -1.8504
 7526TIP3   OH244068   0.866   3.436  15.106 -0.2332  0.0322 -0.1934
 7526TIP3    H144069   0.792   3.425  15.165  0.5042  0.6691  0.8943
 7526TIP3    H244070   0.866   3.530  15.084  0.8034  0.2420  0.6084
 7527TIP3   OH244071   2.255   1.012   4.886  0.3316  0.5292  0.3439
 7527TIP3    H144072   2.196   0.937   4.873  1.2741 -0.0195 -0.9994
 7527TIP3    H244073   2.324   1.000   4.821  1.8647  1.2436  1.7639
 7528TIP3   OH244074   4.823   3.219   3.101 -0.3376  0.1709 -0.0041
 7528TIP3    H144075   4.742   3.269   3.090 -0.0344  1.0273  1.3130
 7528TIP3    H244076   4.864   3.221   3.015 -0.8542  1.2949 -0.2459
 7529TIP3   OH244077   6.297   1.656   3.511 -0.2662  0.3057 -0.1789
 7529TIP3    H144078   6.290   1.669   3.605  1.2788 -0.6719  0.1156
 7529TIP3    H244079   6.318   1.562   3.502 -1.5239  0.1255 -1.5612
 7530TIP3   OH244080   1.588   3.736   6.541  0.2292  0.0911 -0.0852
 7530TIP3    H144081   1.621   3.655   6.579  0.4844  0.5803  0.7492
 7530TIP3    H244082   1.496   3.738   6.564  0.1115 -0.1849 -0.5135
 7531TIP3   OH244083   0.488   3.745   0.578  0.0939  0.1604  0.3959
 7531TIP3    H144084   0.560   3.683   0.570 -0.1952 -0.1897  0.4425
 7531TIP3    H244085   0.499   3.806   0.505 -1.3893 -1.8015 -1.6186
 7532TIP3   OH244086   6.662   2.532  13.385  0.4016  0.0976 -0.0852
 7532TIP3    H144087   6.590   2.498  13.333 -1.0690  2.7884  0.0155
 7532TIP3    H244088   6.741   2.508  13.336 -0.7466 -0.1956 -1.8796
 7533TIP3   OH244089   3.635   6.248   1.374  0.2929 -0.3089  0.0930
 7533TIP3    H144090   3.588   6.319   1.418  0.6691  0.2272 -0.3658
 7533TIP3    H244091   3.598   6.244   1.286  0.4123 -0.5480  0.0508
 7534TIP3   OH244092   4.142   4.554   3.390 -0.9519 -0.0604 -0.6514
 7534TIP3    H144093   4.139   4.637   3.439  0.3396  0.5754 -1.5844
 7534TIP3    H244094   4.050   4.530   3.377 -1.3460  1.1267 -0.1959
 7535TIP3   OH244095   3.871   4.945   2.682 -0.2410 -0.1041  0.1170
 7535TIP3    H144096   3.859   5.023   2.737  0.9423 -0.3581  0.7807
 7535TIP3    H244097   3.961   4.952   2.650  0.0370 -1.4079  0.5518
 7536TIP3   OH244098   3.737   1.719  16.472  0.1360 -0.1699  0.1933
 7536TIP3    H144099   3.752   1.652  16.405 -0.1574  0.2541 -0.2996
 7536TIP3    H244100   3.700   1.793  16.425 -0.7977 -0.1396  0.9383
 7537TIP3   OH244101   4.021   5.711  12.775  0.1019  0.4072  0.3188
 7537TIP3    H144102   4.076   5.739  12.848  1.6227 -0.5439 -0.4005
 7537TIP3    H244103   4.042   5.771  12.704 -0.9435  0.9760  0.4734
 7538TIP3   OH244104   2.980   6.600   5.193  0.9240 -0.7387 -0.1802
 7538TIP3    H144105   2.995   6.528   5.131 -1.5805 -3.0662  1.6995
 7538TIP3    H244106   3.065   6.612   5.236  1.4729 -2.5279 -0.6427
 7539TIP3   OH244107   3.752   4.310  12.165 -0.5304  1.1387 -0.4583
 7539TIP3    H144108   3.830   4.273  12.126 -0.4666  1.8316 -1.0125
 7539TIP3    H244109   3.689   4.317  12.093 -0.2306  2.9154 -0.6123
 7540TIP3   OH244110   3.553   4.757  11.432  0.3506  0.6160 -0.1828
 7540TIP3    H144111   3.570   4.669  11.463 -2.1350  0.4912  1.0188
 7540TIP3    H244112   3.519   4.745  11.343 -3.4246 -0.0652  1.1985
 7541TIP3   OH244113   0.724   4.842  10.634  0.1267  0.4111 -0.6269
 7541TIP3    H144114   0.811   4.818  10.666  0.1609  3.9450  2.6971
 7541TIP3    H244115   0.732   4.934  10.608 -2.2664  0.3593 -1.8804
 7542TIP3   OH244116   1.642   6.505  12.466  0.0214 -0.2071 -0.0660
 7542TIP3    H144117   1.736   6.514  12.477 -0.2523 -0.2530  3.9179
 7542TIP3    H244118   1.615   6.447  12.537 -3.1345  0.6599 -0.3891
 7543TIP3   OH244119   5.816   5.396  13.567 -0.2580 -0.7071 -0.3108
 7543TIP3    H144120   5.912   5.394  13.565 -0.2696 -2.4420 -0.8585
 7543TIP3    H244121   5.795   5.431  13.654  0.8676 -0.5605 -0.0779
 7544TIP3   OH244122   6.083   3.066   0.251 -0.0736 -0.0404 -0.0768
 7544TIP3    H144123   6.119   3.005   0.315 -0.4085 -0.7371 -0.5449
 7544TIP3    H244124   6.157   3.088   0.194  0.2366  0.6171  0.5562
 7545TIP3   OH244125   0.402   1.253   3.942 -0.0704  0.5595  0.0845
 7545TIP3    H144126   0.338   1.243   3.872  0.8305  0.0701 -0.6919
 7545TIP3    H244127   0.422   1.347   3.943  1.6814  0.3061 -1.9944
 7546TIP3   OH244128   2.213   1.700   1.617  0.0056  0.1233 -0.1656
 7546TIP3    H144129   2.238   1.789   1.593  0.7969 -0.1316 -0.3119
 7546TIP3    H244130   2.283   1.645   1.581  1.2504 -0.2837  2.6036
 7547TIP3   OH244131   3.116   5.208  12.226 -0.2063 -0.0183  0.4021
 7547TIP3    H144132   3.170   5.180  12.152 -1.4449 -0.2400 -0.4338
 7547TIP3    H244133   3.131   5.141  12.293 -0.5437 -0.8705 -0.3560
 7548TIP3   OH244134   1.805   5.736   1.381  0.4172  0.4681 -0.1212
 7548TIP3    H144135   1.829   5.773   1.296 -1.3445 -0.3284 -1.0157
 7548TIP3    H244136   1.796   5.642   1.365 -0.8916  0.4328  0.6885
 7549TIP3   OH244137   3.094   6.776  13.536 -0.0424 -0.0728 -0.3897
 7549TIP3    H144138   3.051   6.829  13.469 -0.4510 -0.1945 -0.2279
 7549TIP3    H244139   3.139   6.707  13.487 -0.3883 -0.1958 -0.5383
 7550TIP3   OH244140   5.270   5.811  15.130 -0.3924  0.0022 -0.3729
 7550TIP3    H144141   5.263   5.769  15.215  2.0487  0.0497 -0.0766
 7550TIP3    H244142   5.234   5.899  15.143  2.9430  1.2555  1.6710
 7551TIP3   OH244143   2.053   4.600   0.775 -0.7590  0.0539  0.5731
 7551TIP3    H144144   2.143   4.582   0.748 -0.6199 -1.3137  1.8552
 7551TIP3    H244145   2.004   4.522   0.750 -0.9325 -0.5801  2.7256
 7552TIP3   OH244146   3.725   5.095   3.119  0.6217  0.3330  0.3261
 7552TIP3    H144147   3.632   5.105   3.137  0.1455  0.1944 -1.8381
 7552TIP3    H244148   3.741   5.001   3.131 -0.0569 -0.0442 -1.4529
 7553TIP3   OH244149   4.713   3.834  16.829  0.3096  0.3220 -0.5201
 7553TIP3    H144150   4.803   3.866  16.820 -0.2292  1.6836 -1.4399
 7553TIP3    H244151   4.698   3.829  16.923  1.8790 -1.5562 -0.3125
 7554TIP3   OH244152   1.520   0.872  17.036  0.1326 -0.1742 -0.1637
 7554TIP3    H144153   1.589   0.873  16.969 -0.4889  0.3985 -0.8188
 7554TIP3    H244154   1.504   0.779  17.053  0.4330 -0.3243 -0.6805
 7555TIP3   OH244155   4.334   1.314   2.335 -0.3515 -0.3351  0.1264
 7555TIP3    H144156   4.406   1.251   2.330  0.1603  0.2408  0.1150
 7555TIP3    H244157   4.374   1.398   2.310 -1.3371 -0.2526 -1.3256
 7556TIP3   OH244158   5.500   3.085   4.034  0.1600 -0.0371 -0.6319
 7556TIP3    H144159   5.444   3.103   4.110 -0.7114 -1.0501 -1.0146
 7556TIP3    H244160   5.476   3.154   3.971  0.2116  0.2448 -0.3485
 7557TIP3   OH244161   1.445   2.001   3.407  0.2523  0.3210 -0.0641
 7557TIP3    H144162   1.364   2.020   3.455  0.3536 -0.5559  0.4662
 7557TIP3    H244163   1.421   1.931   3.346  0.1292  1.4051 -1.3130
 7558TIP3   OH244164   5.537   4.066  17.189 -0.5168 -0.2435  0.1672
 7558TIP3    H144165   5.609   4.004  17.200  0.4683  0.7766 -0.2886
 7558TIP3    H244166   5.558   4.138  17.249  0.3969  1.3850 -1.9932
 7559TIP3   OH244167   4.411   5.086  10.605  0.1294  0.3090 -0.8395
 7559TIP3    H144168   4.328   5.131  10.592  0.0978  0.2281 -0.9194
 7559TIP3    H244169   4.476   5.143  10.565 -0.0463 -0.2651 -2.0032
 7560TIP3   OH244170   3.455   2.964   3.408  0.4538  0.4904  0.3914
 7560TIP3    H144171   3.532   3.020   3.396 -0.5740  1.8370 -0.2520
 7560TIP3    H244172   3.415   2.960   3.321 -2.0232  2.6367  1.2785
 7561TIP3   OH244173   4.899   0.436   2.663  0.5388 -0.0292  0.1500
 7561TIP3    H144174   4.955   0.451   2.740 -0.1911 -1.3038  0.9730
 7561TIP3    H244175   4.812   0.423   2.700 -0.2144  1.3883 -1.0746
 7562TIP3   OH244176   0.647   2.029   2.963 -0.5189 -0.1400 -0.4717
 7562TIP3    H144177   0.709   1.990   2.902 -2.8055 -1.3132 -2.1651
 7562TIP3    H244178   0.680   2.118   2.976  1.1333 -0.5028 -1.8089
 7563TIP3   OH244179   4.269   1.886  12.122 -0.5242 -0.5501  0.4450
 7563TIP3    H144180   4.263   1.966  12.071  2.6935 -0.6905 -0.3258
 7563TIP3    H244181   4.328   1.907  12.194  0.9341 -2.3341 -0.1347
 7564TIP3   OH244182   5.045   5.491   4.571 -0.2987 -0.3912 -0.0454
 7564TIP3    H144183   5.103   5.566   4.559 -0.6618 -0.3727 -2.1425
 7564TIP3    H244184   4.962   5.530   4.601  0.1484 -0.2162  1.0140
 7565TIP3   OH244185   3.637   3.631  12.095 -0.6649  0.1851 -0.6758
 7565TIP3    H144186   3.609   3.721  12.108  0.1231  0.9039 -3.2822
 7565TIP3    H244187   3.729   3.630  12.123 -0.5317  0.3366 -1.0972
 7566TIP3   OH244188   0.533   0.226   3.393  0.3094  0.0973  0.5769
 7566TIP3    H144189   0.556   0.226   3.300 -1.6130  1.3216  0.0252
 7566TIP3    H244190   0.507   0.136   3.412  1.8028 -0.4263  0.2577
 7567TIP3   OH244191   0.559   2.166  12.797 -0.6164  0.0220 -0.2301
 7567TIP3    H144192   0.613   2.093  12.767 -1.4395 -0.5783 -0.2816
 7567TIP3    H244193   0.622   2.232  12.828  0.1465 -0.5020 -0.6481
 7568TIP3   OH244194   5.962   3.887   3.458 -0.1209  0.1794  0.0099
 7568TIP3    H144195   5.993   3.891   3.548 -2.3722  1.6853  0.8083
 7568TIP3    H244196   6.025   3.940   3.408  1.7454 -1.5312  0.4060
 7569TIP3   OH244197   6.154   1.904   3.752 -0.4530 -0.3985  0.7027
 7569TIP3    H144198   6.166   1.976   3.814 -1.8467 -0.3486  0.9356
 7569TIP3    H244199   6.231   1.849   3.765  0.5861  0.9668  0.6051
 7570TIP3   OH244200   0.725   5.893  12.182  0.0667 -0.1092  0.4057
 7570TIP3    H144201   0.661   5.833  12.143 -1.4629  1.1398  0.8879
 7570TIP3    H244202   0.707   5.978  12.141  1.0843  0.3790  0.9291
 7571TIP3   OH244203   2.027   4.811   1.664 -0.2821  0.3570  0.0421
 7571TIP3    H144204   2.084   4.749   1.621  0.6370  1.0111  0.2904
 7571TIP3    H244205   1.938   4.783   1.640  0.1116 -0.9118 -0.0072
 7572TIP3   OH244206   1.061   1.794   3.325 -0.1786  0.2965 -0.6967
 7572TIP3    H144207   0.970   1.824   3.320 -0.4523  0.0179  1.6225
 7572TIP3    H244208   1.054   1.701   3.348  0.6734  0.5255  0.5472
 7573TIP3   OH244209   1.336   1.070  17.055 -0.6796  0.6462  0.2336
 7573TIP3    H144210   1.398   1.137  17.025 -2.0615  1.8415 -0.0432
 7573TIP3    H244211   1.392   0.997  17.083  0.8653  1.8526  0.4331
 7574TIP3   OH244212   5.032   0.117  15.155 -0.3857  0.1374 -1.0673
 7574TIP3    H144213   5.089   0.192  15.137  2.2074 -1.9275 -2.0810
 7574TIP3    H244214   5.022   0.074  15.070  0.8050 -2.3347 -0.0444
 7575TIP3   OH244215   1.034   3.113  14.792  0.2074  0.7696 -0.2484
 7575TIP3    H144216   1.065   3.182  14.734  0.6426  1.5417  0.8789
 7575TIP3    H244217   0.939   3.120  14.790  0.2018  0.5649 -1.1154
 7576TIP3   OH244218   5.840   5.857   3.472 -0.8325 -0.2800 -0.5286
 7576TIP3    H144219   5.877   5.940   3.441 -0.4392 -0.5051 -0.6735
 7576TIP3    H244220   5.830   5.804   3.393  1.1295 -1.2351 -0.2182
 7577TIP3   OH244221   0.960   5.305   4.735 -0.8068  0.2266  0.3601
 7577TIP3    H144222   1.026   5.319   4.667 -0.7284 -0.7348  0.2315
 7577TIP3    H244223   0.986   5.224   4.778 -1.3151  0.3991  1.0094
 7578TIP3   OH244224   3.255   3.888   0.366 -0.4788 -0.2136  0.3602
 7578TIP3    H144225   3.300   3.826   0.308 -1.3589  0.4163 -1.0453
 7578TIP3    H244226   3.234   3.962   0.310 -0.3367  0.9408  1.7824
 7579TIP3   OH244227   5.500   0.005   4.005 -0.0438  0.4870  0.2776
 7579TIP3    H144228   5.581   0.044   3.972 -0.5270  0.3499 -1.1358
 7579TIP3    H244229   5.519  -0.089   4.012  0.0669  0.5177  0.3778
 7580TIP3   OH244230   1.649   5.793   0.430 -0.0291 -0.6283 -0.3576
 7580TIP3    H144231   1.729   5.845   0.437 -0.3015 -0.3653  0.9580
 7580TIP3    H244232   1.585   5.839   0.484 -1.1532 -0.7157 -1.5593
 7581TIP3   OH244233   3.727   6.151  12.753  0.9631 -0.4390 -0.3239
 7581TIP3    H144234   3.819   6.175  12.762  0.3940  2.0425 -0.3970
 7581TIP3    H244235   3.709   6.158  12.659  0.9484 -2.1628 -0.4914
 7582TIP3   OH244236   4.926   4.302   2.789 -0.1167  0.2810 -0.5118
 7582TIP3    H144237   4.875   4.383   2.782  0.6133  0.8735  0.6675
 7582TIP3    H244238   5.016   4.332   2.806  0.6554 -0.7330 -2.4385
 7583TIP3   OH244239   4.410   3.563   3.971  0.1275 -0.4834  0.7216
 7583TIP3    H144240   4.450   3.522   4.047  0.3562 -0.1855  0.7654
 7583TIP3    H244241   4.434   3.506   3.898 -0.3990 -0.9655  0.9193
 7584TIP3   OH244242   5.285   5.683   5.268  0.0356 -0.0339  0.1333
 7584TIP3    H144243   5.291   5.776   5.290 -0.0300  0.0271 -0.1041
 7584TIP3    H244244   5.203   5.675   5.221 -0.6824 -0.4708  1.4147
 7585TIP3   OH244245   4.790   4.195  15.177  0.1917 -0.1375  0.1933
 7585TIP3    H144246   4.838   4.171  15.098  0.1117  0.5258 -0.0664
 7585TIP3    H244247   4.815   4.286  15.194 -0.5334  0.0399  0.3699
 7586TIP3   OH244248   0.381   0.855  13.298  0.2456 -0.0442  0.5385
 7586TIP3    H144249   0.398   0.766  13.266  0.1482  0.7700 -2.0071
 7586TIP3    H244250   0.449   0.871  13.363  2.5227 -0.7471 -1.5386
 7587TIP3   OH244251   2.759   6.215  14.460  0.1169  0.1827  0.5841
 7587TIP3    H144252   2.733   6.285  14.520  1.6261 -0.7366  2.4274
 7587TIP3    H244253   2.772   6.139  14.517  1.7852 -0.6951 -0.8925
 7588TIP3   OH244254   3.528   5.153   1.581  0.0603  0.5876  0.0590
 7588TIP3    H144255   3.536   5.078   1.522  0.5743  0.8401 -0.2016
 7588TIP3    H244256   3.608   5.203   1.567 -0.0594  0.9330  0.5855
 7589TIP3   OH244257   6.732   3.896   3.386 -0.4089  0.4818 -0.2172
 7589TIP3    H144258   6.674   3.855   3.323  2.1253 -3.4128 -0.3729
 7589TIP3    H244259   6.732   3.837   3.462  1.4195  1.6295  0.7743
 7590TIP3   OH244260   5.082   0.479   5.059 -0.1226  0.1508 -0.4607
 7590TIP3    H144261   5.051   0.492   4.970  0.9857  0.9461 -0.7521
 7590TIP3    H244262   5.115   0.389   5.061  0.6029  0.3925 -1.1030
 7591TIP3   OH244263   3.866   4.852  11.401  0.2559 -0.8387  0.2901
 7591TIP3    H144264   3.855   4.784  11.334  0.7719  0.5791 -1.2965
 7591TIP3    H244265   3.779   4.892  11.409  0.0662 -1.3539  0.8794
 7592TIP3   OH244266   4.388   6.440   0.714  0.5386  0.4944 -0.8017
 7592TIP3    H144267   4.479   6.414   0.732 -0.3534 -1.4308  1.5182
 7592TIP3    H244268   4.370   6.508   0.779  0.1215  0.3778 -0.7923
 7593TIP3   OH244269   2.753   4.355   2.781  0.9838 -0.1064 -0.7225
 7593TIP3    H144270   2.737   4.321   2.693  1.9841 -1.4835 -0.4106
 7593TIP3    H244271   2.808   4.289   2.823 -1.3523 -0.7106  1.7535
 7594TIP3   OH244272   0.626   3.842  16.768  0.0006  0.1735  0.1994
 7594TIP3    H144273   0.591   3.792  16.841 -1.5392 -1.0673 -1.3104
 7594TIP3    H244274   0.704   3.792  16.741  0.3418  0.4160  0.7064
 7595TIP3   OH244275   5.913   0.160  14.976  0.1831 -0.2750 -0.9164
 7595TIP3    H144276   5.853   0.232  14.959  0.4904 -0.4991 -3.2420
 7595TIP3    H244277   6.000   0.200  14.978  0.0796  0.0828  2.6615
 7596TIP3   OH244278   5.397   1.804  16.268 -0.2285 -0.1294  0.0773
 7596TIP3    H144279   5.458   1.756  16.325  0.0711  0.9420  0.6806
 7596TIP3    H244280   5.453   1.850  16.206 -0.4775 -0.0249 -0.0705
 7597TIP3   OH244281   3.722   0.983  13.333 -0.5301  0.0723 -0.3578
 7597TIP3    H144282   3.689   1.072  13.322 -0.3322  0.2870  0.7057
 7597TIP3    H244283   3.730   0.949  13.244  0.1718  1.3983 -0.8237
 7598TIP3   OH244284   3.918   0.659   3.565  0.3789 -0.0753 -0.7105
 7598TIP3    H144285   3.905   0.565   3.547 -0.9682 -0.0930  0.1859
 7598TIP3    H244286   3.969   0.691   3.491  0.1986 -1.3676 -1.4220
 7599TIP3   OH244287   5.250   2.958  14.259 -0.1555  0.0583  1.0543
 7599TIP3    H144288   5.325   2.905  14.231 -2.2731 -2.3055 -0.6810
 7599TIP3    H244289   5.286   3.020  14.322  3.4380 -0.1340 -0.5698
 7600TIP3   OH244290   5.920   3.237   2.348 -0.3536  0.5789  0.1401
 7600TIP3    H144291   5.866   3.246   2.269 -1.5930  1.5748  1.0796
 7600TIP3    H244292   5.998   3.289   2.329 -0.6996  0.9196 -0.3728
 7601TIP3   OH244293   0.052   6.154  15.869  0.0396 -0.3688 -0.8147
 7601TIP3    H144294   0.043   6.158  15.964 -0.9432 -1.1109 -0.8666
 7601TIP3    H244295   0.085   6.065  15.851 -0.9726 -0.6681 -1.2464
 7602TIP3   OH244296   5.031   3.887   5.796  0.3948  0.8369 -0.4665
 7602TIP3    H144297   5.086   3.826   5.746  1.2132 -0.7405  2.1667
 7602TIP3    H244298   5.077   3.971   5.791  1.2140  0.3649 -1.1093
 7603TIP3   OH244299   4.492   2.853  17.238  0.0014 -0.1754  0.1787
 7603TIP3    H144300   4.407   2.881  17.205 -0.1562 -0.6656  0.1666
 7603TIP3    H244301   4.536   2.817  17.161  0.5086  0.7431  0.0186
 7604TIP3   OH244302   5.258   1.914   3.714  0.0951  0.0430 -0.0798
 7604TIP3    H144303   5.283   1.868   3.794 -0.4096 -2.2683 -1.1413
 7604TIP3    H244304   5.342   1.942   3.676  0.5396 -1.0898  0.0245
 7605TIP3   OH244305   0.617   5.203  11.500 -0.0436  0.2776  0.0961
 7605TIP3    H144306   0.539   5.212  11.445 -0.0867  1.5448  0.3229
 7605TIP3    H244307   0.689   5.190  11.438 -0.5051 -1.8488 -0.0829
 7606TIP3   OH244308   0.721   2.762  14.787 -0.7072 -0.0155  0.3939
 7606TIP3    H144309   0.678   2.824  14.846 -2.1142 -1.1111  0.5603
 7606TIP3    H244310   0.652   2.735  14.726  0.7372  1.3159 -2.0382
 7607TIP3   OH244311   5.004   5.787   5.382 -0.2854 -0.4928 -0.3251
 7607TIP3    H144312   4.992   5.769   5.288 -1.5806  1.2712 -0.5579
 7607TIP3    H244313   4.916   5.782   5.419  0.0151  0.1740  0.5216
 7608TIP3   OH244314   2.882   3.851  13.092  0.3161  0.2327  0.5728
 7608TIP3    H144315   2.809   3.889  13.140  0.1723 -0.0800  0.6080
 7608TIP3    H244316   2.891   3.906  13.014 -0.7038 -0.3832 -0.0204
 7609TIP3   OH244317   3.475   1.259   1.983  0.2501 -0.1517 -0.2812
 7609TIP3    H144318   3.482   1.246   2.078 -0.7931  0.1073 -0.1493
 7609TIP3    H244319   3.564   1.252   1.951  0.6457 -0.0654  0.7498
 7610TIP3   OH244320   2.525   5.229   2.654 -0.2213  0.2278  0.5636
 7610TIP3    H144321   2.459   5.249   2.588 -0.6847 -1.4558  0.4741
 7610TIP3    H244322   2.486   5.258   2.736 -0.9211 -0.3950  0.4618
 7611TIP3   OH244323   3.397   5.339   4.192 -0.0016  0.0946 -0.1161
 7611TIP3    H144324   3.459   5.268   4.178 -0.4656 -0.5161  0.7950
 7611TIP3    H244325   3.311   5.302   4.172 -0.1448  0.7647 -0.8110
 7612TIP3   OH244326   1.248   2.754   0.908  0.1852 -0.0094  0.1779
 7612TIP3    H144327   1.158   2.723   0.921  0.0457  0.4313  0.2647
 7612TIP3    H244328   1.277   2.708   0.828 -0.3287  0.3104 -0.1971
 7613TIP3   OH244329   1.805   5.694  13.852 -0.5104 -0.0612 -0.2795
 7613TIP3    H144330   1.733   5.665  13.796 -0.3859 -1.7271  0.3887
 7613TIP3    H244331   1.763   5.729  13.930 -0.6274  0.8096 -0.7123
 7614TIP3   OH244332   3.287   4.969   1.443  0.0510 -0.3317  0.5867
 7614TIP3    H144333   3.290   4.876   1.467 -0.0133 -1.0620 -1.9355
 7614TIP3    H244334   3.378   4.994   1.433  0.0442 -1.1774 -2.1819
 7615TIP3   OH244335   0.041   4.204  15.535  0.2613 -0.1425 -0.3739
 7615TIP3    H144336  -0.020   4.272  15.508  1.9627  0.8023 -2.0531
 7615TIP3    H244337   0.078   4.236  15.617 -0.1842  0.1133 -0.2663
 7616TIP3   OH244338   0.233   5.258   0.390 -0.3624  0.1883  0.4237
 7616TIP3    H144339   0.250   5.190   0.325 -0.0717 -0.0672  0.7616
 7616TIP3    H244340   0.224   5.339   0.339 -0.4669 -0.0607  0.0415
 7617TIP3   OH244341   1.256   0.083  12.165 -0.3515  0.8225 -0.5973
 7617TIP3    H144342   1.348   0.093  12.189 -0.4389  1.4161 -0.5009
 7617TIP3    H244343   1.210   0.146  12.220 -1.0650 -0.8786  0.8420
 7618TIP3   OH244344   0.546   5.257   4.112  0.3952 -0.4037 -0.2595
 7618TIP3    H144345   0.602   5.309   4.170  0.6653 -1.2880  0.2917
 7618TIP3    H244346   0.495   5.202   4.171 -0.7217  0.0339 -0.7856
 7619TIP3   OH244347   1.492   0.717  12.275  0.0722 -0.4371 -0.1127
 7619TIP3    H144348   1.537   0.673  12.202 -1.9075 -1.6277 -0.7069
 7619TIP3    H244349   1.483   0.649  12.342 -0.8791 -0.2613 -0.0479
 7620TIP3   OH244350   5.631   0.875  12.157 -0.1552  0.8652  0.5350
 7620TIP3    H144351   5.551   0.927  12.148  0.4390  1.5308 -1.4269
 7620TIP3    H244352   5.685   0.926  12.218  0.4657  2.7069 -1.4417
 7621TIP3   OH244353   6.548   2.608  14.361 -0.2706  0.1798 -0.1654
 7621TIP3    H144354   6.625   2.575  14.314 -0.4256  0.9252 -0.9666
 7621TIP3    H244355   6.474   2.560  14.323 -0.3677  0.5908 -0.4988
 7622TIP3   OH244356   1.339   0.065   2.862 -0.0024  0.0286  0.0212
 7622TIP3    H144357   1.320   0.009   2.787  0.6207 -0.2804  0.0935
 7622TIP3    H244358   1.310   0.014   2.938 -3.8170  1.6223 -0.1162
 7623TIP3   OH244359   6.769   3.990  12.216  0.1117 -0.2940  0.0651
 7623TIP3    H144360   6.747   4.059  12.279 -0.7872  0.2442 -0.8113
 7623TIP3    H244361   6.758   4.031  12.130  2.7391 -0.5832 -0.4821
 7624TIP3   OH244362   1.043   5.251   2.193  0.0177  0.0521 -0.1805
 7624TIP3    H144363   1.083   5.315   2.133  1.0411 -0.9198 -0.5683
 7624TIP3    H244364   1.040   5.297   2.277  0.7164  0.6416 -0.4591
 7625TIP3   OH244365   0.837   6.383   2.547  0.3624 -0.0418  0.2586
 7625TIP3    H144366   0.777   6.317   2.512 -1.4309  0.9897  1.2503
 7625TIP3    H244367   0.883   6.338   2.618  0.4126 -0.7018 -0.1806
 7626TIP3   OH244368   4.791   3.711  13.795  0.5656 -0.3617  0.4401
 7626TIP3    H144369   4.763   3.781  13.855  0.4701 -0.6330  0.7188
 7626TIP3    H244370   4.766   3.630  13.841 -0.3743 -0.5575 -0.3926
 7627TIP3   OH244371   6.486   2.452  12.946  0.4362 -0.5805  0.2333
 7627TIP3    H144372   6.445   2.393  12.884 -1.5182  0.3360  0.5545
 7627TIP3    H244373   6.500   2.533  12.897  0.6113 -0.4595  0.4814
 7628TIP3   OH244374   6.364   1.195  14.438  0.4270 -0.4664  0.0855
 7628TIP3    H144375   6.416   1.274  14.428  0.4470 -0.4695  0.1651
 7628TIP3    H244376   6.276   1.226  14.455  0.6347 -0.4540  1.2069
 7629TIP3   OH244377   3.162   0.259  16.203  0.4136 -0.3309 -0.1418
 7629TIP3    H144378   3.238   0.285  16.254  1.4142 -0.8072 -1.3467
 7629TIP3    H244379   3.197   0.232  16.119 -1.0480 -1.0260 -0.5648
 7630TIP3   OH244380   1.600   6.464   0.942 -0.0207 -0.3498  0.3440
 7630TIP3    H144381   1.508   6.482   0.923 -0.3254  0.1602  2.1430
 7630TIP3    H244382   1.618   6.510   1.023  1.4301 -1.6401  0.8193
 7631TIP3   OH244383   5.092   5.304  12.200 -0.0621  0.2439  0.6336
 7631TIP3    H144384   5.024   5.237  12.213  1.2778 -1.0449  1.2703
 7631TIP3    H244385   5.078   5.335  12.111  0.0987 -1.8707 -0.1830
 7632TIP3   OH244386   6.616   1.049   2.170 -0.1118 -0.0140 -0.3316
 7632TIP3    H144387   6.572   1.133   2.184  0.3661  0.1955 -0.0504
 7632TIP3    H244388   6.690   1.050   2.231  0.7116 -0.0437 -1.2885
 7633TIP3   OH244389   0.260   1.717  12.164 -0.3826  1.2053 -0.7252
 7633TIP3    H144390   0.330   1.721  12.228 -1.4453  1.9727  0.4418
 7633TIP3    H244391   0.286   1.648  12.103 -0.2758 -1.0430  1.6967
 7634TIP3   OH244392   4.737   6.006   1.226  0.7763 -0.1166  0.1621
 7634TIP3    H144393   4.748   6.001   1.321  0.0395  0.4250  0.2819
 7634TIP3    H244394   4.649   5.971   1.210  0.8082  0.0061 -0.2965
 7635TIP3   OH244395   3.093   5.728  11.186 -0.3836  0.3014 -0.3448
 7635TIP3    H144396   3.075   5.666  11.256 -1.2618  0.7852 -0.1356
 7635TIP3    H244397   3.189   5.732  11.182 -0.3009 -1.3069 -0.5880
 7636TIP3   OH244398   2.921   2.341   6.063 -0.4348  0.0692  0.0595
 7636TIP3    H144399   2.997   2.390   6.095 -1.6831  1.9673  0.2727
 7636TIP3    H244400   2.942   2.319   5.973  0.0613  1.3183 -0.1527
 7637TIP3   OH244401   4.266   5.043   1.713 -0.4579  0.2313  0.0125
 7637TIP3    H144402   4.344   4.989   1.728 -0.1770  0.2342 -1.3243
 7637TIP3    H244403   4.280   5.120   1.768  2.0483  1.7339 -2.4482
 7638TIP3   OH244404   0.329   2.860   0.868 -0.2765  0.1303  0.7502
 7638TIP3    H144405   0.387   2.913   0.814  0.0942 -1.0464 -0.0411
 7638TIP3    H244406   0.254   2.841   0.811 -0.4676 -0.0921  1.0694
 7639TIP3   OH244407   1.009   2.772   2.873 -0.0874 -0.0274 -0.1874
 7639TIP3    H144408   1.072   2.722   2.925 -0.6768 -0.0146  0.5585
 7639TIP3    H244409   1.009   2.728   2.787  1.3272  0.3136 -0.3834
 7640TIP3   OH244410   0.301   3.050  15.783 -0.4767 -0.2599  0.0017
 7640TIP3    H144411   0.268   3.002  15.706  0.7594  0.4959 -1.0334
 7640TIP3    H244412   0.391   3.019  15.793 -0.1315  0.7877  0.1967
 7641TIP3   OH244413   0.973   3.997   6.232 -0.2736 -0.2374 -0.7364
 7641TIP3    H144414   0.894   3.995   6.285 -0.6302  2.3190 -1.0562
 7641TIP3    H244415   1.028   3.927   6.268 -1.8823 -0.8244  0.7120
 7642TIP3   OH244416   6.776   4.184   5.482  0.2050  0.3922 -0.3712
 7642TIP3    H144417   6.841   4.254   5.489  0.0716  0.7962 -2.4729
 7642TIP3    H244418   6.763   4.154   5.572  1.0585  2.3265  0.4485
 7643TIP3   OH244419   5.816   3.214   1.384 -0.3371  0.4766  0.6211
 7643TIP3    H144420   5.883   3.254   1.329  0.0679  0.2789  0.9664
 7643TIP3    H244421   5.798   3.130   1.343 -0.6982  0.7194  0.2767
 7644TIP3   OH244422   5.617   3.199   6.808  0.3995 -0.2370 -0.4816
 7644TIP3    H144423   5.649   3.267   6.750  0.0893 -1.3669 -2.0328
 7644TIP3    H244424   5.643   3.228   6.896  1.1467  1.3520 -1.1943
 7645TIP3   OH244425   6.567   3.713   3.892 -0.2583  0.4125 -0.2345
 7645TIP3    H144426   6.635   3.778   3.879  0.3755 -0.1119  0.3957
 7645TIP3    H244427   6.606   3.648   3.951 -0.5214 -1.0614 -1.6283
 7646TIP3   OH244428   2.988   0.336  13.085 -0.3612 -0.3746 -0.1896
 7646TIP3    H144429   2.973   0.414  13.138  0.2443 -0.0139 -0.5361
 7646TIP3    H244430   3.065   0.295  13.123  0.5801  0.3312 -1.2599
 7647TIP3   OH244431   5.686   5.910   4.361  0.8137 -0.1370 -0.5799
 7647TIP3    H144432   5.633   5.968   4.417  1.5552  0.9996 -1.0187
 7647TIP3    H244433   5.762   5.887   4.415  2.4087  2.3411 -1.5981
 7648TIP3   OH244434   4.012   0.400  11.126 -0.2246 -0.6251 -0.0099
 7648TIP3    H144435   4.084   0.450  11.162 -0.4153 -0.0458 -0.4098
 7648TIP3    H244436   4.029   0.310  11.153  0.2006 -0.3676  0.5937
 7649TIP3   OH244437   0.419   2.140   6.182 -0.0580 -0.4837 -0.0865
 7649TIP3    H144438   0.344   2.154   6.240  1.9271 -0.6463  2.7420
 7649TIP3    H244439   0.431   2.224   6.137 -0.6715  0.2224  1.0289
 7650TIP3   OH244440   1.604   4.820   1.845 -0.0999 -0.0412 -0.5179
 7650TIP3    H144441   1.576   4.778   1.926 -2.0992  2.5490  0.2473
 7650TIP3    H244442   1.698   4.833   1.857  0.2822 -2.5933 -0.0907
 7651TIP3   OH244443   1.088   3.215  15.828 -0.7718 -0.0706 -0.5680
 7651TIP3    H144444   1.079   3.172  15.743  0.4918 -2.5269  0.4478
 7651TIP3    H244445   1.057   3.151  15.891  1.2556  0.4404  1.0499
 7652TIP3   OH244446   6.188   4.505   3.904  0.4698  0.0077  0.1133
 7652TIP3    H144447   6.243   4.484   3.980 -0.6667 -0.3042  0.8658
 7652TIP3    H244448   6.124   4.568   3.938 -0.5727 -0.7741 -0.3676
 7653TIP3   OH244449   3.933   3.799   1.893  0.0721  0.1765  0.0848
 7653TIP3    H144450   3.969   3.736   1.955  0.2671  2.0462  2.0016
 7653TIP3    H244451   3.860   3.753   1.851  1.9276 -2.2070 -0.6855
 7654TIP3   OH244452   0.295   4.165  16.574  0.2650 -0.3082 -0.3550
 7654TIP3    H144453   0.210   4.130  16.544 -0.0526  1.4525 -1.6919
 7654TIP3    H244454   0.291   4.159  16.669 -0.5208 -2.1014 -0.4561
 7655TIP3   OH244455   4.976   0.497   2.923 -0.2860  0.1687 -0.3274
 7655TIP3    H144456   5.000   0.406   2.940 -1.2582  0.3978  3.0725
 7655TIP3    H244457   5.042   0.549   2.969 -0.9019  1.1181 -0.4801
 7656TIP3   OH244458   0.548   5.730  16.557 -0.0838  0.0614 -0.2007
 7656TIP3    H144459   0.630   5.716  16.510 -0.5342 -1.6743 -0.5350
 7656TIP3    H244460   0.522   5.819  16.534 -0.1812 -0.6318 -3.1597
 7657TIP3   OH244461   6.616   1.170  16.102  0.4306  0.3590  0.2515
 7657TIP3    H144462   6.683   1.144  16.166 -0.8708  0.2346  1.6079
 7657TIP3    H244463   6.597   1.090  16.053  0.9312  0.2768  0.1873
 7658TIP3   OH244464   6.155   0.797   5.425  0.3210 -0.0460  0.4080
 7658TIP3    H144465   6.076   0.833   5.385 -1.0885 -2.9366  0.3314
 7658TIP3    H244466   6.203   0.758   5.351  2.5008  2.6160  0.2686
 7659TIP3   OH244467   0.970   2.594   3.543 -0.6812 -0.1156 -0.3881
 7659TIP3    H144468   1.021   2.528   3.591  0.0039  0.0089 -0.9310
 7659TIP3    H244469   0.919   2.638   3.611 -0.0745 -0.2499  0.1736
 7660TIP3   OH244470   6.037   4.618   4.882 -0.1685 -0.0371  0.0717
 7660TIP3    H144471   5.998   4.703   4.904  0.1889  0.1076  0.1675
 7660TIP3    H244472   5.964   4.557   4.881 -0.2987  0.0867  1.0022
 7661TIP3   OH244473   6.583   1.991  16.755  0.6111  0.1349 -0.3563
 7661TIP3    H144474   6.567   2.031  16.840  0.9653 -0.2558 -0.1018
 7661TIP3    H244475   6.660   1.936  16.768 -0.1446 -1.0282 -0.5593
 7662TIP3   OH244476   5.903   5.009   3.381  0.2456 -0.9417  0.1378
 7662TIP3    H144477   5.936   4.931   3.337  1.1499 -1.1299  1.1009
 7662TIP3    H244478   5.904   4.986   3.474 -1.5036 -0.5154  0.2982
 7663TIP3   OH244479   2.901   1.627  11.730 -0.0983 -0.2765 -0.8127
 7663TIP3    H144480   2.914   1.544  11.775  0.5544  0.1530 -0.1755
 7663TIP3    H244481   2.806   1.639  11.728 -0.1836  0.7359  2.5076
 7664TIP3   OH244482   3.443   0.405  15.881  0.7954 -0.2312 -0.0072
 7664TIP3    H144483   3.397   0.436  15.959  1.7842  1.2281  0.0338
 7664TIP3    H244484   3.439   0.479  15.820  1.9933 -0.5320 -0.4739
 7665TIP3   OH244485   4.192   2.468   3.275  0.3608  0.0677 -0.4625
 7665TIP3    H144486   4.111   2.506   3.309  0.0395 -0.8300 -0.2084
 7665TIP3    H244487   4.171   2.444   3.185  0.1119 -0.8149 -0.1807
 7666TIP3   OH244488   3.702   1.120  13.605  0.1529 -0.2821  0.5169
 7666TIP3    H144489   3.738   1.037  13.635  1.0831  0.1819  0.7441
 7666TIP3    H244490   3.612   1.101  13.581  0.4349 -1.4064  0.3196
 7667TIP3   OH244491   2.351   1.292   0.873  0.1236 -0.4032 -0.3169
 7667TIP3    H144492   2.347   1.341   0.955 -2.1297 -1.6915  0.4455
 7667TIP3    H244493   2.442   1.298   0.845  0.6312  1.2877  1.5123
 7668TIP3   OH244494   3.193   6.131  16.525 -1.0052  0.6656 -0.3591
 7668TIP3    H144495   3.156   6.141  16.438  1.5302 -0.2445 -1.6457
 7668TIP3    H244496   3.124   6.089  16.576 -1.5710 -1.6965 -2.8080
 7669TIP3   OH244497   5.645   6.493   3.457  0.0398 -0.0916  0.5180
 7669TIP3    H144498   5.710   6.559   3.433  0.1422 -0.4103 -0.1070
 7669TIP3    H244499   5.649   6.428   3.387 -0.4379 -0.4908  0.8478
 7670TIP3   OH244500   2.716   0.283   1.974  0.1162 -0.0615  0.0454
 7670TIP3    H144501   2.801   0.310   2.008 -0.7522  1.1605  1.3688
 7670TIP3    H244502   2.734   0.204   1.923  1.9070 -0.3317  1.0219
 7671TIP3   OH244503   6.501   1.050  14.613 -0.1041 -0.2347  0.2989
 7671TIP3    H144504   6.590   1.055  14.579  0.3435 -1.0863  1.2686
 7671TIP3    H244505   6.452   1.114  14.562  1.0759  0.2952 -0.2119
 7672TIP3   OH244506   6.185   2.579   0.449  0.0218 -0.6031 -0.0402
 7672TIP3    H144507   6.220   2.644   0.388 -1.9794  0.4200 -0.2008
 7672TIP3    H244508   6.262   2.533   0.483  1.4382  1.2271 -0.6194
 7673TIP3   OH244509   2.518   6.431   2.287  0.1094  0.3063 -0.4037
 7673TIP3    H144510   2.597   6.469   2.326 -0.1323  0.0435  0.3639
 7673TIP3    H244511   2.474   6.505   2.246  1.1579  0.3135 -1.5496
 7674TIP3   OH244512   6.255   6.115  11.466 -0.3877 -0.4592 -0.4809
 7674TIP3    H144513   6.260   6.206  11.439 -0.5140 -0.1777  0.4158
 7674TIP3    H244514   6.346   6.087  11.473 -0.2939  0.1192  0.9134
 7675TIP3   OH244515   4.938   5.790   4.187  0.0996 -0.3116  0.6528
 7675TIP3    H144516   5.014   5.737   4.212  2.4546  3.0448  1.2917
 7675TIP3    H244517   4.903   5.821   4.270 -0.0239  0.6573  0.2441
 7676TIP3   OH244518   0.460   0.110  12.299 -0.0726 -0.0766  0.1089
 7676TIP3    H144519   0.538   0.076  12.256 -0.6662 -0.8272 -0.3831
 7676TIP3    H244520   0.452   0.200  12.267  0.1285 -0.2620 -0.4623
 7677TIP3   OH244521   4.337   5.775   2.908 -0.4510  0.7745 -0.1957
 7677TIP3    H144522   4.311   5.711   2.841  2.0294  0.0070 -0.5297
 7677TIP3    H244523   4.256   5.818   2.933 -1.8898 -1.0008 -1.5493
 7678TIP3   OH244524   2.770   1.049  17.138 -0.0445 -0.0769 -0.1142
 7678TIP3    H144525   2.717   0.976  17.171 -0.3616  0.3246  0.2676
 7678TIP3    H244526   2.720   1.127  17.160  1.4409  0.4379  1.7863
 7679TIP3   OH244527   0.504   2.476  13.096 -0.1359 -0.1538  0.0262
 7679TIP3    H144528   0.463   2.399  13.134 -0.7521  0.0856 -0.1516
 7679TIP3    H244529   0.574   2.498  13.158 -0.3251 -0.5116  0.3734
 7680TIP3   OH244530   4.278   5.130   3.976 -0.4463  0.4931  0.7038
 7680TIP3    H144531   4.274   5.192   3.904 -0.1312 -1.3297 -0.9490
 7680TIP3    H244532   4.369   5.134   4.007 -0.8674  2.1327  1.8509
 7681TIP3   OH244533   3.552   2.618  10.335  0.5294 -0.4260  0.7010
 7681TIP3    H144534   3.579   2.706  10.310  2.1747 -1.1304 -0.0910
 7681TIP3    H244535   3.457   2.617  10.321  0.6109  0.9663 -0.0539
 7682TIP3   OH244536   6.446   1.536   1.280 -0.3700  0.6633  0.4824
 7682TIP3    H144537   6.413   1.517   1.368  0.1980 -3.1625  0.0196
 7682TIP3    H244538   6.398   1.476   1.223  1.2181  1.1119 -1.4293
 7683TIP3   OH244539   4.988   0.224  13.076 -0.1613 -0.6424 -0.2227
 7683TIP3    H144540   5.011   0.146  13.127  0.0397 -0.1294  0.4859
 7683TIP3    H244541   5.020   0.205  12.988  0.1492 -1.2450  0.0146
 7684TIP3   OH244542   3.922   6.822  12.011  0.0749  0.7721  0.3110
 7684TIP3    H144543   3.901   6.915  12.000 -0.9393  0.7914  2.1356
 7684TIP3    H244544   3.960   6.817  12.099 -0.6428 -0.6560  0.5600
 7685TIP3   OH244545   3.142   4.769  15.496  0.0880  0.1819  0.1826
 7685TIP3    H144546   3.220   4.741  15.450 -0.6265 -2.8746  0.6602
 7685TIP3    H244547   3.110   4.691  15.541 -3.7097  1.0338 -0.6266
 7686TIP3   OH244548   5.553   0.406   1.650  0.2908 -0.2026  0.1535
 7686TIP3    H144549   5.644   0.408   1.681  0.8003 -0.5215 -1.2551
 7686TIP3    H244550   5.552   0.464   1.574 -1.0559  1.0107  1.0462
 7687TIP3   OH244551   6.543   2.269  13.394  0.2104  0.6328 -0.0359
 7687TIP3    H144552   6.514   2.283  13.304  0.1596 -1.5611 -0.4152
 7687TIP3    H244553   6.490   2.195  13.425  2.3185 -0.6497  0.7438
 7688TIP3   OH244554   4.293   5.329  15.327 -0.0025  0.5625 -0.0524
 7688TIP3    H144555   4.246   5.412  15.321  0.7546  0.9932 -0.1462
 7688TIP3    H244556   4.239   5.267  15.278 -0.0929  1.2187 -0.8001
 7689TIP3   OH244557   6.312   1.820  12.807 -0.7328  0.2328 -0.4941
 7689TIP3    H144558   6.379   1.763  12.845 -0.4329  0.3100 -0.8918
 7689TIP3    H244559   6.360   1.874  12.744 -0.5914  2.4703  1.4212
 7690TIP3   OH244560   4.830   0.411  17.230 -0.1634 -0.2832 -0.1154
 7690TIP3    H144561   4.813   0.430  17.138 -2.4438  0.1047  0.3255
 7690TIP3    H244562   4.893   0.478  17.257 -1.8202  1.6207 -0.6846
 7691TIP3   OH244563   6.035   4.650  13.411 -0.1554 -0.1385 -0.7066
 7691TIP3    H144564   5.941   4.669  13.408 -0.2137 -0.4825 -1.2353
 7691TIP3    H244565   6.078   4.734  13.397 -0.3816  0.0294 -0.4067
 7692TIP3   OH244566   2.222   3.033  10.770  0.2442 -0.2168  0.2539
 7692TIP3    H144567   2.296   3.075  10.815  1.1485  0.6306 -1.8758
 7692TIP3    H244568   2.262   2.988  10.696 -1.4289  1.2526 -1.6649
 7693TIP3   OH244569   1.850   5.488  12.443  0.0957  0.3833  0.2809
 7693TIP3    H144570   1.864   5.399  12.411 -2.4382  0.2606 -0.6414
 7693TIP3    H244571   1.886   5.544  12.374  1.6229  0.1430  0.8268
 7694TIP3   OH244572   1.732   1.866   5.532  0.1144 -0.6567 -0.1427
 7694TIP3    H144573   1.806   1.926   5.544  0.3207 -0.7449 -0.9495
 7694TIP3    H244574   1.664   1.900   5.590  0.4837 -0.0639 -0.0483
 7695TIP3   OH244575   3.230   1.762   6.431  0.2117 -0.7846 -0.7382
 7695TIP3    H144576   3.301   1.730   6.487  0.7396 -0.1222 -1.0124
 7695TIP3    H244577   3.275   1.813   6.364 -0.6133  0.9141 -0.0533
 7696TIP3   OH244578   3.169   3.803  10.908  0.8868  0.2286 -0.6087
 7696TIP3    H144579   3.106   3.802  10.980  1.8553  0.2368  0.2590
 7696TIP3    H244580   3.209   3.716  10.911  0.9607  0.2463 -1.1103
 7697TIP3   OH244581   3.106   1.078  16.606 -0.2356 -0.1952  0.0773
 7697TIP3    H144582   3.036   1.124  16.560  0.4509  0.5385 -0.2667
 7697TIP3    H244583   3.170   1.057  16.537  0.8411  0.9921  0.6661
 7698TIP3   OH244584   3.668   5.885  12.808  0.2631  0.1052 -0.3254
 7698TIP3    H144585   3.691   5.978  12.797 -0.9191  0.3815 -0.6089
 7698TIP3    H244586   3.645   5.856  12.720 -0.4114 -0.1562 -0.0707
 7699TIP3   OH244587   0.658   1.150   0.560 -0.0500  0.0362 -0.9077
 7699TIP3    H144588   0.722   1.213   0.595 -0.5875  0.6432 -1.0070
 7699TIP3    H244589   0.573   1.182   0.590 -0.2311 -1.4412  0.2506
 7700TIP3   OH244590   1.452   6.038  14.824  0.5897 -0.2477  0.8356
 7700TIP3    H144591   1.539   6.071  14.845  0.7991 -0.3938  0.2485
 7700TIP3    H244592   1.427   5.984  14.899  1.2594 -0.6700  0.7649
 7701TIP3   OH244593   6.271   1.242   0.129 -0.1964  0.0371  0.8527
 7701TIP3    H144594   6.289   1.308   0.196 -1.2661 -0.5428  1.7567
 7701TIP3    H244595   6.189   1.270   0.089 -0.2110 -0.2859  0.6527
 7702TIP3   OH244596   5.426   2.219  13.701 -0.1624 -0.0446  0.2918
 7702TIP3    H144597   5.420   2.306  13.662  2.0726  0.5014  1.0578
 7702TIP3    H244598   5.488   2.172  13.646 -1.6588 -1.3651 -0.3689
 7703TIP3   OH244599   2.028   4.386   1.784  0.4183 -0.1518  0.4574
 7703TIP3    H144600   2.020   4.308   1.729  0.5412  0.4827 -0.4822
 7703TIP3    H244601   2.117   4.417   1.769  0.3046  0.2874  0.6644
 7704TIP3   OH244602   4.453   4.542   0.734  0.6474 -0.2097 -0.1046
 7704TIP3    H144603   4.478   4.633   0.718  0.1472 -0.1133 -0.3281
 7704TIP3    H244604   4.534   4.493   0.721  1.0733  0.2741  0.6571
 7705TIP3   OH244605   0.523   5.215  16.468 -0.4392 -0.4985 -0.3184
 7705TIP3    H144606   0.468   5.202  16.391 -1.8248 -0.2491  0.5694
 7705TIP3    H244607   0.484   5.157  16.534 -0.4978  0.6984  0.7376
 7706TIP3   OH244608   2.166   1.541  16.980 -0.3625  0.6861 -0.7601
 7706TIP3    H144609   2.163   1.585  16.895 -1.4105 -2.8613 -2.7871
 7706TIP3    H244610   2.138   1.451  16.961  0.3231 -0.5577  3.2076
 7707TIP3   OH244611   5.554   0.045   1.849 -0.0304 -0.7797 -0.2814
 7707TIP3    H144612   5.587  -0.003   1.773  0.8866 -2.0285  0.8666
 7707TIP3    H244613   5.471   0.002   1.871  0.4762 -1.4528  0.3569
 7708TIP3   OH244614   2.357   0.304  13.367 -0.1600 -0.5832 -0.0672
 7708TIP3    H144615   2.359   0.229  13.426  0.0612  0.1554  0.8992
 7708TIP3    H244616   2.411   0.370  13.411 -0.8212  0.3416 -0.6100
 7709TIP3   OH244617   2.142   3.906   5.186 -0.7007  0.4756  0.2296
 7709TIP3    H144618   2.107   3.822   5.217 -1.2381  0.5684 -0.1084
 7709TIP3    H244619   2.065   3.954   5.156 -0.5531  1.5468  1.4648
 7710TIP3   OH244620   3.318   3.050   0.397  0.6602 -0.9487  0.2019
 7710TIP3    H144621   3.355   3.114   0.458 -0.9472 -0.3677  0.6008
 7710TIP3    H244622   3.275   3.103   0.330  0.6291 -1.6045 -0.3096
 7711TIP3   OH244623   4.253   3.900  13.935 -0.1017 -0.0556  0.1157
 7711TIP3    H144624   4.263   3.936  13.847 -1.8736 -0.2790 -0.1988
 7711TIP3    H244625   4.291   3.812  13.929  2.4189  0.9165  0.3770
 7712TIP3   OH244626   5.043   6.694   1.572  0.0838  0.2544 -0.5389
 7712TIP3    H144627   5.054   6.648   1.656  0.8343  0.6627 -0.4064
 7712TIP3    H244628   5.086   6.778   1.585 -0.0007  0.4143 -1.2619
 7713TIP3   OH244629   3.571   5.338  15.114  0.5995  0.0964 -1.1914
 7713TIP3    H144630   3.488   5.381  15.133 -0.6413 -1.0350 -3.5472
 7713TIP3    H244631   3.554   5.245  15.126  2.5922 -0.0209  1.6349
 7714TIP3   OH244632   2.604   3.311   2.996  0.0169 -0.6974 -0.3316
 7714TIP3    H144633   2.638   3.287   3.082  2.2698  0.0708 -0.9212
 7714TIP3    H244634   2.633   3.402   2.984 -0.8135 -0.5803 -1.6525
 7715TIP3   OH244635   5.429   6.354  15.768  0.4810  0.4410  0.1844
 7715TIP3    H144636   5.424   6.272  15.817 -0.4163  1.7656  2.4647
 7715TIP3    H244637   5.522   6.376  15.767  0.5041  0.5132  1.6074
 7716TIP3   OH244638   0.560   4.786   0.404 -0.2321  0.2254 -0.1280
 7716TIP3    H144639   0.615   4.857   0.371  0.6341 -0.8585 -1.0781
 7716TIP3    H244640   0.585   4.710   0.352  0.8363 -1.4877  2.6936
 7717TIP3   OH244641   3.459   0.599  15.659  0.3205  0.0882  0.2070
 7717TIP3    H144642   3.370   0.575  15.636  0.6004 -0.6149 -0.1468
 7717TIP3    H244643   3.508   0.594  15.577  0.8568 -0.3153  0.5487
 7718TIP3   OH244644   5.444   1.669  14.204 -0.8412 -0.1710  0.1577
 7718TIP3    H144645   5.414   1.722  14.130 -0.9316 -1.3263 -0.6412
 7718TIP3    H244646   5.455   1.733  14.275 -1.9212  0.7705 -0.4881
 7719TIP3   OH244647   0.955   3.970  16.622 -0.5176 -0.1265  0.8020
 7719TIP3    H144648   0.946   4.040  16.688 -0.5035  0.9706 -0.3220
 7719TIP3    H244649   0.868   3.963  16.583 -0.3995 -0.3998  0.5873
 7720TIP3   OH244650   4.152   0.653   3.149 -0.4887 -0.0907  0.4386
 7720TIP3    H144651   4.161   0.641   3.244  0.2941  1.5853  0.6194
 7720TIP3    H244652   4.196   0.577   3.111  2.8885  1.1442  1.4677
 7721TIP3   OH244653   2.914   5.701   1.145 -0.5516  0.7013 -0.8437
 7721TIP3    H144654   2.951   5.721   1.060  1.0807  1.4604 -0.0025
 7721TIP3    H244655   2.914   5.605   1.150 -0.7336  0.6544 -1.7072
 7722TIP3   OH244656   0.067   5.400   4.991  0.1347  0.0512 -0.5655
 7722TIP3    H144657   0.049   5.319   4.942 -0.4916 -0.8444  1.0611
 7722TIP3    H244658   0.140   5.377   5.049  0.5226  0.9357 -0.6830
 7723TIP3   OH244659   0.793   2.494  13.724 -0.0736  0.9128  0.4010
 7723TIP3    H144660   0.752   2.436  13.788 -2.1676  2.6280  0.7449
 7723TIP3    H244661   0.826   2.435  13.656  0.4228 -0.8126  2.0690
 7724TIP3   OH244662   2.820   2.493   5.781 -0.4962  0.4345  0.1707
 7724TIP3    H144663   2.859   2.409   5.804  0.2143  0.8136  0.3684
 7724TIP3    H244664   2.894   2.551   5.766 -0.9724  0.8053 -0.8228
 7725TIP3   OH244665   6.002   0.568  11.796  0.4701 -0.4927  0.9948
 7725TIP3    H144666   6.047   0.621  11.730  0.5574 -0.3606  1.1628
 7725TIP3    H244667   5.948   0.630  11.844 -0.1982 -0.7030  0.5415
 7726TIP3   OH244668   2.347   4.735   3.287 -0.1141 -0.2002  0.9099
 7726TIP3    H144669   2.368   4.721   3.195 -2.8022 -0.0488  0.1916
 7726TIP3    H244670   2.397   4.814   3.311  2.5961 -1.6372  0.4056
 7727TIP3   OH244671   4.687   4.613  11.450 -0.1319  0.8006 -0.1766
 7727TIP3    H144672   4.753   4.590  11.516 -2.1946  1.8202  2.4513
 7727TIP3    H244673   4.737   4.655  11.380  2.0403  1.5811  1.6940
 7728TIP3   OH244674   1.186   2.209   2.104  0.3138 -0.4765  0.1488
 7728TIP3    H144675   1.190   2.120   2.069  0.4159 -0.8830  1.1563
 7728TIP3    H244676   1.097   2.217   2.138  0.6934 -0.6716  1.2366
 7729TIP3   OH244677   6.552   3.339  15.068  0.0071 -0.2903 -0.9261
 7729TIP3    H144678   6.493   3.393  15.120 -1.3914 -1.0029 -1.7167
 7729TIP3    H244679   6.603   3.289  15.132 -0.0549  0.5285 -0.2277
 7730TIP3   OH244680   0.562   2.907  12.768 -0.3619 -1.0940  0.0214
 7730TIP3    H144681   0.649   2.926  12.804  0.3398 -0.9734 -1.6277
 7730TIP3    H244682   0.567   2.816  12.739 -0.7798 -1.0807 -0.0956
 7731TIP3   OH244683   5.724   2.286  16.446  0.4086 -0.0565  0.1474
 7731TIP3    H144684   5.721   2.327  16.360 -0.0780 -0.9000 -0.2447
 7731TIP3    H244685   5.732   2.360  16.507 -0.2810  0.6153 -0.5510
 7732TIP3   OH244686   3.057   2.072  11.604 -0.1744  0.4199  0.0602
 7732TIP3    H144687   3.089   1.985  11.629  0.8972  0.2535 -1.6884
 7732TIP3    H244688   2.975   2.083  11.652 -0.0741 -1.3570  0.6912
 7733TIP3   OH244689   5.994   3.855  13.137 -0.2900 -0.2662  0.1407
 7733TIP3    H144690   6.028   3.820  13.219 -0.8435  0.0366  0.5111
 7733TIP3    H244691   5.938   3.786  13.103 -0.3085 -0.2706  0.1799
 7734TIP3   OH244692   4.679   0.192  12.582 -0.1052 -0.0138 -0.2460
 7734TIP3    H144693   4.730   0.179  12.502 -1.0417 -0.5919 -0.7601
 7734TIP3    H244694   4.663   0.286  12.584 -0.3393 -0.0322 -0.9092
 7735TIP3   OH244695   0.583   0.166   2.658 -0.4607  0.1631  0.0431
 7735TIP3    H144696   0.560   0.257   2.641 -1.3050  0.4336  2.3280
 7735TIP3    H244697   0.669   0.171   2.700 -0.7602 -0.0285  0.6900
 7736TIP3   OH244698   3.062   5.538  12.557 -0.0277  0.3278 -0.0591
 7736TIP3    H144699   3.109   5.520  12.475 -2.6064 -1.3406 -1.2794
 7736TIP3    H244700   3.130   5.531  12.625  1.8573  0.0912 -1.8547
 7737TIP3   OH244701   0.977   2.925   5.068  0.1290 -0.5342  0.6666
 7737TIP3    H144702   1.005   2.889   5.152 -0.2153 -1.0441  0.5710
 7737TIP3    H244703   0.968   3.019   5.084  0.3027 -0.5936  1.1340
 7738TIP3   OH244704   5.432   0.109  11.752 -0.0754 -0.0032 -0.0730
 7738TIP3    H144705   5.522   0.079  11.738  0.7378  1.7346  1.1528
 7738TIP3    H244706   5.379   0.029  11.742  1.1985 -0.5755 -3.8419
 7739TIP3   OH244707   1.455   1.933  12.707  0.8272 -0.2605 -0.1365
 7739TIP3    H144708   1.453   2.000  12.776 -1.8926 -0.5816  0.2169
 7739TIP3    H244709   1.457   1.850  12.755 -1.6104 -0.5047 -0.3020
 7740TIP3   OH244710   4.087   6.066   1.766 -0.5103 -0.5795  0.3734
 7740TIP3    H144711   4.087   6.092   1.674  0.0777  2.9732  1.2553
 7740TIP3    H244712   4.177   6.079   1.795 -1.2971  1.3354  2.1453
 7741TIP3   OH244713   1.447   4.750  14.731 -0.3356  0.1771  0.7286
 7741TIP3    H144714   1.374   4.805  14.703 -0.3993 -1.1572 -1.9499
 7741TIP3    H244715   1.411   4.661  14.736  1.2349 -0.6746 -1.5746
 7742TIP3   OH244716   5.924   2.118   5.139 -0.5100  0.3415  0.2304
 7742TIP3    H144717   5.983   2.158   5.074 -0.7260  0.1975 -0.0578
 7742TIP3    H244718   5.927   2.177   5.214 -0.5173  0.6858 -0.0383
 7743TIP3   OH244719   5.622   5.497   0.012 -0.1940  0.1963  0.2091
 7743TIP3    H144720   5.647   5.545   0.090  3.0697  0.8925 -1.0780
 7743TIP3    H244721   5.584   5.563  -0.046 -0.8390  0.0689  0.4821
 7744TIP3   OH244722   5.459   1.914  13.855 -0.4004  0.5731  0.0759
 7744TIP3    H144723   5.509   1.863  13.791 -0.6088  0.5547 -0.0757
 7744TIP3    H244724   5.463   2.004  13.822  0.7328  0.8241  0.8240
 7745TIP3   OH244725   6.469   4.447  10.846  0.3345  0.2426  0.1432
 7745TIP3    H144726   6.484   4.537  10.878 -1.7115  0.9273 -0.6938
 7745TIP3    H244727   6.381   4.449  10.810  0.3353 -2.0847 -0.0956
 7746TIP3   OH244728   0.303   0.426  12.968  0.6739  0.1653 -0.5341
 7746TIP3    H144729   0.272   0.340  12.997 -0.4622  0.8291  0.2603
 7746TIP3    H244730   0.234   0.459  12.910 -0.0877  1.5873  1.1233
 7747TIP3   OH244731   0.917   6.182  11.868 -0.4686  0.0917  0.2618
 7747TIP3    H144732   0.944   6.098  11.832  1.2634 -0.0548  1.7585
 7747TIP3    H244733   0.974   6.246  11.826  0.6911  0.0608  1.7000
 7748TIP3   OH244734   6.357   3.197   6.169 -0.2900  0.0756 -0.1360
 7748TIP3    H144735   6.397   3.159   6.247  1.7138 -0.0438 -1.1711
 7748TIP3    H244736   6.263   3.190   6.185  0.0152 -2.6058  1.0035
 7749TIP3   OH244737   0.493   6.717  14.971 -0.3945 -0.3652 -0.1133
 7749TIP3    H144738   0.452   6.757  14.894  1.5777 -0.6317 -1.3843
 7749TIP3    H244739   0.463   6.626  14.968 -1.2824 -0.0919  0.1510
 7750TIP3   OH244740   6.501   0.526   1.291  0.4034 -0.3369 -0.0310
 7750TIP3    H144741   6.559   0.516   1.366  0.4020  1.8840  0.3126
 7750TIP3    H244742   6.418   0.557   1.328 -0.3852 -1.5258 -0.7283
 7751TIP3   OH244743   1.416   5.733  10.979 -0.1624  0.5489 -0.0046
 7751TIP3    H144744   1.510   5.745  10.961 -0.3176  1.9167 -0.0518
 7751TIP3    H244745   1.377   5.717  10.893  0.0133  0.0351  0.0080
 7752TIP3   OH244746   1.409   5.039   5.434 -0.1469 -0.4759  0.2923
 7752TIP3    H144747   1.357   5.119   5.422  1.6403  0.5549 -1.3601
 7752TIP3    H244748   1.372   4.976   5.372  0.1780  0.0682 -0.4784
 7753TIP3   OH244749   0.964   0.690  10.744  0.8691  0.1095  0.3238
 7753TIP3    H144750   0.968   0.720  10.653  0.1375 -2.0988 -0.4908
 7753TIP3    H244751   0.912   0.757  10.789  1.3880  1.3216 -0.8103
 7754TIP3   OH244752   3.171   1.968  14.158 -0.4878  0.0540  0.6831
 7754TIP3    H144753   3.191   1.955  14.251 -0.2259  2.1997  0.9748
 7754TIP3    H244754   3.243   1.925  14.112  0.1814  0.2431  1.5224
 7755TIP3   OH244755   4.010   2.945   4.847  0.7983 -0.2205  0.2849
 7755TIP3    H144756   3.957   3.016   4.811  0.0817 -1.0096 -0.2591
 7755TIP3    H244757   4.074   2.926   4.779  0.4688 -0.6294  0.0811
 7756TIP3   OH244758   0.403   3.461  13.275 -0.3031 -0.0166 -0.1691
 7756TIP3    H144759   0.442   3.433  13.192 -0.4229 -1.4152  0.2135
 7756TIP3    H244760   0.439   3.400  13.340 -0.9318  0.4693  0.6507
 7757TIP3   OH244761   1.719   2.350  12.727  0.1310 -0.0624 -0.0037
 7757TIP3    H144762   1.723   2.381  12.818 -1.7515 -0.1227  0.1378
 7757TIP3    H244763   1.631   2.315  12.717  0.1227  0.4078 -2.0206
 7758TIP3   OH244764   5.969   2.785   5.735  0.3099  0.0514  0.1726
 7758TIP3    H144765   5.875   2.780   5.716  0.1411 -1.0553  1.1988
 7758TIP3    H244766   5.989   2.878   5.731 -0.6664  0.2523 -0.7877
 7759TIP3   OH244767   3.061   6.701   2.555 -0.4835 -0.7678  0.1304
 7759TIP3    H144768   3.134   6.759   2.578 -1.7613  0.3020  1.7784
 7759TIP3    H244769   3.089   6.657   2.475  0.9156  1.5145 -0.7392
 7760TIP3   OH244770   5.222   3.119   1.791  0.1021  0.1953 -0.1150
 7760TIP3    H144771   5.134   3.152   1.807  0.3505  0.2286  1.2915
 7760TIP3    H244772   5.225   3.104   1.697 -0.9780  1.4062 -0.3635
 7761TIP3   OH244773   4.337   5.540   2.114 -0.5523 -0.7720  0.3138
 7761TIP3    H144774   4.267   5.477   2.131  0.1230 -1.4287  0.7031
 7761TIP3    H244775   4.359   5.575   2.201 -0.1430 -0.8365  0.2357
 7762TIP3   OH244776   2.647   6.315   5.158  0.2431 -0.3208 -0.4395
 7762TIP3    H144777   2.631   6.246   5.222 -0.7346 -0.5611 -0.9089
 7762TIP3    H244778   2.704   6.275   5.093  1.1486 -0.1094  0.2184
 7763TIP3   OH244779   4.296   5.810   4.540 -0.4793  0.3019 -0.2440
 7763TIP3    H144780   4.307   5.905   4.542  0.1599  0.2336 -0.2942
 7763TIP3    H244781   4.296   5.783   4.632 -1.1859  0.4044 -0.2111
 7764TIP3   OH244782   3.903   2.796  12.523 -0.2100 -0.0935 -0.3131
 7764TIP3    H144783   3.881   2.827  12.611  0.4000 -1.4776  0.3546
 7764TIP3    H244784   3.961   2.862  12.487  1.1886 -0.4998  1.1257
 7765TIP3   OH244785   2.768   3.381   0.923  0.1682  0.1284  0.0334
 7765TIP3    H144786   2.854   3.388   0.965  0.9026  0.9141 -1.5258
 7765TIP3    H244787   2.756   3.466   0.881 -2.4867  0.9871  2.1945
 7766TIP3   OH244788   3.701   2.762   0.339  0.0664 -0.3020  0.1310
 7766TIP3    H144789   3.738   2.835   0.290 -0.5926  1.1728  1.7329
 7766TIP3    H244790   3.775   2.703   0.353  0.4564 -0.3297 -1.7935
 7767TIP3   OH244791   5.999   0.839  15.764  0.1867 -0.9433  0.2576
 7767TIP3    H144792   5.987   0.898  15.839  0.2762  1.2421 -1.3499
 7767TIP3    H244793   5.993   0.751  15.802  0.9396  0.0389  2.9327
 7768TIP3   OH244794   4.393   2.887   5.460  0.0004 -0.3936  0.0226
 7768TIP3    H144795   4.445   2.930   5.392  1.9849 -2.6152  0.0172
 7768TIP3    H244796   4.319   2.849   5.413  0.8088 -1.0404 -0.7620
 7769TIP3   OH244797   6.207   2.332  15.414  0.1561 -0.0289 -0.3545
 7769TIP3    H144798   6.203   2.273  15.490 -0.3338  1.0329  0.4741
 7769TIP3    H244799   6.122   2.321  15.371 -0.4007  0.8814  0.4593
 7770TIP3   OH244800   4.515   0.200   2.466 -0.3668 -0.2871 -0.5340
 7770TIP3    H144801   4.526   0.141   2.541 -1.3093  0.5386  0.2918
 7770TIP3    H244802   4.428   0.179   2.432  0.1782 -0.8651 -1.6139
 7771TIP3   OH244803   5.099   6.577   3.529 -0.1159  0.0142 -0.3673
 7771TIP3    H144804   5.043   6.522   3.584  0.4907  0.4447  0.7159
 7771TIP3    H244805   5.062   6.665   3.538  0.2243  0.1539 -0.3371
 7772TIP3   OH244806   2.116   3.511   2.779 -0.1470 -0.2533 -0.0527
 7772TIP3    H144807   2.200   3.483   2.815 -0.3547 -0.0669  0.5828
 7772TIP3    H244808   2.089   3.585   2.833 -0.5214 -0.0423 -0.5180
 7773TIP3   OH244809   5.071   1.689  13.210  0.5990  0.3262 -0.0989
 7773TIP3    H144810   5.051   1.647  13.293 -0.7313 -0.2147 -0.6684
 7773TIP3    H244811   4.995   1.671  13.154  0.7024  2.1022 -0.8920
 7774TIP3   OH244812   6.470   2.911   1.581 -0.0653 -0.2954  0.3728
 7774TIP3    H144813   6.565   2.922   1.591 -0.1008 -1.1575  2.0286
 7774TIP3    H244814   6.460   2.828   1.536 -0.0301  0.6343 -1.4214
 7775TIP3   OH244815   2.958   1.421   0.577 -0.4239 -0.6619 -0.0044
 7775TIP3    H144816   2.872   1.445   0.542  0.3804  1.6670 -0.6057
 7775TIP3    H244817   2.984   1.496   0.631  1.2144 -1.3036  0.1605
 7776TIP3   OH244818   4.408   0.089  15.391 -0.0885  0.5542  0.3876
 7776TIP3    H144819   4.320   0.114  15.420 -0.5287 -0.3247 -0.1203
 7776TIP3    H244820   4.433   0.158  15.329 -1.1452 -0.0265 -0.7526
 7777TIP3   OH244821   3.718   2.184   4.636  0.4321  0.1383 -0.4502
 7777TIP3    H144822   3.794   2.199   4.580 -0.3146  2.2317 -0.9856
 7777TIP3    H244823   3.706   2.089   4.635  3.3061 -0.3121  0.0527
 7778TIP3   OH244824   2.373   5.199   0.961 -0.2007 -0.0364  0.8858
 7778TIP3    H144825   2.463   5.205   0.994 -0.5936 -1.4102  2.3153
 7778TIP3    H244826   2.364   5.109   0.931 -1.1141  0.0603  0.8407
 7779TIP3   OH244827   5.144   1.224   0.737 -0.3268  0.1442  0.3839
 7779TIP3    H144828   5.053   1.240   0.711 -0.4020 -1.1475 -0.1905
 7779TIP3    H244829   5.188   1.308   0.722 -1.4650  0.8699  0.9215
 7780TIP3   OH244830   2.354   5.906  15.399 -0.4096 -0.2828 -0.0186
 7780TIP3    H144831   2.268   5.868  15.382 -0.3754 -0.2620 -0.2379
 7780TIP3    H244832   2.336   5.996  15.423 -0.3773  0.0479 -1.1706
 7781TIP3   OH244833   4.196   1.730   2.469 -0.1548  0.5686  0.3616
 7781TIP3    H144834   4.143   1.809   2.459  0.8536  1.5218  2.1239
 7781TIP3    H244835   4.139   1.660   2.437 -1.7242  1.7844  0.3375
 7782TIP3   OH244836   4.809   6.473  16.558 -0.3893 -0.0156 -0.1171
 7782TIP3    H144837   4.803   6.401  16.621 -1.0668 -0.9074 -1.1497
 7782TIP3    H244838   4.748   6.539  16.591 -3.4306 -1.9077 -1.5589
 7783TIP3   OH244839   2.023   3.606  11.411 -0.5976  0.0742 -0.7628
 7783TIP3    H144840   2.090   3.627  11.477 -1.3531 -0.3613  0.1605
 7783TIP3    H244841   2.017   3.685  11.358  0.0334  0.4380 -0.3111
 7784TIP3   OH244842   3.919   4.594  15.853 -0.6579  0.8092  0.4820
 7784TIP3    H144843   3.962   4.552  15.779 -2.0271  1.1540 -0.5580
 7784TIP3    H244844   3.939   4.539  15.929 -1.7517 -1.2853 -0.6891
 7785TIP3   OH244845   3.315   1.733   1.498 -0.1011  0.1919 -0.3392
 7785TIP3    H144846   3.339   1.669   1.431 -0.1794  0.9345 -1.0901
 7785TIP3    H244847   3.363   1.706   1.576 -1.5788 -1.9109 -0.0650
 7786TIP3   OH244848   0.811   6.565  15.646 -1.1354  0.4503  0.5465
 7786TIP3    H144849   0.803   6.630  15.715 -1.8907 -0.7210  1.6009
 7786TIP3    H244850   0.739   6.504  15.661 -0.3736 -0.7132 -0.3108
 7787TIP3   OH244851   1.024   5.958   2.597 -0.6788 -0.0477 -0.5361
 7787TIP3    H144852   0.942   5.910   2.596 -0.4481 -0.5157  0.8285
 7787TIP3    H244853   1.019   6.013   2.676  0.2856 -0.0580 -0.4494
 7788TIP3   OH244854   4.877   2.070  16.290  0.4652 -0.0767  0.6144
 7788TIP3    H144855   4.895   2.131  16.219  1.3273 -0.8941  0.1092
 7788TIP3    H244856   4.784   2.082  16.309  0.6016  1.3513  0.5156
 7789TIP3   OH244857   3.453   6.528   2.111 -0.0724  0.2209 -0.2568
 7789TIP3    H144858   3.469   6.597   2.047 -0.6496  0.9018  0.3122
 7789TIP3    H244859   3.526   6.467   2.101  1.1153  1.5578  0.0959
 7790TIP3   OH244860   0.763   1.719   5.364  0.0315  0.2695  0.6196
 7790TIP3    H144861   0.770   1.795   5.306 -0.5838  1.3862  1.9514
 7790TIP3    H244862   0.830   1.733   5.430 -0.0971 -0.3452  0.8825
 7791TIP3   OH244863   1.488   0.627   0.881  0.1000 -0.2455  0.2121
 7791TIP3    H144864   1.454   0.695   0.939  0.0102  1.4251 -1.7069
 7791TIP3    H244865   1.572   0.662   0.850 -0.8849 -0.0084 -2.3891
 7792TIP3   OH244866   6.693   1.474   1.116  0.2430  0.1934 -0.3308
 7792TIP3    H144867   6.617   1.474   1.174  0.4252 -1.0427 -0.0517
 7792TIP3    H244868   6.753   1.537   1.155  0.1248 -0.2025  0.5097
 7793TIP3   OH244869   0.460   2.998  15.168  0.0231 -0.0725  0.1420
 7793TIP3    H144870   0.501   3.084  15.169  3.0557 -1.3875 -0.4060
 7793TIP3    H244871   0.466   2.967  15.259  0.3245 -0.2944  0.0488
 7794TIP3   OH244872   0.447   2.506  13.598 -0.4148  0.4912 -0.0908
 7794TIP3    H144873   0.515   2.443  13.573 -0.7523  1.0822 -2.8065
 7794TIP3    H244874   0.372   2.483  13.543 -2.2965  0.2328  2.4067
 7795TIP3   OH244875   0.402   6.121   1.956 -0.3479 -0.2652 -0.3142
 7795TIP3    H144876   0.354   6.099   2.036  0.4977 -0.2676  0.1990
 7795TIP3    H244877   0.423   6.213   1.965 -0.6498 -0.1509 -0.7545
 7796TIP3   OH244878   6.265   2.866  12.395 -0.1367 -0.3318 -0.4153
 7796TIP3    H144879   6.205   2.846  12.323  0.8760  0.6145 -1.5801
 7796TIP3    H244880   6.273   2.962  12.392  1.7394 -0.4546 -0.5998
 7797TIP3   OH244881   1.210   1.814  15.501 -0.0451  0.1127 -0.5883
 7797TIP3    H144882   1.238   1.725  15.482 -0.4732 -0.5953  1.7841
 7797TIP3    H244883   1.291   1.865  15.501  0.4352 -0.6351 -0.2193
 7798TIP3   OH244884   2.650   3.828  15.439 -0.1145  0.2668  0.0440
 7798TIP3    H144885   2.570   3.837  15.387 -0.0412 -1.7672 -0.5077
 7798TIP3    H244886   2.627   3.863  15.524 -2.2548 -1.8832  0.4768
 7799TIP3   OH244887   3.746   6.324   3.927  0.3008 -0.1708 -0.2666
 7799TIP3    H144888   3.663   6.309   3.973 -0.0733 -0.6111 -1.0631
 7799TIP3    H244889   3.741   6.415   3.898 -0.7019 -0.6925 -1.8466
 7800TIP3   OH244890   3.671   4.445   0.425  0.1934 -0.5737 -0.3778
 7800TIP3    H144891   3.704   4.481   0.343 -0.6810 -0.9001 -0.8896
 7800TIP3    H244892   3.694   4.353   0.422 -0.6433 -0.7819 -0.6932
 7801TIP3   OH244893   4.877   6.059  12.642  0.3612  0.2483 -0.3490
 7801TIP3    H144894   4.850   5.967  12.650 -0.0783  0.3561 -0.5527
 7801TIP3    H244895   4.812   6.108  12.692 -1.3311  0.7394 -2.8377
 7802TIP3   OH244896   2.914   1.161  11.593  0.2851  0.1962 -0.1130
 7802TIP3    H144897   2.914   1.212  11.675  1.3275  1.0591 -0.6288
 7802TIP3    H244898   2.988   1.102  11.601  0.6886  0.6207 -0.6224
 7803TIP3   OH244899   1.561   5.246   6.213  0.8752 -0.1692 -0.0001
 7803TIP3    H144900   1.573   5.223   6.305  1.3977 -1.9406 -0.4715
 7803TIP3    H244901   1.536   5.164   6.170  0.4245  0.6649 -1.4012
 7804TIP3   OH244902   4.634   6.466  12.128 -0.8179  0.0634  0.0355
 7804TIP3    H144903   4.665   6.452  12.039 -0.9675 -1.7207  0.2199
 7804TIP3    H244904   4.553   6.516  12.118 -0.7884 -0.0492 -0.8188
 7805TIP3   OH244905   3.286   1.205   1.738 -0.9638  0.7345 -0.3532
 7805TIP3    H144906   3.256   1.221   1.827 -1.6147  0.1558 -0.4694
 7805TIP3    H244907   3.358   1.143   1.748 -2.0612 -0.5731 -0.3409
 7806TIP3   OH244908   3.071   1.029   1.643 -0.1292 -0.0674 -0.2666
 7806TIP3    H144909   3.110   0.965   1.584 -0.9641 -0.1087 -0.7915
 7806TIP3    H244910   3.130   1.104   1.639  0.8457 -0.7867  0.3399
 7807TIP3   OH244911   1.687   3.024   3.042 -0.3509  0.2540  0.1519
 7807TIP3    H144912   1.621   2.996   3.105 -0.4351  0.3939  0.1270
 7807TIP3    H244913   1.643   3.090   2.989 -0.8894 -1.1970 -1.2971
 7808TIP3   OH244914   1.685   0.476  13.117 -0.0623 -0.0675  0.2544
 7808TIP3    H144915   1.616   0.536  13.087  0.6156  0.4297 -0.3669
 7808TIP3    H244916   1.650   0.389  13.100 -1.2090  0.1073  1.4768
 7809TIP3   OH244917   2.459   1.593  15.239 -0.0955  0.1114  0.5302
 7809TIP3    H144918   2.429   1.663  15.181  0.2444 -0.6198 -0.5526
 7809TIP3    H244919   2.551   1.581  15.216 -0.1771 -0.7509  0.6356
 7810TIP3   OH244920   4.433   1.698  12.790 -0.3243 -0.3265 -0.4224
 7810TIP3    H144921   4.369   1.658  12.730  0.9036 -1.3180 -1.1133
 7810TIP3    H244922   4.397   1.682  12.877 -2.3983  1.5776 -0.8565
 7811TIP3   OH244923   4.325   1.825  16.400 -0.6040  0.7066  0.1904
 7811TIP3    H144924   4.249   1.768  16.392  0.0024 -0.0642 -0.2351
 7811TIP3    H244925   4.362   1.805  16.486 -0.1524  0.1432 -0.1283
 7812TIP3   OH244926   2.041   6.127   2.796  0.4525  0.4485  0.2842
 7812TIP3    H144927   2.090   6.046   2.781  0.1660  0.4067 -0.4401
 7812TIP3    H244928   2.044   6.139   2.891  0.2045 -0.5963  0.4386
 7813TIP3   OH244929   5.379   6.448  14.064 -0.4308  0.3339 -0.3211
 7813TIP3    H144930   5.319   6.375  14.081 -0.1709  0.7189  2.8941
 7813TIP3    H244931   5.462   6.406  14.042 -1.4307 -0.2061 -3.5947
 7814TIP3   OH244932   3.591   3.699   4.590 -0.0949  0.2352  0.0171
 7814TIP3    H144933   3.675   3.668   4.626 -0.0972  0.5554  0.2962
 7814TIP3    H244934   3.570   3.777   4.641  0.2391  1.0927 -1.1270
 7815TIP3   OH244935   3.476   6.414   4.827 -0.4504  0.0130 -0.2248
 7815TIP3    H144936   3.466   6.330   4.871  0.0339 -0.8872 -1.7754
 7815TIP3    H244937   3.565   6.443   4.850 -0.6647  0.1804  0.4132
 7816TIP3   OH244938   5.304   1.367  11.149 -0.7580 -0.8842  0.0690
 7816TIP3    H144939   5.257   1.381  11.067 -0.1724  1.9342  0.0878
 7816TIP3    H244940   5.370   1.302  11.128  0.4709  0.9524 -2.2605
 7817TIP3   OH244941   5.269   4.481  12.917  0.1718 -0.1101  0.1242
 7817TIP3    H144942   5.215   4.411  12.881  0.0997  0.3015 -0.5709
 7817TIP3    H244943   5.274   4.547  12.848  0.5395  0.4140  0.6355
 7818TIP3   OH244944   1.724   4.666  16.970  0.4240  0.0971 -0.0394
 7818TIP3    H144945   1.783   4.733  17.004 -2.4539  2.7376  0.1203
 7818TIP3    H244946   1.694   4.618  17.047  0.4114  0.4279  0.1596
 7819TIP3   OH244947   1.154   4.361  14.640 -0.4682  0.0041  0.1940
 7819TIP3    H144948   1.225   4.297  14.639  0.5288  1.0725 -1.5868
 7819TIP3    H244949   1.149   4.394  14.550 -2.4684  0.8061  0.5358
 7820TIP3   OH244950   4.237   6.522  12.465  0.1676  0.3912 -0.8611
 7820TIP3    H144951   4.250   6.567  12.381  0.9520 -0.2400 -1.0872
 7820TIP3    H244952   4.164   6.462  12.448  0.8934 -0.3708 -1.3666
 7821TIP3   OH244953   2.808   0.327  12.393  0.2491  0.2795  0.1984
 7821TIP3    H144954   2.814   0.416  12.426  0.8001 -0.2180  1.5034
 7821TIP3    H244955   2.859   0.275  12.455 -1.6330 -1.2318  0.5500
 7822TIP3   OH244956   1.289   4.356   3.564 -0.2699  0.2113  0.1717
 7822TIP3    H144957   1.336   4.335   3.645 -2.0171 -0.5502  1.0274
 7822TIP3    H244958   1.266   4.448   3.573  1.4250  0.7378 -0.4832
 7823TIP3   OH244959   4.858   6.354  12.753  0.6125 -0.2383 -0.0236
 7823TIP3    H144960   4.819   6.436  12.723 -0.8662 -0.9209 -0.0968
 7823TIP3    H244961   4.840   6.351  12.846 -2.2655 -1.8819 -0.5070
 7824TIP3   OH244962   6.159   3.979  11.249  0.1638  0.4073  0.3168
 7824TIP3    H144963   6.153   3.952  11.341 -0.8290  2.6465  0.9643
 7824TIP3    H244964   6.214   4.057  11.250 -0.5569  0.9505 -0.8773
 7825TIP3   OH244965   2.836   2.156  11.190 -0.2523 -0.4651  0.1419
 7825TIP3    H144966   2.908   2.094  11.200 -1.1494 -1.7737 -1.1007
 7825TIP3    H244967   2.759   2.102  11.175 -1.1568  0.9405 -0.5479
 7826TIP3   OH244968   6.737   3.366   3.772  0.2644  0.0058  0.7528
 7826TIP3    H144969   6.681   3.338   3.844  0.4906  1.1588  1.4021
 7826TIP3    H244970   6.738   3.462   3.778  0.2819  0.1390 -0.7877
 7827TIP3   OH244971   4.483   3.415  13.815  0.3156  0.5572 -0.5267
 7827TIP3    H144972   4.531   3.373  13.744  0.4886 -0.9604  0.4564
 7827TIP3    H244973   4.390   3.402  13.793  0.3207 -2.2782  0.7892
 7828TIP3   OH244974   2.906   0.002  12.038 -0.0938 -0.4234  0.0363
 7828TIP3    H144975   2.909  -0.080  11.988 -0.0260 -0.1552 -0.4029
 7828TIP3    H244976   2.992   0.009  12.079 -0.6839 -1.4790  1.5560
 7829TIP3   OH244977   2.467   1.033   4.684  0.3957  0.0700 -0.0457
 7829TIP3    H144978   2.459   1.004   4.593  0.9574  0.0061 -0.0811
 7829TIP3    H244979   2.493   0.955   4.732 -1.3467 -0.2386  0.4312
 7830TIP3   OH244980   2.799   2.248  14.085 -0.2666 -0.1437  0.1774
 7830TIP3    H144981   2.806   2.304  14.007 -2.0243 -0.9672 -0.6046
 7830TIP3    H244982   2.726   2.190  14.067  1.1452 -2.3612  1.2150
 7831TIP3   OH244983   4.704   3.900  12.181 -0.7166  0.0946 -0.0569
 7831TIP3    H144984   4.662   3.896  12.095  0.6536  0.3328 -0.7765
 7831TIP3    H244985   4.725   3.809  12.201 -0.1664  0.1288 -0.4454
 7832TIP3   OH244986   1.950   5.007   4.114 -0.4766 -0.1071 -0.2934
 7832TIP3    H144987   1.965   4.969   4.027  0.4869  0.9624 -0.6260
 7832TIP3    H244988   1.855   5.010   4.123 -0.6156 -2.9060 -0.0644
 7833TIP3   OH244989   5.483   2.328   2.215  0.4750  0.6075  0.4422
 7833TIP3    H144990   5.494   2.236   2.194 -0.0487  0.7020 -0.3048
 7833TIP3    H244991   5.438   2.329   2.299  2.5623  0.2082  1.6277
 7834TIP3   OH244992   0.433   1.280  14.502  0.2745 -0.3382 -0.4870
 7834TIP3    H144993   0.475   1.211  14.553  0.3533 -0.0435 -0.1525
 7834TIP3    H244994   0.498   1.304  14.436  0.7703  0.3482  0.2339
 7835TIP3   OH244995   1.217   2.036   3.047 -0.5751 -0.1687 -0.3939
 7835TIP3    H144996   1.284   2.095   3.083 -1.8527  0.5377  0.9292
 7835TIP3    H244997   1.162   2.014   3.122 -0.6048 -2.4649 -1.0126
 7836TIP3   OH244998   2.085   1.087  12.376  0.4932  0.2629  0.3544
 7836TIP3    H144999   1.990   1.100  12.381  0.4740  0.2884 -0.0968
 7836TIP3    H245000   2.121   1.163  12.421  0.2850 -0.1282  1.2041
 7837TIP3   OH245001   1.750   2.869   3.433  0.4613 -0.5297  0.1795
 7837TIP3    H145002   1.796   2.804   3.485 -0.9824 -2.9513 -1.3829
 7837TIP3    H245003   1.799   2.873   3.351 -0.6232 -1.2313 -0.5243
 7838TIP3   OH245004   3.358   4.738   0.351  0.0729  0.8125  0.1399
 7838TIP3    H145005   3.383   4.661   0.402 -0.5028  0.1770 -0.5181
 7838TIP3    H245006   3.303   4.704   0.280  1.2877  1.5822 -1.2430
 7839TIP3   OH245007   0.022   2.660  13.571  0.0918  0.3518 -0.2331
 7839TIP3    H145008   0.087   2.705  13.518  1.0607 -0.3073  0.3559
 7839TIP3    H245009  -0.038   2.619  13.508  1.2117 -0.4050 -0.8383
 7840TIP3   OH245010   4.721   4.247   4.303 -0.3099  0.8124  0.0472
 7840TIP3    H145011   4.753   4.327   4.345 -0.0563  1.8251 -1.9261
 7840TIP3    H245012   4.754   4.253   4.213 -1.0984 -1.0581 -0.4117
 7841TIP3   OH245013   4.537   3.865  16.354  0.3001  0.6169 -0.1192
 7841TIP3    H145014   4.497   3.837  16.437  0.2765 -0.3739 -0.4500
 7841TIP3    H245015   4.588   3.789  16.326  1.4219  1.4306 -0.3262
 7842TIP3   OH245016   4.139   3.056   3.530  0.2282 -0.4102  0.9243
 7842TIP3    H145017   4.197   3.097   3.466 -1.0753 -1.1410 -0.8085
 7842TIP3    H245018   4.106   3.129   3.583 -0.7244  0.6280 -0.9933
 7843TIP3   OH245019   0.911   5.733  15.401  0.5556  0.3878  0.1901
 7843TIP3    H145020   0.817   5.718  15.415 -0.0595  3.5394  0.4020
 7843TIP3    H245021   0.955   5.673  15.461 -1.3804 -0.1727  1.1324
 7844TIP3   OH245022   6.420   6.586   0.457  0.7874 -0.2058  0.4930
 7844TIP3    H145023   6.450   6.637   0.533  0.4792 -1.6609  1.6460
 7844TIP3    H245024   6.458   6.499   0.470  2.2695 -0.0326 -2.0393
 7845TIP3   OH245025   5.179   1.531  15.482  0.0251 -0.1568  0.2390
 7845TIP3    H145026   5.187   1.439  15.508  1.2321 -0.1123  0.0938
 7845TIP3    H245027   5.093   1.537  15.441  0.8037 -1.7644 -1.8069
 7846TIP3   OH245028   0.933   4.839  11.477  0.2581  0.0485  0.3607
 7846TIP3    H145029   0.899   4.882  11.555  0.6386  1.0294  0.0077
 7846TIP3    H245030   0.866   4.775  11.453 -0.2978  0.4095  0.9384
 7847TIP3   OH245031   1.145   6.186   6.019  0.5064  0.1099  0.1902
 7847TIP3    H145032   1.168   6.279   6.012 -1.7906  0.7664  0.5231
 7847TIP3    H245033   1.216   6.148   6.071  1.1404  1.8245  0.6704
 7848TIP3   OH245034   3.320   0.943  10.488  0.3867 -0.7183 -0.1536
 7848TIP3    H145035   3.389   0.880  10.507  0.1325 -0.6891  0.9159
 7848TIP3    H245036   3.364   1.028  10.487  0.7026 -0.8741 -1.4519
 7849TIP3   OH245037   1.647   5.321   2.379  0.2007 -0.4595 -0.3072
 7849TIP3    H145038   1.579   5.268   2.421 -1.0678  1.2016 -0.1705
 7849TIP3    H245039   1.719   5.321   2.443  0.2260 -1.9420 -0.2965
 7850TIP3   OH245040   3.438   2.413   1.730  0.2151  0.1231  0.2661
 7850TIP3    H145041   3.348   2.398   1.756 -0.0686  0.3184 -0.5828
 7850TIP3    H245042   3.467   2.486   1.785 -0.0455 -0.1387  0.7497
 7851TIP3   OH245043   3.438   1.878  11.270 -0.0764 -0.4235 -0.0620
 7851TIP3    H145044   3.533   1.872  11.285 -0.1044  0.8315  0.7761
 7851TIP3    H245045   3.430   1.876  11.174  0.8993  0.4535 -0.1891
 7852TIP3   OH245046   2.420   4.673  13.876  0.4655  0.9704 -0.0563
 7852TIP3    H145047   2.455   4.604  13.932 -1.1810  0.1233 -0.0131
 7852TIP3    H245048   2.356   4.719  13.930 -0.4011  0.7938 -0.8868
 7853TIP3   OH245049   5.312   5.681   3.743 -0.0799 -0.7109  0.0861
 7853TIP3    H145050   5.341   5.722   3.824  0.1673  0.8877 -0.7586
 7853TIP3    H245051   5.219   5.701   3.738  0.0767 -0.0591 -0.4131
 7854TIP3   OH245052   3.602   6.176   2.151 -0.2577 -0.3941  0.6040
 7854TIP3    H145053   3.650   6.099   2.118 -0.7422 -0.9766  1.2396
 7854TIP3    H245054   3.512   6.163   2.121 -0.6562 -0.8113  1.9233
 7855TIP3   OH245055   1.634   6.184  13.873 -0.0724  0.1070 -0.3003
 7855TIP3    H145056   1.667   6.269  13.844 -1.2804  0.0818 -1.8502
 7855TIP3    H245057   1.708   6.124  13.860  0.9742  0.9503  1.3102
 7856TIP3   OH245058   1.574   0.174  12.947 -0.1581 -0.1125  0.3047
 7856TIP3    H145059   1.608   0.241  12.887  3.1076 -1.1543  0.8174
 7856TIP3    H245060   1.520   0.223  13.009 -1.7846  1.3081 -2.0512
 7857TIP3   OH245061   0.050   0.710   5.409  0.9147 -0.8548  0.2454
 7857TIP3    H145062   0.050   0.634   5.349 -0.2316 -1.2903  0.7691
 7857TIP3    H245063   0.140   0.716   5.440  1.2366 -1.4141 -0.5373
 7858TIP3   OH245064   0.230   4.751  15.969 -0.3151 -0.5896  0.0949
 7858TIP3    H145065   0.253   4.792  15.885 -1.0689  0.6384  0.4628
 7858TIP3    H245066   0.135   4.759  15.974 -0.2782 -0.7171  1.0343
 7859TIP3   OH245067   2.000   0.162   4.746 -0.1806  0.3177  0.2935
 7859TIP3    H145068   1.918   0.206   4.768 -1.4920 -0.2327 -2.9402
 7859TIP3    H245069   1.975   0.095   4.681  2.2981 -2.5457  2.0127
 7860TIP3   OH245070   1.864   5.228  16.878 -0.1066  0.4867  0.8040
 7860TIP3    H145071   1.859   5.199  16.787  0.7113  1.4158  0.4452
 7860TIP3    H245072   1.948   5.273  16.885 -0.4884  1.0928  1.8212
 7861TIP3   OH245073   6.049   4.347  12.412  0.6883 -0.1518  0.2666
 7861TIP3    H145074   6.084   4.423  12.457 -0.8900  1.7010 -1.4239
 7861TIP3    H245075   6.072   4.361  12.320 -0.5344 -1.1637 -0.2221
 7862TIP3   OH245076   2.386   5.788  16.321  0.0849 -0.7657  0.0141
 7862TIP3    H145077   2.380   5.804  16.227 -2.1140 -1.2273  0.0255
 7862TIP3    H245078   2.304   5.822  16.357  1.2135  0.1327  1.9060
 7863TIP3   OH245079   2.898   4.997   4.279 -0.5258  0.2499  0.1171
 7863TIP3    H145080   2.823   5.055   4.292 -1.1738 -0.0198 -2.0768
 7863TIP3    H245081   2.863   4.923   4.231  0.7520 -0.9478  0.9527
 7864TIP3   OH245082   3.271   5.419   0.634  0.1308  0.0942  0.2674
 7864TIP3    H145083   3.342   5.442   0.693  0.2202  0.1608  0.1356
 7864TIP3    H245084   3.286   5.327   0.614  0.1756  0.1055  0.2474
 7865TIP3   OH245085   2.649   3.900  10.693  0.3798 -0.3906 -0.7338
 7865TIP3    H145086   2.578   3.837  10.704 -1.0138  1.5060  3.2900
 7865TIP3    H245087   2.615   3.964  10.631 -0.5186 -0.6747 -0.5412
 7866TIP3   OH245088   4.341   6.371   1.505 -0.0305 -0.2969  0.3907
 7866TIP3    H145089   4.402   6.319   1.557  0.8922  1.1278  0.8135
 7866TIP3    H245090   4.272   6.395   1.567  0.5938  0.6327  0.7512
 7867TIP3   OH245091   5.097   2.495  16.800 -0.4833 -0.2475  0.1428
 7867TIP3    H145092   5.146   2.552  16.740 -2.4228  0.8793 -0.4800
 7867TIP3    H245093   5.041   2.556  16.849  1.4485 -1.0247  3.6737
 7868TIP3   OH245094   1.527   0.411  12.291  0.4949 -0.4549 -0.0200
 7868TIP3    H145095   1.617   0.443  12.283  0.7119 -1.2332 -0.8557
 7868TIP3    H245096   1.494   0.407  12.201  0.1799 -1.6923  0.1281
 7869TIP3   OH245097   3.775   3.543  12.601  0.0680 -0.4407 -0.4958
 7869TIP3    H145098   3.863   3.577  12.583 -0.4380 -0.0912 -2.7084
 7869TIP3    H245099   3.780   3.508  12.690  2.0544  0.7916 -0.0499
 7870TIP3   OH245100   0.956   1.205  13.986  0.1362  0.2868 -0.3345
 7870TIP3    H145101   0.922   1.174  13.901  0.6281 -4.0764  0.8284
 7870TIP3    H245102   1.042   1.241  13.965 -0.2391  0.4338 -1.7993
 7871TIP3   OH245103   2.640   4.235   4.593 -0.6838  0.0847 -0.2893
 7871TIP3    H145104   2.595   4.250   4.677 -0.7164 -2.7836  0.3208
 7871TIP3    H245105   2.610   4.307   4.537 -0.9541  1.8905  2.0146
 7872TIP3   OH245106   3.736   4.165   1.168  0.6377  0.1176 -0.1569
 7872TIP3    H145107   3.743   4.111   1.089 -0.4600 -0.0707 -0.1485
 7872TIP3    H245108   3.761   4.253   1.140  0.6838 -0.0350 -0.6050
 7873TIP3   OH245109   2.268   3.263  15.477 -0.0934  0.5841 -0.6861
 7873TIP3    H145110   2.184   3.295  15.442 -0.4051 -0.1646 -0.6260
 7873TIP3    H245111   2.334   3.312  15.428 -0.4967 -0.9550 -2.8664
 7874TIP3   OH245112   6.496   5.556   6.064  0.3605  0.0810 -0.2474
 7874TIP3    H145113   6.563   5.569   5.997  0.8879 -1.4627 -0.0466
 7874TIP3    H245114   6.528   5.483   6.117 -1.5952 -0.9157 -0.3305
 7875TIP3   OH245115   1.322   4.455   4.185  0.5974  0.4272  0.6980
 7875TIP3    H145116   1.234   4.485   4.209  0.9442  1.3538  0.8511
 7875TIP3    H245117   1.374   4.466   4.264  0.7110 -0.7333  0.7970
 7876TIP3   OH245118   4.898   0.072   2.996 -0.0947 -0.8689  0.1115
 7876TIP3    H145119   4.875   0.015   3.069  0.4933 -0.4897  0.5941
 7876TIP3    H245120   4.814   0.091   2.954 -0.4643 -0.9253  0.8053
 7877TIP3   OH245121   5.641   1.392  15.804  0.2861  0.0074 -0.1833
 7877TIP3    H145122   5.631   1.362  15.714  1.6027  0.2263 -0.4197
 7877TIP3    H245123   5.565   1.356  15.850 -0.2795 -0.2941 -1.3230
 7878TIP3   OH245124   3.268   6.525   0.490  0.1225  0.3358  0.2967
 7878TIP3    H145125   3.193   6.583   0.478  1.1404  1.5384 -0.5696
 7878TIP3    H245126   3.281   6.521   0.584 -0.1178  1.3449  0.3829
 7879TIP3   OH245127   1.730   2.611  14.320 -0.0784  0.0650 -0.0272
 7879TIP3    H145128   1.701   2.590  14.232  2.5846  0.2190 -1.0130
 7879TIP3    H245129   1.815   2.567  14.330 -1.0918 -1.5260  3.1691
 7880TIP3   OH245130   4.922   5.541   1.263  0.5760 -0.2130  0.3767
 7880TIP3    H145131   4.845   5.558   1.209 -1.1528 -0.2923  2.6527
 7880TIP3    H245132   4.990   5.515   1.201 -0.8985  0.8679 -1.8290
 7881TIP3   OH245133   3.590   6.357   0.690  0.1076  0.4700  0.1687
 7881TIP3    H145134   3.668   6.337   0.637 -1.8687 -1.7805 -2.1532
 7881TIP3    H245135   3.569   6.448   0.670  0.6497  0.2975 -1.2559
 7882TIP3   OH245136   1.703   0.946   1.382  0.6667  0.3693 -0.3272
 7882TIP3    H145137   1.787   0.904   1.400 -0.5516 -2.3810 -0.5981
 7882TIP3    H245138   1.659   0.949   1.467 -0.2588 -1.3464 -0.7109
 7883TIP3   OH245139   0.240   3.401  16.317 -0.8156 -0.1462  0.3811
 7883TIP3    H145140   0.238   3.458  16.394 -1.2076  0.2778  0.0604
 7883TIP3    H245141   0.331   3.405  16.287 -0.9105  0.5649  0.1725
 7884TIP3   OH245142   0.587   3.366  14.230 -0.3418 -0.3683 -0.2790
 7884TIP3    H145143   0.577   3.304  14.302  1.9738  0.0233  0.4810
 7884TIP3    H245144   0.641   3.437  14.267 -2.9213  2.1971 -1.0955
 7885TIP3   OH245145   6.076   2.795  12.617  0.0617  0.1703 -0.2275
 7885TIP3    H145146   6.156   2.820  12.571  1.0146 -1.5257  0.4258
 7885TIP3    H245147   6.071   2.854  12.692 -0.6966  1.9513 -1.5977
 7886TIP3   OH245148   2.574   5.659  17.138 -0.3002  0.5646  0.3812
 7886TIP3    H145149   2.610   5.571  17.125 -1.4577 -0.5820  3.6520
 7886TIP3    H245150   2.483   5.652  17.110 -0.3245  0.7908  0.4041
 7887TIP3   OH245151   0.316   4.022  12.005  0.5777 -0.0592 -0.2417
 7887TIP3    H145152   0.311   4.029  12.100 -2.3054  1.5551 -0.4051
 7887TIP3    H245153   0.348   4.107  11.977  1.7151 -0.6333 -0.7452
 7888TIP3   OH245154   3.076   2.164  14.555  0.3468  0.1705  0.6685
 7888TIP3    H145155   2.991   2.199  14.528  1.0757  1.1384 -0.4800
 7888TIP3    H245156   3.119   2.236  14.601  0.1348 -0.6681  2.2291
 7889TIP3   OH245157   5.640   4.961  15.614  0.1886  0.7314  0.0922
 7889TIP3    H145158   5.719   4.965  15.561 -1.3909 -1.1822 -2.6586
 7889TIP3    H245159   5.648   4.880  15.665  0.0428  0.5982 -0.0973
 7890TIP3   OH245160   1.413   1.639   3.032 -0.1027  0.0315  0.0635
 7890TIP3    H145161   1.426   1.591   3.114 -0.2939 -1.0104 -0.4975
 7890TIP3    H245162   1.471   1.596   2.970  0.3540  1.0803 -0.2634
 7891TIP3   OH245163   0.496   6.551   1.377 -0.6582 -0.1496  0.6503
 7891TIP3    H145164   0.431   6.562   1.447 -2.9358  0.9868 -1.4784
 7891TIP3    H245165   0.471   6.469   1.335  0.3077 -0.5086  0.7573
 7892TIP3   OH245166   5.673   1.507  12.056 -0.2031 -0.2623 -0.1402
 7892TIP3    H145167   5.748   1.508  11.996  0.9768  0.6902  1.2812
 7892TIP3    H245168   5.704   1.552  12.135 -2.2568  0.0857  0.5375
 7893TIP3   OH245169   1.272   6.675  16.395  0.0096  0.7208  0.3687
 7893TIP3    H145170   1.196   6.721  16.359  0.4349  1.8554  0.8633
 7893TIP3    H245171   1.236   6.619  16.464 -0.3109  1.7533  1.0540
 7894TIP3   OH245172   4.051   3.760   4.900 -0.5007 -0.1046 -0.2141
 7894TIP3    H145173   4.118   3.779   4.835 -0.1477 -0.8150 -0.0701
 7894TIP3    H245174   4.032   3.667   4.888 -0.2390 -0.3124  0.8583
 7895TIP3   OH245175   4.073   1.517   0.225  0.0895  0.2109 -0.1059
 7895TIP3    H145176   4.125   1.509   0.305  0.0626  1.6621  0.0836
 7895TIP3    H245177   4.131   1.486   0.156  0.7422  0.5895  0.2623
 7896TIP3   OH245178   4.083   3.232   6.105  0.1027  0.2216 -0.8553
 7896TIP3    H145179   4.015   3.164   6.109  0.5958 -0.3126 -1.4100
 7896TIP3    H245180   4.068   3.285   6.184 -1.4946  0.6275 -1.3783
 7897TIP3   OH245181   3.524   3.902  16.687 -0.0975  0.0858  0.8451
 7897TIP3    H145182   3.455   3.836  16.681  1.0399 -1.0904  0.0018
 7897TIP3    H245183   3.586   3.877  16.618  0.3551  2.0629  0.4936
 7898TIP3   OH245184   0.370   5.383  10.274  0.2826  0.2186 -0.1021
 7898TIP3    H145185   0.414   5.449  10.220  2.1615  0.6071  1.7393
 7898TIP3    H245186   0.329   5.433  10.345  0.5511 -0.4718  0.5583
 7899TIP3   OH245187   5.338   5.108   0.685 -0.2714  0.0636 -0.7479
 7899TIP3    H145188   5.279   5.180   0.708  2.3668  2.1352  0.0328
 7899TIP3    H245189   5.307   5.079   0.599 -1.7309  1.8149 -0.8862
 7900TIP3   OH245190   4.212   3.432   3.634 -0.2805 -0.4455 -0.2512
 7900TIP3    H145191   4.216   3.525   3.654  1.6391 -0.3370 -0.9475
 7900TIP3    H245192   4.207   3.428   3.538  1.7310 -1.0258 -0.3791
 7901TIP3   OH245193   5.773   0.165  16.486 -0.4508 -0.2883  0.2321
 7901TIP3    H145194   5.795   0.127  16.571 -2.3481 -1.0738  0.4194
 7901TIP3    H245195   5.720   0.099  16.442  0.3362  0.1799 -1.5155
 7902TIP3   OH245196   0.325   5.372   5.154  0.6017 -0.3682 -0.1894
 7902TIP3    H145197   0.383   5.438   5.115  1.2427 -0.0242  1.2954
 7902TIP3    H245198   0.313   5.400   5.244  0.7437 -2.1845  0.4454
 7903TIP3   OH245199   2.974   6.203  13.264  0.7093  0.6177 -0.3786
 7903TIP3    H145200   2.984   6.154  13.346  1.3047  1.0158 -0.2029
 7903TIP3    H245201   2.973   6.137  13.196  3.1313  0.3938 -0.2910
 7904TIP3   OH245202   3.962   1.619   1.767  0.3207 -0.0002 -0.1563
 7904TIP3    H145203   3.966   1.697   1.712 -0.7406  0.1917  0.0175
 7904TIP3    H245204   3.988   1.547   1.709  0.9114  0.4200 -0.4239
 7905TIP3   OH245205   4.417   5.469  14.550  0.2320  0.0982 -0.7787
 7905TIP3    H145206   4.398   5.510  14.466 -0.6149 -0.5959 -0.9369
 7905TIP3    H245207   4.509   5.442  14.543 -0.2315 -1.2817 -2.0675
 7906TIP3   OH245208   1.617   5.848   3.383  0.2446 -0.5410  0.3910
 7906TIP3    H145209   1.561   5.827   3.309  0.1844  0.2125  0.2098
 7906TIP3    H245210   1.633   5.942   3.375  0.3841 -0.4805  1.2317
 7907TIP3   OH245211   2.852   0.436  15.528  0.1130 -0.8037 -0.5556
 7907TIP3    H145212   2.801   0.405  15.604 -1.3349  0.0271 -1.1478
 7907TIP3    H245213   2.787   0.446  15.458  1.1395  0.0738 -1.4183
 7908TIP3   OH245214   6.354   3.159  17.174  0.2693  0.0815  0.2546
 7908TIP3    H145215   6.297   3.204  17.112 -2.1731 -3.9453 -0.8101
 7908TIP3    H245216   6.317   3.180  17.260 -2.0703 -1.2569 -0.3323
 7909TIP3   OH245217   3.066   5.350   5.883 -0.0208  0.0105 -0.4171
 7909TIP3    H145218   3.017   5.338   5.964 -0.2366 -0.1670 -0.5716
 7909TIP3    H245219   3.031   5.431   5.846 -0.8485 -0.5743 -0.9735
 7910TIP3   OH245220   5.655   2.414  14.095  0.0147 -0.1849  0.3700
 7910TIP3    H145221   5.668   2.489  14.037 -2.0423 -0.5520 -0.6330
 7910TIP3    H245222   5.588   2.361  14.052 -2.2267 -0.0831  3.4028
 7911TIP3   OH245223   6.444   6.482  11.570  0.1738 -0.3180 -0.2845
 7911TIP3    H145224   6.455   6.563  11.620  0.1241 -0.0293 -0.7350
 7911TIP3    H245225   6.452   6.412  11.635 -0.4809  0.0689  0.2184
 7912TIP3   OH245226   3.682   5.591   3.231  0.4524  0.6784  0.2152
 7912TIP3    H145227   3.621   5.641   3.177  0.4374  0.7233  0.2747
 7912TIP3    H245228   3.661   5.615   3.321  1.2665  1.5218  0.1964
 7913TIP3   OH245229   5.255   4.162  11.649  0.1664  0.2570 -0.5788
 7913TIP3    H145230   5.188   4.168  11.581  0.0461 -0.6949 -0.5554
 7913TIP3    H245231   5.334   4.135  11.603 -0.0153 -0.7958 -0.2994
 7914TIP3   OH245232   3.664   5.862   0.040 -0.2342 -0.1556  0.3131
 7914TIP3    H145233   3.674   5.846  -0.053 -1.2871 -1.5904  0.4259
 7914TIP3    H245234   3.753   5.853   0.075 -0.3370 -4.1389  0.0496
 7915TIP3   OH245235   5.719   5.376   1.832 -0.0910  0.2929  0.2606
 7915TIP3    H145236   5.796   5.321   1.845 -1.5719 -1.4199  2.6774
 7915TIP3    H245237   5.744   5.461   1.868  1.4940  0.6209 -1.4643
 7916TIP3   OH245238   5.205   5.639   1.777  0.5511  0.1886  0.0647
 7916TIP3    H145239   5.291   5.620   1.740  0.0412 -1.3578 -0.4144
 7916TIP3    H245240   5.200   5.588   1.857 -0.5698 -1.2215 -0.8463
 7917TIP3   OH245241   6.220   2.979  12.784  0.0461 -0.5005  0.1557
 7917TIP3    H145242   6.204   3.039  12.710  0.1828 -0.8000 -0.1201
 7917TIP3    H245243   6.148   2.996  12.845 -0.1095 -0.3018 -0.0821
 7918TIP3   OH245244   2.404   1.258  16.382 -0.2595  0.1785  0.2731
 7918TIP3    H145245   2.488   1.263  16.336 -1.6074  1.3165 -2.3418
 7918TIP3    H245246   2.398   1.340  16.431 -0.6158  1.0540 -1.1576
 7919TIP3   OH245247   4.338   4.794   1.949 -0.3307 -0.1372 -0.3599
 7919TIP3    H145248   4.293   4.859   2.002  2.4549  0.2123  1.7861
 7919TIP3    H245249   4.388   4.845   1.885 -1.9240 -0.4753 -1.9636
 7920TIP3   OH245250   3.508   0.172  13.799 -0.0357 -0.0391 -0.2445
 7920TIP3    H145251   3.564   0.195  13.873  0.6190  3.2599 -1.6210
 7920TIP3    H245252   3.569   0.155  13.727 -0.7115  0.4155 -0.9442
 7921TIP3   OH245253   3.907   2.562  16.944 -0.3436  0.2451 -0.2964
 7921TIP3    H145254   3.861   2.558  17.028  0.6992  0.8697  0.3279
 7921TIP3    H245255   3.934   2.653  16.935 -0.1566  0.1173 -1.1626
 7922TIP3   OH245256   5.627   3.795  10.463 -0.0549  0.6215 -0.4321
 7922TIP3    H145257   5.647   3.761  10.376  0.9565  1.0314 -0.3693
 7922TIP3    H245258   5.531   3.796  10.467 -0.1105 -0.1976 -1.2209
 7923TIP3   OH245259   5.164   4.991  11.795 -0.1170  0.5093 -0.0594
 7923TIP3    H145260   5.243   5.031  11.758 -0.6821 -0.8494 -3.0044
 7923TIP3    H245261   5.179   4.897  11.787 -1.8927  0.2172 -0.4011
 7924TIP3   OH245262   0.890   2.084  11.399  0.0237  0.0653  0.2191
 7924TIP3    H145263   0.953   2.155  11.410  1.1747 -0.7991 -0.6452
 7924TIP3    H245264   0.812   2.126  11.364  0.8860  0.8380 -0.8248
 7925TIP3   OH245265   5.036   3.194  15.608  0.0001 -0.1456  0.4541
 7925TIP3    H145266   5.031   3.269  15.666  1.8648 -0.3894  0.9785
 7925TIP3    H245267   5.008   3.120  15.662 -0.7209 -0.0224  0.2684
 7926TIP3   OH245268   2.406   4.654  15.923 -0.0144  0.6926 -0.0147
 7926TIP3    H145269   2.398   4.740  15.882  0.6218 -0.7929 -3.6440
 7926TIP3    H245270   2.488   4.618  15.888 -0.9748 -1.9223  0.1496
 7927TIP3   OH245271   4.948   6.617   4.217  0.4781 -0.5165 -0.3786
 7927TIP3    H145272   4.857   6.598   4.239  0.4599 -1.1947 -1.0117
 7927TIP3    H245273   4.955   6.712   4.224 -0.3691 -0.4255 -0.6732
 7928TIP3   OH245274   5.724   2.370  13.709 -0.5877 -0.3167 -0.4696
 7928TIP3    H145275   5.771   2.307  13.656  1.0140  2.0815 -2.1052
 7928TIP3    H245276   5.792   2.428  13.744 -2.0350  1.5726 -0.5861
 7929TIP3   OH245277   1.280   1.981  13.681  0.2446  0.4231  0.3266
 7929TIP3    H145278   1.210   1.922  13.653  1.6721 -0.8514 -0.7827
 7929TIP3    H245279   1.360   1.942  13.645  1.6769  1.2200  2.3987
 7930TIP3   OH245280   3.048   3.421   4.193 -0.6298 -0.2957 -0.5154
 7930TIP3    H145281   3.016   3.354   4.254  1.1934  0.6061  1.5898
 7930TIP3    H245282   3.094   3.373   4.125 -1.3418 -1.2639 -0.3381
 7931TIP3   OH245283   0.103   4.458   4.324  0.0005 -0.1237 -0.6830
 7931TIP3    H145284   0.154   4.514   4.264 -0.6834  0.5227 -0.6700
 7931TIP3    H245285   0.038   4.516   4.362 -0.8447 -0.9692 -0.7990
 7932TIP3   OH245286   2.234   0.991  16.198  0.2136 -0.4135  0.1671
 7932TIP3    H145287   2.284   1.058  16.153 -0.6918 -0.9642 -1.7880
 7932TIP3    H245288   2.176   1.039  16.257  0.3981  0.4483 -0.3477
 7933TIP3   OH245289   0.125   6.381  15.279  0.5287  0.0601  0.0733
 7933TIP3    H145290   0.057   6.353  15.340  0.9790 -1.0422  0.0949
 7933TIP3    H245291   0.161   6.299  15.245  3.1280  0.4948  1.4945
 7934TIP3   OH245292   4.394   5.023  15.772 -0.2170 -0.0320 -0.1132
 7934TIP3    H145293   4.376   5.078  15.848  0.0850  1.0882 -0.8369
 7934TIP3    H245294   4.379   5.080  15.696 -1.2231 -1.3184 -0.9337
 7935TIP3   OH245295   2.057   0.239   0.383  0.0019 -0.7378  0.2405
 7935TIP3    H145296   2.029   0.260   0.294 -0.0700  0.2671  0.4835
 7935TIP3    H245297   2.135   0.293   0.396 -0.8348  0.2765  1.2886
 7936TIP3   OH245298   1.420   0.127  15.634 -0.5324  0.1119 -0.2381
 7936TIP3    H145299   1.461   0.204  15.673 -1.2285 -0.1562  1.0771
 7936TIP3    H245300   1.328   0.134  15.658 -0.5668 -1.2523  0.1204
 7937TIP3   OH245301   2.033   2.710  17.017 -0.2933  0.4191 -0.5246
 7937TIP3    H145302   2.070   2.634  16.972  1.6511  1.1802 -0.3102
 7937TIP3    H245303   1.979   2.753  16.951  0.6325  0.2395 -1.4131
 7938TIP3   OH245304   2.622   6.673  16.919  0.1657 -0.3953  0.1667
 7938TIP3    H145305   2.689   6.721  16.967  1.5223 -1.5624 -0.4917
 7938TIP3    H245306   2.588   6.610  16.982  0.0186 -0.1137  0.3697
 7939TIP3   OH245307   1.394   5.415   3.120 -0.7800 -0.5981  0.4123
 7939TIP3    H145308   1.420   5.505   3.139  1.1406 -1.2879  1.4178
 7939TIP3    H245309   1.299   5.414   3.128 -0.9419  1.5494 -0.7018
 7940TIP3   OH245310   2.320   0.202  13.639  0.3056 -0.3208  0.4032
 7940TIP3    H145311   2.335   0.108  13.627  1.3389 -0.2596  1.0855
 7940TIP3    H245312   2.399   0.233  13.683 -0.5465  0.6406  1.3050
 7941TIP3   OH245313   2.709   5.167  15.482 -0.1141 -0.6912 -0.1269
 7941TIP3    H145314   2.698   5.201  15.393  1.9157  1.0408  0.2049
 7941TIP3    H245315   2.688   5.241  15.538 -3.4833 -2.3422  1.0257
 7942TIP3   OH245316   0.212   2.714  15.457  0.1909 -0.1703  0.1085
 7942TIP3    H145317   0.184   2.797  15.416 -0.3587 -0.7141 -0.6515
 7942TIP3    H245318   0.196   2.726  15.550  0.8653  0.8707  0.1114
 7943TIP3   OH245319   5.583   2.602   5.433 -0.2352  0.3030 -0.1703
 7943TIP3    H145320   5.499   2.555   5.434 -0.4553  0.7009  0.1223
 7943TIP3    H245321   5.564   2.685   5.389 -0.7307  1.7286  2.5152
 7944TIP3   OH245322   0.330   1.810   4.869 -0.7044  0.4078  0.4425
 7944TIP3    H145323   0.330   1.780   4.778  0.7994 -1.0932  0.8819
 7944TIP3    H245324   0.239   1.804   4.896 -0.8122 -1.5728 -0.2320
 7945TIP3   OH245325   1.315   3.443  14.210 -0.0169  0.3027  0.2946
 7945TIP3    H145326   1.306   3.356  14.171 -0.4746  0.7999 -0.7643
 7945TIP3    H245327   1.394   3.437  14.263 -0.8211 -1.1694  1.4125
 7946TIP3   OH245328   5.471   0.825   5.157 -0.0923  0.2057  0.3442
 7946TIP3    H145329   5.558   0.839   5.121 -0.5572 -0.6799 -1.2259
 7946TIP3    H245330   5.431   0.761   5.099 -1.2273 -0.6284  1.9758
 7947TIP3   OH245331   5.735   5.111   5.592 -0.3375  0.2260 -0.0673
 7947TIP3    H145332   5.651   5.139   5.629 -0.4145  0.9418 -0.7501
 7947TIP3    H245333   5.721   5.115   5.497  0.2756 -0.2591 -0.1806
 7948TIP3   OH245334   6.596   5.714   2.916 -0.4093 -0.1898 -0.0444
 7948TIP3    H145335   6.530   5.740   2.980 -0.8886  2.6345 -1.4995
 7948TIP3    H245336   6.670   5.773   2.933 -1.5151  2.5582 -3.4915
 7949TIP3   OH245337   0.946   3.281  13.348  0.7457  0.8761 -0.1147
 7949TIP3    H145338   0.892   3.360  13.345 -0.1197  0.4523  2.1062
 7949TIP3    H245339   0.898   3.217  13.296  0.4239  1.2459 -0.2801
 7950TIP3   OH245340   5.947   0.456   5.342  0.1653 -0.2932  0.2762
 7950TIP3    H145341   5.991   0.376   5.315  0.6048 -0.0313  0.2120
 7950TIP3    H245342   6.008   0.526   5.320 -0.3508  0.0913  0.0163
 7951TIP3   OH245343   0.186   4.048   3.692 -0.0017  0.2091 -0.1570
 7951TIP3    H145344   0.189   4.061   3.787 -0.4206  2.3337 -0.3652
 7951TIP3    H245345   0.092   4.044   3.672  0.0900 -1.4887 -0.3813
 7952TIP3   OH245346   2.169   4.278  13.491  0.4000 -1.1795 -0.2320
 7952TIP3    H145347   2.146   4.192  13.457 -0.9008 -0.1382 -2.1536
 7952TIP3    H245348   2.086   4.315  13.521  0.9489 -0.5871  0.5856
 7953TIP3   OH245349   5.787   5.714  16.573  0.4429  0.4391 -0.2713
 7953TIP3    H145350   5.813   5.679  16.658  2.3104 -1.2976 -1.4632
 7953TIP3    H245351   5.835   5.796  16.566  1.3000 -0.0417 -0.1557
 7954TIP3   OH245352   5.762   6.192  14.496  0.4252  0.9827  0.4255
 7954TIP3    H145353   5.687   6.251  14.491 -0.6202 -0.3198  0.0396
 7954TIP3    H245354   5.825   6.228  14.435 -0.7554  0.9701 -0.8583
 7955TIP3   OH245355   3.597   1.100   4.899 -0.0295 -0.1317  0.0089
 7955TIP3    H145356   3.683   1.061   4.883 -0.3850 -1.5409  1.3239
 7955TIP3    H245357   3.604   1.140   4.985 -0.0242  1.8137 -0.8553
 7956TIP3   OH245358   5.776   2.224   2.256 -0.4655 -0.4166 -0.2587
 7956TIP3    H145359   5.865   2.190   2.250  0.3999  1.2485  1.8233
 7956TIP3    H245360   5.767   2.282   2.181  0.3709 -0.2557 -0.2373
 7957TIP3   OH245361   4.160   0.462  14.743  0.3331  0.4075 -0.2832
 7957TIP3    H145362   4.186   0.411  14.820 -0.1995  0.0358 -0.3481
 7957TIP3    H245363   4.189   0.551  14.764  0.9104  0.1645  0.0025
 7958TIP3   OH245364   2.042   4.583   1.127  0.1948 -0.2357  0.7070
 7958TIP3    H145365   2.078   4.637   1.056  2.0757  0.8786  2.3936
 7958TIP3    H245366   2.063   4.493   1.103  3.3374  0.3013  1.0929
 7959TIP3   OH245367   5.179   0.841   2.584  0.1267 -0.0202 -0.1419
 7959TIP3    H145368   5.173   0.815   2.492 -0.6778 -1.4244  0.2732
 7959TIP3    H245369   5.247   0.785   2.620  1.6604  1.6900 -0.2105
 7960TIP3   OH245370   1.368   3.464   4.741  0.1779  0.3326 -0.1268
 7960TIP3    H145371   1.308   3.533   4.771  1.4809  1.5723 -0.2918
 7960TIP3    H245372   1.399   3.423   4.822  0.9597  1.3148  0.0916
 7961TIP3   OH245373   3.865   0.760   1.959  0.2142  0.2176 -0.4222
 7961TIP3    H145374   3.875   0.831   2.023  2.5632 -0.5916  0.2204
 7961TIP3    H245375   3.853   0.804   1.875 -1.7313  1.3136  0.3646
 7962TIP3   OH245376   0.818   1.775   0.641 -0.4624  0.2142  0.2435
 7962TIP3    H145377   0.726   1.753   0.633 -0.6624  1.3001 -0.7777
 7962TIP3    H245378   0.826   1.860   0.598  1.5494 -1.2084 -2.5607
 7963TIP3   OH245379   1.754   5.547   2.674 -0.4962  0.0824  0.3208
 7963TIP3    H145380   1.700   5.586   2.605 -0.1006  0.5889  0.2920
 7963TIP3    H245381   1.771   5.458   2.644  0.1842  0.4920 -0.5310
 7964TIP3   OH245382   3.772   4.405   3.927  0.3615 -0.0216 -0.3466
 7964TIP3    H145383   3.683   4.390   3.895  1.1896 -1.8244 -2.0916
 7964TIP3    H245384   3.809   4.467   3.864  1.4701 -2.2791 -2.0805
 7965TIP3   OH245385   0.657   6.578   4.813 -0.2403 -0.1332  0.2590
 7965TIP3    H145386   0.629   6.541   4.730  1.1420  0.9420 -0.7332
 7965TIP3    H245387   0.643   6.673   4.803 -1.1616 -0.0764  1.7180
 7966TIP3   OH245388   2.351   0.178  12.804 -0.0720 -0.3588 -0.7753
 7966TIP3    H145389   2.326   0.128  12.881 -1.0458  2.7287  1.1004
 7966TIP3    H245390   2.440   0.208  12.823 -0.4433  0.7021 -0.6099
 7967TIP3   OH245391   4.572   2.409  15.680  0.2679  0.4323 -0.6992
 7967TIP3    H145392   4.640   2.353  15.718 -0.1192  0.7372  0.4976
 7967TIP3    H245393   4.619   2.484  15.646  0.6003  0.3260 -0.4798
 7968TIP3   OH245394   3.414   6.506  14.392 -0.0845  0.0889  0.1960
 7968TIP3    H145395   3.441   6.545  14.475  0.2064 -2.4870  1.4335
 7968TIP3    H245396   3.339   6.451  14.414 -0.0145 -0.6531 -1.2297
 7969TIP3   OH245397   4.785   6.781  17.191 -0.1434  0.0591  0.6637
 7969TIP3    H145398   4.830   6.702  17.160  1.5751  1.5919 -0.9916
 7969TIP3    H245399   4.715   6.795  17.128  1.0585  1.1252 -0.5034
 7970TIP3   OH245400   3.711   1.458  14.970 -0.2694  0.7678 -0.1916
 7970TIP3    H145401   3.767   1.462  15.048 -0.3175 -0.8587 -0.0322
 7970TIP3    H245402   3.769   1.425  14.901 -1.0078 -1.1606  0.0307
 7971TIP3   OH245403   6.771   0.529  14.510 -0.2460  0.4240 -0.3118
 7971TIP3    H145404   6.756   0.567  14.597 -1.4278 -0.0236 -0.3033
 7971TIP3    H245405   6.712   0.454  14.506  4.1074 -3.5585  0.8712
 7972TIP3   OH245406   0.406   2.680  12.963 -0.2838  0.1494 -0.2714
 7972TIP3    H145407   0.452   2.762  12.980 -1.4440  0.4327  1.9459
 7972TIP3    H245408   0.431   2.623  13.035 -3.2617  0.3239  1.0589
 7973TIP3   OH245409   4.322   4.054  14.620  0.2673  0.1338  0.0254
 7973TIP3    H145410   4.404   4.014  14.591  0.6796 -0.0532  1.3810
 7973TIP3    H245411   4.320   4.039  14.715 -0.9624  0.8201  0.1322
 7974TIP3   OH245412   1.172   4.338  11.986 -0.5403 -0.1590  0.0964
 7974TIP3    H145413   1.242   4.272  11.983  0.3964  0.7486  1.1667
 7974TIP3    H245414   1.207   4.411  11.936 -2.2771 -1.0286 -2.6360
 7975TIP3   OH245415   5.917   2.604   0.586 -0.1572 -0.0255  0.3768
 7975TIP3    H145416   5.876   2.603   0.499 -0.3138  0.6849  0.4389
 7975TIP3    H245417   6.008   2.631   0.570  0.3237 -1.6196  0.2370
 7976TIP3   OH245418   0.647   1.991  13.109  0.1688 -0.0393  0.3546
 7976TIP3    H145419   0.683   1.999  13.020 -1.3289  0.8901 -0.2120
 7976TIP3    H245420   0.692   1.915  13.146 -0.4417 -1.6164 -1.8589
 7977TIP3   OH245421   5.049   5.355  11.168  0.1104 -0.3681  0.0956
 7977TIP3    H145422   5.047   5.447  11.143 -1.0899 -0.2516  0.5315
 7977TIP3    H245423   5.049   5.307  11.085 -1.6687  0.0284 -0.1832
 7978TIP3   OH245424   3.343   1.307  12.150 -0.0705  0.2386 -0.2513
 7978TIP3    H145425   3.404   1.368  12.109 -0.6491  0.5867 -0.6043
 7978TIP3    H245426   3.294   1.270  12.077  0.1002 -0.4601 -0.0174
 7979TIP3   OH245427   1.442   4.296   1.720  0.0818  0.3862 -0.2918
 7979TIP3    H145428   1.404   4.376   1.756 -0.1282 -0.0002  0.3504
 7979TIP3    H245429   1.372   4.260   1.664  0.4069  0.9825 -1.1026
 7980TIP3   OH245430   4.696   2.460  14.719 -0.4554 -0.7304  0.0227
 7980TIP3    H145431   4.709   2.423  14.807  0.8757 -2.8907 -1.0030
 7980TIP3    H245432   4.632   2.401  14.679  0.4996 -1.0206 -1.1220
 7981TIP3   OH245433   1.905   0.236   3.055 -0.0470  0.3674 -0.2449
 7981TIP3    H145434   1.821   0.192   3.068 -0.3893  0.9111 -0.5516
 7981TIP3    H245435   1.927   0.219   2.963  1.0837 -1.2907  0.2793
 7982TIP3   OH245436   4.908   5.652   0.319  0.6705  0.1417  0.5155
 7982TIP3    H145437   4.961   5.722   0.356 -0.3000  0.2284  1.8235
 7982TIP3    H245438   4.903   5.586   0.389  1.4843 -1.2083 -0.6499
 7983TIP3   OH245439   3.234   3.868   1.592 -0.5908 -0.0926 -0.2062
 7983TIP3    H145440   3.187   3.852   1.674  2.0108 -0.3341  1.3662
 7983TIP3    H245441   3.324   3.839   1.611  0.2643  0.5673 -2.9212
 7984TIP3   OH245442   3.823   4.859   4.011  0.5748  0.2073  0.6005
 7984TIP3    H145443   3.813   4.906   3.928  0.0627  1.2238  1.2135
 7984TIP3    H245444   3.763   4.784   4.004 -0.5861  1.1015  0.6071
 7985TIP3   OH245445   1.390   0.517  15.632 -0.4531  0.2540 -0.0880
 7985TIP3    H145446   1.355   0.470  15.557  3.7116  0.0858 -2.1961
 7985TIP3    H245447   1.399   0.607  15.602 -0.0046  0.4828  0.6897
 7986TIP3   OH245448   4.364   4.202   6.214  0.4669  0.0869  0.0920
 7986TIP3    H145449   4.375   4.137   6.283 -0.6331 -0.1452  0.0669
 7986TIP3    H245450   4.313   4.272   6.255  1.0749  0.6291 -0.0708
 7987TIP3   OH245451   3.983   5.912  12.594  0.2214 -0.0117  0.0475
 7987TIP3    H145452   3.911   5.873  12.543 -1.0609  0.2207  1.6203
 7987TIP3    H245453   4.015   5.983  12.538 -1.6524  0.7249 -0.1838
 7988TIP3   OH245454   0.094   1.501  16.559  0.6365  0.1443 -0.2904
 7988TIP3    H145455   0.071   1.527  16.470  0.2233 -1.8606 -0.8402
 7988TIP3    H245456   0.129   1.412  16.549  0.2418 -0.2575  1.5778
 7989TIP3   OH245457   0.759   1.353   2.107 -0.9056 -0.2880  0.0693
 7989TIP3    H145458   0.687   1.406   2.141 -2.0167 -2.5619  1.4172
 7989TIP3    H245459   0.723   1.310   2.030  0.4419  1.8609 -1.9156
 7990TIP3   OH245460   0.895   2.200   1.377 -0.0504 -0.6571  0.0832
 7990TIP3    H145461   0.957   2.135   1.345 -0.6818 -1.1724 -0.1256
 7990TIP3    H245462   0.830   2.149   1.425 -0.1856 -0.1028  0.5022
 7991TIP3   OH245463   2.403   6.758  16.593  0.1278  0.0384  0.2154
 7991TIP3    H145464   2.422   6.836  16.645 -0.1605  0.4447 -0.2789
 7991TIP3    H245465   2.478   6.700  16.608 -0.0380  0.0713  1.2123
 7992TIP3   OH245466   3.126   5.395  10.035 -0.1466  0.3523 -0.4205
 7992TIP3    H145467   3.054   5.435   9.986 -0.5363  0.8880  0.5687
 7992TIP3    H245468   3.170   5.469  10.077 -0.8668 -0.2280  1.4339
 7993TIP3   OH245469   0.671   4.119  10.710 -0.4772  0.1522  0.2835
 7993TIP3    H145470   0.704   4.199  10.750 -0.5583 -1.2894  3.6084
 7993TIP3    H245471   0.749   4.066  10.695 -0.5604  0.2118 -0.3930
 7994TIP3   OH245472   2.307   0.530   3.577 -0.8407  0.0859  0.8378
 7994TIP3    H145473   2.262   0.453   3.544  0.3541 -0.2335 -0.0914
 7994TIP3    H245474   2.236   0.587   3.608 -1.8121 -0.8311  0.3831
 7995TIP3   OH245475   2.592   1.713   0.756 -0.0936 -0.3819 -0.0231
 7995TIP3    H145476   2.571   1.687   0.666  1.3404 -1.6844 -0.0301
 7995TIP3    H245477   2.563   1.804   0.762  1.2195  0.2854 -2.3362
 7996TIP3   OH245478   3.406   1.241  13.590  0.1822  0.3433 -0.0810
 7996TIP3    H145479   3.360   1.200  13.663  0.9986  0.1731  0.3529
 7996TIP3    H245480   3.427   1.169  13.530  0.4424  0.3242  0.0321
 7997TIP3   OH245481   2.435   1.886   2.996  0.1686  0.1340 -0.3422
 7997TIP3    H145482   2.492   1.955   2.960 -0.5612  0.7924 -0.2601
 7997TIP3    H245483   2.496   1.819   3.027  0.9313  1.0889  0.2992
 7998TIP3   OH245484   6.260   1.296   6.669  0.1306 -0.0353  0.0231
 7998TIP3    H145485   6.195   1.239   6.712 -1.3250  1.7061  0.2755
 7998TIP3    H245486   6.286   1.249   6.590  0.0774 -1.6677  0.9395
 7999TIP3   OH245487   4.528   5.691   3.135 -0.4588  0.3148 -0.1525
 7999TIP3    H145488   4.433   5.701   3.135 -0.4593  0.3080 -0.2705
 7999TIP3    H245489   4.562   5.779   3.121 -0.3763  0.9703  3.3037
 8000TIP3   OH245490   1.675   3.055   2.659 -0.4055  0.4536 -0.0765
 8000TIP3    H145491   1.725   3.005   2.723 -1.6642  0.8821  1.2896
 8000TIP3    H245492   1.691   3.011   2.575 -0.9612 -1.8505  0.9684
 8001TIP3   OH245493   1.048   5.170  16.192  0.4167 -0.3775 -0.1752
 8001TIP3    H145494   1.071   5.159  16.284 -0.1641 -1.1017 -0.1025
 8001TIP3    H245495   1.060   5.083  16.154 -1.1326 -0.5499 -0.3582
 8002TIP3   OH245496   0.118   4.239   1.852  0.8406 -0.4825 -0.1570
 8002TIP3    H145497   0.069   4.159   1.836 -0.9385  0.7783 -1.3769
 8002TIP3    H245498   0.058   4.295   1.901  1.0229  1.0945 -1.6502
 8003TIP3   OH245499   2.641   6.746   0.483  0.5883  0.3433  0.1397
 8003TIP3    H145500   2.620   6.694   0.405  0.7162  1.0352 -0.3659
 8003TIP3    H245501   2.673   6.829   0.448 -0.0317  0.9298  0.9398
 8004TIP3   OH245502   6.093   0.181   6.327  0.0029  0.0700 -0.1396
 8004TIP3    H145503   6.168   0.193   6.385  2.5197 -3.4527 -2.2623
 8004TIP3    H245504   6.037   0.117   6.371 -0.8210  1.2331  0.5644
 8005TIP3   OH245505   6.632   1.589   5.153 -0.0547  0.4341  0.5155
 8005TIP3    H145506   6.577   1.635   5.090 -1.8043 -0.7809  1.0925
 8005TIP3    H245507   6.649   1.504   5.112 -0.1302  0.1203  1.1270
 8006TIP3   OH245508   5.165   3.928   3.070 -0.7554  0.1460  0.2464
 8006TIP3    H145509   5.215   4.009   3.084  0.7636 -0.5875 -0.7376
 8006TIP3    H245510   5.088   3.957   3.022  1.0022  0.7684 -2.4244
 8007TIP3   OH245511   3.550   1.616  16.704  0.1034 -0.4597  0.0489
 8007TIP3    H145512   3.465   1.610  16.662 -0.1548 -1.8348  0.7266
 8007TIP3    H245513   3.605   1.661  16.639 -0.7995 -0.6986 -0.9125
 8008TIP3   OH245514   0.584   2.550  11.303 -0.3912  0.1758 -0.0495
 8008TIP3    H145515   0.632   2.585  11.228  1.6425 -0.3991  0.9369
 8008TIP3    H245516   0.494   2.583  11.291  0.5358  2.5058 -1.1646
 8009TIP3   OH245517   2.510   5.518  15.196 -0.1677  0.1296  0.3469
 8009TIP3    H145518   2.597   5.509  15.235 -0.5130  0.5259  1.2552
 8009TIP3    H245519   2.470   5.432  15.207 -0.9111  0.6787  2.5783
 8010TIP3   OH245520   1.090   5.948   1.554 -0.3304 -0.3420  0.3958
 8010TIP3    H145521   1.070   6.042   1.555  0.4945 -0.0287 -2.8505
 8010TIP3    H245522   1.177   5.942   1.594 -0.9092  0.0612  1.7844
 8011TIP3   OH245523   3.696   1.597   0.606  0.1242  0.4846 -0.7439
 8011TIP3    H145524   3.777   1.634   0.572 -1.7826  2.7116 -3.3246
 8011TIP3    H245525   3.657   1.551   0.531 -0.3164 -1.9119  0.8576
 8012TIP3   OH245526   4.140   1.905  10.679  0.4939 -0.4625  0.0747
 8012TIP3    H145527   4.113   1.996  10.669  0.3002 -0.2289  2.1666
 8012TIP3    H245528   4.066   1.863  10.722 -0.3143 -2.1945 -2.7613
 8013TIP3   OH245529   1.519   4.830  16.905  0.7870  0.4038 -0.0876
 8013TIP3    H145530   1.537   4.757  16.846  0.0743  1.0546 -1.1452
 8013TIP3    H245531   1.604   4.870  16.921  0.8163  1.1302 -1.9091
 8014TIP3   OH245532   5.713   5.116  13.587 -0.1108  0.0873  0.2961
 8014TIP3    H145533   5.779   5.179  13.557 -0.4266  0.2929  0.0219
 8014TIP3    H245534   5.723   5.115  13.683 -1.5784  2.2602  0.5410
 8015TIP3   OH245535   5.181   3.889  13.266  0.6778 -0.0214 -0.3048
 8015TIP3    H145536   5.144   3.955  13.207 -1.5397  0.0655  1.0634
 8015TIP3    H245537   5.248   3.935  13.316 -0.0191  0.8868 -0.1958
 8016TIP3   OH245538   2.469   0.756  13.838 -0.1867  0.7370  0.3540
 8016TIP3    H145539   2.418   0.794  13.767  0.7623  2.7018  0.6661
 8016TIP3    H245540   2.559   0.756  13.807 -0.1809 -2.0655  0.0762
 8017TIP3   OH245541   1.718   6.509   0.380 -0.5227 -0.6942  1.0464
 8017TIP3    H145542   1.655   6.517   0.451 -0.8117  0.7407  0.6659
 8017TIP3    H245543   1.779   6.582   0.393 -0.4059 -0.5895  0.0101
 8018TIP3   OH245544   2.495   1.184   3.415  0.5755 -0.4413  0.1360
 8018TIP3    H145545   2.501   1.277   3.393 -0.9470  0.0912  1.7102
 8018TIP3    H245546   2.401   1.169   3.429  0.6961 -2.4363 -0.8900
 8019TIP3   OH245547   2.439   2.775   3.854  0.5706  0.0460  0.3378
 8019TIP3    H145548   2.444   2.682   3.876  1.6500  0.4220  1.8556
 8019TIP3    H245549   2.521   2.794   3.809  0.7182  0.4090  0.7408
 8020TIP3   OH245550   4.897   5.063  12.684  0.0179  0.5880 -0.0912
 8020TIP3    H145551   4.939   5.007  12.750 -0.6253 -0.4513 -0.5326
 8020TIP3    H245552   4.951   5.053  12.606 -0.2637  0.3394 -0.2572
 8021TIP3   OH245553   5.073   1.342   4.789  0.4448 -0.0287  0.0640
 8021TIP3    H145554   5.099   1.408   4.853  1.6281 -0.5449  0.1396
 8021TIP3    H245555   5.133   1.355   4.715 -0.4771  0.1372 -0.6696
 8022TIP3   OH245556   1.102   1.852  13.511  0.3614 -0.3605 -0.0646
 8022TIP3    H145557   1.016   1.843  13.551  1.7850  0.6272  3.6813
 8022TIP3    H245558   1.128   1.763  13.488 -0.4600 -1.0707  1.5951
 8023TIP3   OH245559   5.173   2.865   5.005  0.2770 -0.2901  0.1307
 8023TIP3    H145560   5.120   2.786   5.018 -0.0537  0.0289  0.7826
 8023TIP3    H245561   5.111   2.937   5.018  0.4798  0.0820 -0.8853
 8024TIP3   OH245562   0.672   6.139  11.991 -0.3815 -0.2334  0.4773
 8024TIP3    H145563   0.642   6.224  11.959 -0.3583 -0.6720 -0.7392
 8024TIP3    H245564   0.738   6.111  11.928 -0.2525 -1.0827  0.9688
 8025TIP3   OH245565   4.989   4.437  15.826  0.1388 -1.0986  0.1072
 8025TIP3    H145566   4.977   4.345  15.800  1.1916 -1.1584 -0.1982
 8025TIP3    H245567   5.069   4.437  15.878  0.9757 -0.1373 -1.1163
 8026TIP3   OH245568   1.948   5.086  14.869  0.0794 -0.0434  0.4715
 8026TIP3    H145569   2.012   5.141  14.824  0.2990 -1.9294 -1.7053
 8026TIP3    H245570   1.870   5.091  14.813 -1.7165  1.9539  2.8899
 8027TIP3   OH245571   4.644   6.544   0.076  0.3422 -0.1982 -0.9278
 8027TIP3    H145572   4.698   6.622   0.089 -0.3120 -0.1772  2.6627
 8027TIP3    H245573   4.689   6.476   0.126 -1.4191 -0.8997 -0.2382
 8028TIP3   OH245574   4.840   1.430   3.269 -0.1012  0.4118  0.1381
 8028TIP3    H145575   4.886   1.509   3.298 -0.3097  1.4111 -2.1062
 8028TIP3    H245576   4.869   1.416   3.179  0.3272 -2.4130  0.6079
 8029TIP3   OH245577   4.319   2.189   4.131  0.0468 -0.2415 -0.3219
 8029TIP3    H145578   4.291   2.152   4.047 -1.6515 -1.7107  0.8028
 8029TIP3    H245579   4.345   2.113   4.183 -0.6017  0.4442  1.0518
 8030TIP3   OH245580   5.231   3.625   4.305 -0.5342  0.6125 -0.4239
 8030TIP3    H145581   5.191   3.623   4.392  0.2142 -3.7656  0.0340
 8030TIP3    H245582   5.157   3.613   4.245 -0.7814  1.2937 -0.2743
 8031TIP3   OH245583   0.572   0.492  12.546 -0.5354 -0.4808  0.1790
 8031TIP3    H145584   0.624   0.527  12.474  0.9427  0.8446  1.7881
 8031TIP3    H245585   0.598   0.544  12.622 -2.7839 -1.1232  1.4918
 8032TIP3   OH245586   1.323   3.282   1.037  0.3506  0.2249  0.1103
 8032TIP3    H145587   1.387   3.264   0.968  1.1644  2.4401  0.2113
 8032TIP3    H245588   1.367   3.344   1.096 -0.2941 -1.5747  2.6961
 8033TIP3   OH245589   2.345   4.570  14.858 -0.2862 -0.6266 -0.0171
 8033TIP3    H145590   2.430   4.613  14.844 -1.0943  0.7823 -0.9152
 8033TIP3    H245591   2.297   4.586  14.776 -1.1257 -2.1329  0.1534
 8034TIP3   OH245592   3.934   3.288   0.972  0.1742 -0.4640 -0.2510
 8034TIP3    H145593   3.879   3.350   1.019  0.0769 -0.6117 -0.1703
 8034TIP3    H245594   3.880   3.257   0.900 -0.7013 -2.3282  1.1109
 8035TIP3   OH245595   6.388   2.682  12.824  0.3130  0.5191  0.9636
 8035TIP3    H145596   6.429   2.671  12.739 -0.4780 -1.2771  0.7528
 8035TIP3    H245597   6.383   2.776  12.837 -1.2148  0.9291 -1.8232
 8036TIP3   OH245598   0.808   5.530  14.216  0.2017 -0.2355  0.2019
 8036TIP3    H145599   0.756   5.460  14.176  0.1042 -0.3286  0.4846
 8036TIP3    H245600   0.891   5.529  14.170 -0.6737  1.1298 -1.5432
 8037TIP3   OH245601   0.733   2.412   3.763 -0.5822 -0.0428  0.0638
 8037TIP3    H145602   0.728   2.404   3.668 -2.0373  0.6713  0.0464
 8037TIP3    H245603   0.662   2.356   3.795 -0.1552 -0.2090  0.7267
 8038TIP3   OH245604   4.538   6.135  17.218  0.1001  0.1318  0.0306
 8038TIP3    H145605   4.630   6.146  17.242  0.2022  1.4882 -0.8005
 8038TIP3    H245606   4.511   6.223  17.188 -0.8827 -0.6754 -1.6231
 8039TIP3   OH245607   0.370   5.776   0.790 -0.6024  0.1028  0.1690
 8039TIP3    H145608   0.445   5.820   0.829  0.6112 -1.2795 -0.5175
 8039TIP3    H245609   0.362   5.694   0.839  0.0795 -1.0136 -1.4842
 8040TIP3   OH245610   4.775   4.401  12.599  0.5089 -0.1677  0.4362
 8040TIP3    H145611   4.738   4.313  12.588 -1.1411  0.4598  0.8203
 8040TIP3    H245612   4.706   4.452  12.641  0.9578  1.6682 -0.9159
 8041TIP3   OH245613   0.002   4.314   1.172 -0.1414 -0.2592 -0.0159
 8041TIP3    H145614   0.015   4.340   1.264 -0.6139 -1.7292  0.4923
 8041TIP3    H245615  -0.069   4.370   1.142 -1.4101 -1.1758  1.1730
 8042TIP3   OH245616   2.532   3.310   5.582 -0.0992 -0.0932  0.2480
 8042TIP3    H145617   2.459   3.280   5.636 -3.3079  3.4631 -1.5654
 8042TIP3    H245618   2.561   3.391   5.624 -0.7697  1.2453 -1.7406
 8043TIP3   OH245619   5.971   2.400  17.104  0.8574 -0.1101 -0.3212
 8043TIP3    H145620   5.890   2.350  17.094  0.8536 -0.3471  0.7780
 8043TIP3    H245621   6.038   2.345  17.063  0.5036  0.0020 -1.0638
 8044TIP3   OH245622   3.039   5.630  17.072  0.0582  0.3202  0.1827
 8044TIP3    H145623   3.089   5.645  17.152 -1.3655  1.6822  0.8689
 8044TIP3    H245624   2.950   5.654  17.094 -0.3156  1.1083 -1.9132
 8045TIP3   OH245625   2.838   4.697  16.358  0.0505 -0.3254  0.3388
 8045TIP3    H145626   2.890   4.621  16.383  1.7230 -0.0141 -1.8728
 8045TIP3    H245627   2.877   4.727  16.276 -1.3273  2.1953  0.4960
 8046TIP3   OH245628   3.816   1.603  11.956 -0.5599 -0.2678 -0.1154
 8046TIP3    H145629   3.811   1.655  11.876  0.7477  0.1978  0.0779
 8046TIP3    H245630   3.867   1.526  11.931  0.2694  0.1149  0.3772
 8047TIP3   OH245631   4.613   1.823  15.768 -0.1818 -0.5625 -0.6987
 8047TIP3    H145632   4.537   1.879  15.750  0.1659  0.2083  0.1490
 8047TIP3    H245633   4.686   1.869  15.726 -0.3919 -2.1596 -3.0144
 8048TIP3   OH245634   4.664   3.000   5.280  0.5442  0.0045 -0.1448
 8048TIP3    H145635   4.750   3.018   5.316  0.5084 -1.1979  0.5985
 8048TIP3    H245636   4.668   2.909   5.252 -0.0321  0.3550 -1.4602
 8049TIP3   OH245637   6.302   4.212   4.357  0.0437  0.4377 -0.0446
 8049TIP3    H145638   6.282   4.163   4.436  1.7122 -0.4376 -0.1233
 8049TIP3    H245639   6.285   4.304   4.380  0.6808  0.2112  1.3864
 8050TIP3   OH245640   6.469   5.943   2.583 -0.0966 -0.2488 -0.3968
 8050TIP3    H145641   6.492   5.851   2.588  0.7177 -0.0122  0.4330
 8050TIP3    H245642   6.542   5.985   2.538 -0.1152  0.1095 -0.0997
 8051TIP3   OH245643   3.723   2.320   0.851 -1.0107  0.0531 -0.0364
 8051TIP3    H145644   3.703   2.235   0.813  0.9880 -0.5164  0.0735
 8051TIP3    H245645   3.686   2.316   0.940  0.7937 -1.5352  0.7122
 8052TIP3   OH245646   3.680   3.233  17.210 -0.3600  0.7422  0.2750
 8052TIP3    H145647   3.601   3.209  17.160 -0.6327  1.2646  0.4528
 8052TIP3    H245648   3.751   3.227  17.146 -0.1996 -1.8167  0.5973
 8053TIP3   OH245649   4.830   0.650   5.969 -0.4941 -0.1069  0.2447
 8053TIP3    H145650   4.795   0.739   5.971 -1.7296 -0.5804  0.0580
 8053TIP3    H245651   4.841   0.627   6.061  1.0140  0.6695  0.2934
 8054TIP3   OH245652   1.506   4.696   5.216  0.3817  0.4931 -0.7506
 8054TIP3    H145653   1.600   4.697   5.201  0.5270  2.6660 -0.0196
 8054TIP3    H245654   1.469   4.659   5.136  1.8080  0.4893 -1.4237
 8055TIP3   OH245655   1.053   1.636   6.105 -0.1191 -0.1917 -0.2972
 8055TIP3    H145656   0.994   1.611   6.176 -0.4441  1.1349 -0.0689
 8055TIP3    H245657   1.135   1.662   6.149  0.7814 -2.2922 -0.6275
 8056TIP3   OH245658   0.373   4.820  16.216  0.7098  0.1503 -0.0596
 8056TIP3    H145659   0.332   4.801  16.132 -0.1080 -2.5255  0.8508
 8056TIP3    H245660   0.465   4.835  16.194  0.5241 -0.5318 -1.4384
 8057TIP3   OH245661   1.517   6.660   4.404 -0.7050  0.1051 -0.0979
 8057TIP3    H145662   1.524   6.608   4.484 -1.8568 -1.2349 -0.8236
 8057TIP3    H245663   1.492   6.747   4.435 -1.3993 -0.4513  1.0117
 8058TIP3   OH245664   4.790   3.402   5.080  0.0959 -0.2179  0.5817
 8058TIP3    H145665   4.765   3.449   5.001  1.8323 -0.7505 -0.3301
 8058TIP3    H245666   4.710   3.358   5.108 -0.6708  0.3760 -0.5870
 8059TIP3   OH245667   5.047   1.772   6.053  0.3159 -0.3607 -0.2117
 8059TIP3    H145668   5.078   1.685   6.077  1.3500  0.3042  1.0259
 8059TIP3    H245669   5.098   1.831   6.109 -1.0641  0.9725 -0.3038
 8060TIP3   OH245670   3.446   3.287   1.842 -0.5402  0.1214 -0.0390
 8060TIP3    H145671   3.502   3.294   1.920  0.7485  0.6009 -0.9695
 8060TIP3    H245672   3.447   3.375   1.805  1.1126 -0.6859 -2.0778
 8061TIP3   OH245673   4.317   6.693  13.998  0.6007  0.0948  0.3506
 8061TIP3    H145674   4.252   6.668  13.933  1.2217  1.9505 -1.0940
 8061TIP3    H245675   4.269   6.702  14.080 -0.6574 -0.0242 -0.3620
 8062TIP3   OH245676   4.937   6.069  12.054 -0.0855  0.1285 -0.0526
 8062TIP3    H145677   4.993   6.132  12.009 -0.0421 -0.3533 -0.6787
 8062TIP3    H245678   4.884   6.123  12.114  0.6829  0.6411  0.1817
 8063TIP3   OH245679   6.248   3.221   5.709  0.1382 -0.4368  0.1033
 8063TIP3    H145680   6.270   3.168   5.633 -0.2281 -0.9748  0.3591
 8063TIP3    H245681   6.318   3.204   5.772  0.1367 -0.4486  0.1014
 8064TIP3   OH245682   4.764   1.014  10.678 -0.0367  0.1163  0.1066
 8064TIP3    H145683   4.681   1.020  10.725 -0.1341 -0.6947  0.0489
 8064TIP3    H245684   4.743   1.039  10.588  0.0482  1.1705  0.3678
 8065TIP3   OH245685   0.480   4.481  10.857 -0.0396  0.2632  0.4540
 8065TIP3    H145686   0.452   4.572  10.870  0.5435  0.8219 -1.8165
 8065TIP3    H245687   0.451   4.460  10.768 -0.1946 -1.8093  0.9581
 8066TIP3   OH245688   3.383   3.452  14.325 -0.2301 -0.1052 -0.9732
 8066TIP3    H145689   3.288   3.436  14.326 -0.7161  2.1045  1.5589
 8066TIP3    H245690   3.420   3.376  14.369 -1.2004  0.3022  0.6436
 8067TIP3   OH245691   5.249   2.822  12.375  0.1084  0.4050 -0.1872
 8067TIP3    H145692   5.183   2.781  12.319  0.5358  0.5121 -0.7763
 8067TIP3    H245693   5.223   2.914  12.379  1.3847  0.9216 -2.1903
 8068TIP3   OH245694   6.247   2.412   3.587  0.0116 -0.5384  0.0778
 8068TIP3    H145695   6.318   2.362   3.547  1.2591  0.1690  1.3483
 8068TIP3    H245696   6.266   2.503   3.566  0.3446 -0.2053  1.6814
 8069TIP3   OH245697   1.975   3.756  14.118  0.3249 -0.3272  0.0758
 8069TIP3    H145698   1.966   3.850  14.136  1.7509 -0.2657  0.6168
 8069TIP3    H245699   1.956   3.714  14.202  0.3361 -0.4738  0.0042
 8070TIP3   OH245700   3.108   4.629  10.191  0.2139  0.0788  0.5227
 8070TIP3    H145701   3.094   4.540  10.158  2.8245 -0.4478  0.6285
 8070TIP3    H245702   3.021   4.670  10.187 -0.7132 -1.8801 -1.2237
 8071TIP3   OH245703   1.895   3.545  13.103 -0.4280 -0.1897 -0.5394
 8071TIP3    H145704   1.829   3.613  13.088  0.5191  0.7854 -0.4141
 8071TIP3    H245705   1.932   3.566  13.189  0.3764 -0.4429 -0.8165
 8072TIP3   OH245706   6.483   0.326   1.084 -0.0098 -0.0808 -0.0855
 8072TIP3    H145707   6.506   0.405   1.132  0.7883  0.2825 -1.0380
 8072TIP3    H245708   6.549   0.320   1.015 -0.0814 -1.5606 -0.0482
 8073TIP3   OH245709   4.066   2.231  17.183  0.2996 -0.1709  0.0811
 8073TIP3    H145710   3.998   2.247  17.117  1.4504 -1.8787 -1.6113
 8073TIP3    H245711   4.139   2.194  17.134  2.1284  0.7038  1.9913
 8074TIP3   OH245712   3.897   3.846  12.658  0.2047 -0.3804 -0.4854
 8074TIP3    H145713   3.870   3.926  12.613  0.4402 -0.5146 -0.8671
 8074TIP3    H245714   3.929   3.788  12.589 -0.6104 -1.0811 -0.2965
 8075TIP3   OH245715   3.074   4.868  16.541 -0.4028  0.0048 -0.0649
 8075TIP3    H145716   3.079   4.925  16.465 -0.6089 -0.9118 -0.7773
 8075TIP3    H245717   3.155   4.816  16.537 -0.7508 -0.5490 -0.0781
 8076TIP3   OH245718   4.397   3.957   2.779 -0.2006  0.6731 -0.5478
 8076TIP3    H145719   4.447   3.966   2.698 -0.3683  0.7100 -0.6472
 8076TIP3    H245720   4.332   4.026   2.775  0.4322  1.3277  0.0904
 8077TIP3   OH245721   0.517   4.837  15.689  0.2067 -0.1158 -0.2904
 8077TIP3    H145722   0.559   4.787  15.619  0.2704  0.6079 -0.7851
 8077TIP3    H245723   0.542   4.928  15.671 -0.5979  0.1881  0.0949
 8078TIP3   OH245724   2.921   1.816   1.208  0.0933  0.3504  0.1144
 8078TIP3    H145725   2.962   1.829   1.293  1.7505 -1.1020 -0.4064
 8078TIP3    H245726   2.971   1.871   1.148 -0.6806  0.8973 -0.0564
 8079TIP3   OH245727   2.301   2.767  16.724 -0.1859 -0.6487  0.3992
 8079TIP3    H145728   2.227   2.808  16.681  0.7370 -1.4360 -2.1047
 8079TIP3    H245729   2.359   2.839  16.748 -1.1238 -0.1344  1.1487
 8080TIP3   OH245730   4.489   4.683   2.226  0.0353 -0.3610 -0.4522
 8080TIP3    H145731   4.455   4.664   2.139 -2.9063 -1.1880  0.7520
 8080TIP3    H245732   4.427   4.642   2.286  0.6698  2.0569  2.0966
 8081TIP3   OH245733   5.996   2.457  11.985 -0.2368 -0.1340  0.6909
 8081TIP3    H145734   5.901   2.467  11.974 -0.2712 -1.0853  0.0211
 8081TIP3    H245735   6.019   2.522  12.051 -0.6489  3.2352 -2.1927
 8082TIP3   OH245736   1.405   3.732  15.432  0.0397 -0.2912  0.2922
 8082TIP3    H145737   1.462   3.673  15.481 -0.8921 -1.8886 -0.4963
 8082TIP3    H245738   1.421   3.711  15.340  0.7013  1.6632 -0.0858
 8083TIP3   OH245739   4.954   0.522  15.341  0.4286  0.0423 -0.4110
 8083TIP3    H145740   5.024   0.585  15.325  0.9123 -0.4230 -0.1257
 8083TIP3    H245741   4.979   0.444  15.291 -0.7902  0.4842 -1.7962
 8084TIP3   OH245742   3.095   1.702  11.450 -0.4608 -0.4128 -0.0141
 8084TIP3    H145743   3.024   1.638  11.440  0.7514 -1.8588  0.1379
 8084TIP3    H245744   3.105   1.740  11.363 -0.9354 -0.7441 -0.2204
 8085TIP3   OH245745   0.688   1.955  14.487 -0.5532  0.4449  0.7671
 8085TIP3    H145746   0.683   2.005  14.406  1.8741  0.4220  0.5258
 8085TIP3    H245747   0.740   2.010  14.546 -1.1951 -0.0958  1.8718
 8086TIP3   OH245748   1.111   6.736   1.408 -0.0366  0.1077 -0.1110
 8086TIP3    H145749   1.191   6.693   1.378  0.6359  0.7870  0.7081
 8086TIP3    H245750   1.087   6.689   1.488 -1.7461 -1.5962 -1.5140
 8087TIP3   OH245751   6.014   0.787   1.602  0.7402 -0.1733 -0.7350
 8087TIP3    H145752   5.977   0.722   1.663 -0.5846  1.6256  0.4833
 8087TIP3    H245753   5.971   0.768   1.519 -2.8397  1.5519  0.5242
 8088TIP3   OH245754   5.462   3.803   0.927 -0.2732  0.8663  0.2015
 8088TIP3    H145755   5.413   3.801   1.009  0.6024 -1.6789  0.7272
 8088TIP3    H245756   5.538   3.858   0.946 -1.6735  2.9761  0.0436
 8089TIP3   OH245757   2.936   6.730   3.916  0.2889 -0.2595  0.0509
 8089TIP3    H145758   3.021   6.711   3.876 -0.5705 -2.6615 -0.8113
 8089TIP3    H245759   2.953   6.805   3.972  2.8286 -0.2384 -0.6017
 8090TIP3   OH245760   5.911   3.130  14.341  0.0386  0.1617  0.2176
 8090TIP3    H145761   6.003   3.154  14.335 -0.2429  1.0807 -0.8065
 8090TIP3    H245762   5.867   3.191  14.281 -1.5181  1.2123  2.2936
 8091TIP3   OH245763   2.797   0.069  15.115  0.2853 -0.1695 -0.2113
 8091TIP3    H145764   2.704   0.083  15.096  0.3131 -0.9982 -1.0373
 8091TIP3    H245765   2.800   0.058  15.210 -0.0891  2.3960  0.1696
 8092TIP3   OH245766   5.702   1.005  11.430  0.0663 -0.5342  0.8752
 8092TIP3    H145767   5.703   1.100  11.434 -1.5553 -0.4528  0.1903
 8092TIP3    H245768   5.642   0.985  11.358  1.6851 -2.0671 -0.1215
 8093TIP3   OH245769   3.511   4.637   0.966  0.0412 -0.0150 -0.4981
 8093TIP3    H145770   3.460   4.589   0.900  0.3484 -0.8583 -0.1306
 8093TIP3    H245771   3.583   4.579   0.988  0.1788  0.4385  0.2783
 8094TIP3   OH245772   4.665   6.416   0.449 -0.1178  0.4955 -0.2790
 8094TIP3    H145773   4.690   6.380   0.534 -3.5514 -3.4337 -0.5835
 8094TIP3    H245774   4.708   6.360   0.385 -0.6783  0.8553 -0.9886
 8095TIP3   OH245775   1.787   1.482   1.656  0.2074  0.5331 -0.1618
 8095TIP3    H145776   1.781   1.439   1.741  1.6591  0.4909 -0.0554
 8095TIP3    H245777   1.824   1.569   1.675 -0.6110  0.9927 -0.6179
 8096TIP3   OH245778   3.668   3.282   4.233  0.0333 -0.2905  0.5107
 8096TIP3    H145779   3.624   3.365   4.251 -1.1447 -0.4995 -1.1380
 8096TIP3    H245780   3.597   3.218   4.228  0.6466 -0.9134 -0.7628
 8097TIP3   OH245781   5.053   0.559   2.438  0.2884  0.4508  0.2943
 8097TIP3    H145782   5.140   0.521   2.447  0.0600 -0.3296 -0.5888
 8097TIP3    H245783   5.016   0.557   2.526  0.0742 -1.9540  0.2111
 8098TIP3   OH245784   2.202   2.266  12.958 -0.3686 -0.0805 -0.1248
 8098TIP3    H145785   2.122   2.236  12.915  0.1482  1.0895 -1.9988
 8098TIP3    H245786   2.271   2.254  12.893  0.2309  2.9093 -0.1819
 8099TIP3   OH245787   3.102   3.515   4.957 -0.2010  0.2766 -0.3256
 8099TIP3    H145788   3.166   3.539   4.891  0.5148 -1.3024 -0.2560
 8099TIP3    H245789   3.025   3.486   4.907  1.1165 -3.1133 -0.6798
 8100TIP3   OH245790   5.789   2.223  15.215  0.0953  0.0574  0.4061
 8100TIP3    H145791   5.733   2.181  15.150  0.9778 -0.4043 -0.0732
 8100TIP3    H245792   5.782   2.167  15.292  0.6238 -0.5309  0.0375
 8101TIP3   OH245793   0.642   6.757  14.595 -0.1592 -0.7200  0.2508
 8101TIP3    H145794   0.673   6.784  14.681 -1.6786  0.7939  0.3688
 8101TIP3    H245795   0.547   6.766  14.600 -0.3351 -1.4218 -1.3254
 8102TIP3   OH245796   4.742   3.468  13.897 -0.3579 -0.0754  0.0997
 8102TIP3    H145797   4.649   3.447  13.887 -0.4346  0.7025 -0.9529
 8102TIP3    H245798   4.767   3.428  13.981 -1.4530 -0.9142  0.0455
 8103TIP3   OH245799   5.402   1.688   0.538 -0.4012 -0.3177  0.0942
 8103TIP3    H145800   5.473   1.652   0.590 -2.3003 -2.1747  1.6137
 8103TIP3    H245801   5.431   1.776   0.515  1.6287 -0.3501  2.1373
 8104TIP3   OH245802   4.912   4.027   1.790 -0.3083 -0.2043  0.2348
 8104TIP3    H145803   5.007   4.011   1.792 -0.5201 -1.7255 -0.5603
 8104TIP3    H245804   4.896   4.083   1.867  1.3681  1.0176 -0.2426
 8105TIP3   OH245805   3.877   4.028  12.409  0.2572 -0.3501 -0.4714
 8105TIP3    H145806   3.913   3.950  12.367 -0.6234 -1.8332  1.3781
 8105TIP3    H245807   3.787   4.034  12.375 -0.0979 -0.9139  0.3501
 8106TIP3   OH245808   4.299   5.038   0.545 -0.1389  0.4170 -0.1992
 8106TIP3    H145809   4.207   5.019   0.566 -0.1431 -0.1313 -0.6872
 8106TIP3    H245810   4.312   5.127   0.576  0.0384 -0.5131  2.7319
 8107TIP3   OH245811   6.785   4.621  16.546 -0.4120  0.0874  0.0411
 8107TIP3    H145812   6.850   4.690  16.536 -0.4506  0.1278  0.0697
 8107TIP3    H245813   6.799   4.587  16.634 -1.0391  0.7241  0.3967
 8108TIP3   OH245814   2.820   3.849   3.512  0.3265 -0.2710 -0.3342
 8108TIP3    H145815   2.856   3.781   3.569  2.1157  0.7063 -0.2207
 8108TIP3    H245816   2.895   3.877   3.458 -0.4910  1.2374 -0.7337
 8109TIP3   OH245817   5.235   4.427   0.030  0.4231  0.0049 -0.2364
 8109TIP3    H145818   5.240   4.339  -0.007  1.6647  0.1951 -0.5777
 8109TIP3    H245819   5.305   4.475  -0.014 -1.9500  1.9907 -2.1599
 8110TIP3   OH245820   3.775   6.086  16.363 -0.2483  0.0874  0.0109
 8110TIP3    H145821   3.779   6.017  16.297 -0.2222  0.7600 -0.6969
 8110TIP3    H245822   3.845   6.146  16.340 -1.9065  1.7372 -0.9572
 8111TIP3   OH245823   3.561   6.680  13.887  0.4605  0.4201  0.4333
 8111TIP3    H145824   3.603   6.615  13.944  1.0962 -0.0979 -0.6030
 8111TIP3    H245825   3.505   6.629  13.829 -1.1777  1.0553  1.3829
 8112TIP3   OH245826   1.899   3.041  13.741 -0.2593  0.2449 -0.3755
 8112TIP3    H145827   1.925   3.051  13.833 -0.7670  1.4895 -0.3532
 8112TIP3    H245828   1.810   3.008  13.744 -0.0974 -0.2118 -0.4371
 8113TIP3   OH245829   2.363   5.249   0.127 -0.4842 -0.3201 -0.2100
 8113TIP3    H145830   2.401   5.331   0.159 -2.1138  1.1927 -1.8864
 8113TIP3    H245831   2.345   5.199   0.206 -1.6288  1.9804  1.1190
 8114TIP3   OH245832   3.101   4.314   4.437 -0.3122  0.1900 -0.1304
 8114TIP3    H145833   3.181   4.271   4.405 -1.3520 -1.1171 -1.1282
 8114TIP3    H245834   3.122   4.343   4.525  0.9635 -1.0033 -0.0083
 8115TIP3   OH245835   4.169   1.028   4.738 -0.1049 -0.0013 -0.8619
 8115TIP3    H145836   4.202   1.040   4.649 -1.2174 -1.8012 -1.5818
 8115TIP3    H245837   4.185   0.936   4.758  2.9956  0.9666  2.1078
 8116TIP3   OH245838   4.771   3.158  13.027 -0.0385  0.1046  0.5225
 8116TIP3    H145839   4.702   3.114  13.076 -0.5637  0.2401 -0.0758
 8116TIP3    H245840   4.831   3.087  13.001  0.7579  0.1370  2.1035
 8117TIP3   OH245841   4.195   4.502  11.501 -0.0505  0.2789 -0.4253
 8117TIP3    H145842   4.169   4.592  11.483 -0.6914  1.0998  3.6454
 8117TIP3    H245843   4.286   4.497  11.472  0.1771  2.4228 -0.2355
 8118TIP3   OH245844   5.225   2.171   4.557 -0.7241 -0.2024 -0.6850
 8118TIP3    H145845   5.175   2.239   4.511 -2.1549 -1.5703 -1.2665
 8118TIP3    H245846   5.291   2.142   4.494  0.5556  1.2960 -0.0794
 8119TIP3   OH245847   4.077   6.737  12.244  0.1279 -0.6826  0.1982
 8119TIP3    H145848   4.166   6.713  12.219 -0.8040 -1.7384 -2.4769
 8119TIP3    H245849   4.088   6.810  12.305  2.8242  0.0266 -0.9807
 8120TIP3   OH245850   0.910   0.111  16.516  0.1260 -0.3518  0.8630
 8120TIP3    H145851   0.923   0.118  16.610 -1.1571  1.9434  0.9477
 8120TIP3    H245852   0.853   0.185  16.494  0.7941 -0.5189 -1.7957
 8121TIP3   OH245853   0.258   1.280  12.394  0.0370 -0.2830 -0.4362
 8121TIP3    H145854   0.325   1.308  12.331  1.0834 -4.1280 -1.3026
 8121TIP3    H245855   0.175   1.295  12.348  0.6196 -0.2447 -1.5173
 8122TIP3   OH245856   0.886   0.869  11.772 -0.3232 -0.1092 -0.2141
 8122TIP3    H145857   0.933   0.876  11.856 -1.5272 -0.2050  0.4911
 8122TIP3    H245858   0.912   0.947  11.724  0.6301 -0.2055  0.1151
 8123TIP3   OH245859   2.571   3.744  13.751 -0.0487 -0.3050  0.1747
 8123TIP3    H145860   2.507   3.694  13.700  0.5353 -2.4665  1.4184
 8123TIP3    H245861   2.642   3.681  13.768  0.1790  0.5570  2.8782
 8124TIP3   OH245862   1.323   2.118  12.083 -0.4423 -0.9529  0.1509
 8124TIP3    H145863   1.269   2.039  12.088  0.0285 -1.2393  0.6885
 8124TIP3    H245864   1.275   2.175  12.023 -1.4518 -1.1279  0.7658
 8125TIP3   OH245865   6.668   6.082  15.097 -0.2448 -0.1135  0.9134
 8125TIP3    H145866   6.588   6.030  15.088  0.8580 -1.7050 -0.3356
 8125TIP3    H245867   6.723   6.032  15.157 -0.0712  0.8165  1.5443
 8126TIP3   OH245868   5.659   1.732  13.743 -0.0070  0.7960 -0.7731
 8126TIP3    H145869   5.717   1.748  13.668  1.6526 -0.1188  0.2442
 8126TIP3    H245870   5.687   1.648  13.777 -1.9961  0.3102 -0.2192
 8127TIP3   OH245871   3.970   5.113  11.464 -0.1130  0.0678  0.2057
 8127TIP3    H145872   3.949   5.020  11.451 -0.5311  0.2018 -0.1313
 8127TIP3    H245873   3.937   5.132  11.552 -1.3725  0.2460 -0.2732
 8128TIP3   OH245874   0.753   4.518   0.733  0.1336 -0.3901  0.3264
 8128TIP3    H145875   0.706   4.598   0.708 -0.2132 -0.5886  0.3380
 8128TIP3    H245876   0.808   4.498   0.657 -1.2913 -1.2774 -0.5264
 8129TIP3   OH245877   3.627   4.734   1.588  0.2839 -0.3460  0.5775
 8129TIP3    H145878   3.642   4.760   1.497 -1.4740 -0.8297  0.1155
 8129TIP3    H245879   3.613   4.816   1.634  0.7351 -0.1237  0.3298
 8130TIP3   OH245880   2.607   1.759  16.583 -0.2387 -0.4945  0.7184
 8130TIP3    H145881   2.618   1.750  16.678 -1.5481 -1.0435  0.8332
 8130TIP3    H245882   2.658   1.838  16.561  0.9169 -0.9351  1.6962
 8131TIP3   OH245883   4.737   0.692  15.735  0.0813  0.4389  0.5289
 8131TIP3    H145884   4.761   0.783  15.717  0.2596  0.2869 -0.0299
 8131TIP3    H245885   4.642   0.690  15.730  0.1369  0.2947 -1.0252
 8132TIP3   OH245886   3.005   4.926   3.910  0.7212  0.0396 -0.1379
 8132TIP3    H145887   2.953   4.851   3.938  0.6793  0.7779  1.9896
 8132TIP3    H245888   3.060   4.893   3.839 -2.0522 -0.9579 -1.9608
 8133TIP3   OH245889   3.907   1.705  11.420  1.2419  0.5382  0.6106
 8133TIP3    H145890   3.973   1.773  11.432  2.1955  0.2116 -2.0706
 8133TIP3    H245891   3.937   1.655  11.344 -1.7526 -0.0165 -0.3837
 8134TIP3   OH245892   3.325   2.129   3.200  0.2610 -0.3113  0.3037
 8134TIP3    H145893   3.284   2.090   3.123  0.5921 -1.1788  0.5509
 8134TIP3    H245894   3.416   2.099   3.197  0.2184 -0.5771  1.1616
 8135TIP3   OH245895   2.540   3.580  14.118 -0.2729 -0.2472  0.2809
 8135TIP3    H145896   2.561   3.672  14.132  3.2809 -0.6480 -1.2526
 8135TIP3    H245897   2.625   3.537  14.105 -1.7054 -3.8984  1.5022
 8136TIP3   OH245898   6.615   2.229   4.423  0.1848  0.5115  0.4961
 8136TIP3    H145899   6.594   2.154   4.368  1.2636  0.0935  0.6143
 8136TIP3    H245900   6.628   2.301   4.361 -1.6962  0.8360  0.4414
 8137TIP3   OH245901   3.661   1.913  13.872  0.0255 -0.1985 -0.7293
 8137TIP3    H145902   3.588   1.921  13.810 -0.2610 -0.5439 -0.4452
 8137TIP3    H245903   3.695   2.002  13.881 -0.4296 -0.0159 -0.7891
 8138TIP3   OH245904   5.446   4.669  14.256 -0.0794 -0.3457  0.3674
 8138TIP3    H145905   5.365   4.620  14.237  0.4013 -0.6399 -1.0406
 8138TIP3    H245906   5.474   4.635  14.341 -0.4344 -1.6273  0.0013
 8139TIP3   OH245907   1.079   2.730  11.350 -0.2511  0.6721  0.6688
 8139TIP3    H145908   1.019   2.660  11.325  1.3790 -0.7071  0.4416
 8139TIP3    H245909   1.078   2.729  11.445 -2.6914  2.6093  0.7775
 8140TIP3   OH245910   2.306   5.290   5.692  0.8399  0.2407  0.2871
 8140TIP3    H145911   2.392   5.322   5.716 -0.0917  2.8738  0.3601
 8140TIP3    H245912   2.255   5.293   5.773  0.0272  1.0632 -0.2297
 8141TIP3   OH245913   3.211   1.407  11.835 -0.4704  0.3422  0.8407
 8141TIP3    H145914   3.207   1.498  11.808  1.3010 -0.0309 -0.8821
 8141TIP3    H245915   3.293   1.374  11.799 -0.3476 -1.5705  2.6389
 8142TIP3   OH245916   2.655   6.668  14.755 -0.4729  0.0906  0.1231
 8142TIP3    H145917   2.647   6.731  14.683  0.9754 -0.2314 -0.3484
 8142TIP3    H245918   2.742   6.683  14.791 -0.1590 -1.5396  0.1095
 8143TIP3   OH245919   0.896   3.052  17.027  0.3438 -0.0013 -0.6613
 8143TIP3    H145920   0.926   3.060  16.936  0.0367  0.8674 -0.6918
 8143TIP3    H245921   0.961   3.100  17.078 -0.0132  0.3547 -0.5346
 8144TIP3   OH245922   1.191   0.497   0.316  0.8257 -0.0180  0.1114
 8144TIP3    H145923   1.265   0.536   0.362  1.9750 -0.0912 -1.6088
 8144TIP3    H245924   1.225   0.475   0.230 -0.8705 -1.2343 -0.2899
 8145TIP3   OH245925   4.374   2.280   0.721  0.8330 -1.0312 -0.5635
 8145TIP3    H145926   4.339   2.311   0.804  1.7753 -0.0683 -0.5069
 8145TIP3    H245927   4.469   2.285   0.732  1.0182 -2.8048 -0.9929
 8146TIP3   OH245928   2.466   0.296  16.047 -0.3018 -0.3755  0.3252
 8146TIP3    H145929   2.409   0.221  16.035 -0.6452 -0.0837  0.1136
 8146TIP3    H245930   2.407   0.369  16.068  0.1221 -0.4446  1.9242
 8147TIP3   OH245931   2.781   6.758   4.301 -0.2607 -0.1614 -0.4590
 8147TIP3    H145932   2.757   6.807   4.379 -2.1913 -0.0271 -1.0876
 8147TIP3    H245933   2.855   6.703   4.329  0.2490  1.1572  0.9451
 8148TIP3   OH245934   0.843   0.396  13.065 -0.0825 -0.2225  0.2980
 8148TIP3    H145935   0.904   0.322  13.068 -0.4925 -0.5888 -0.2476
 8148TIP3    H245936   0.758   0.356  13.046 -0.9007  0.0460  2.9312
 8149TIP3   OH245937   4.714   5.123   4.615  0.1884  0.0673 -0.5436
 8149TIP3    H145938   4.750   5.075   4.540 -0.2296  0.5364 -1.0473
 8149TIP3    H245939   4.686   5.207   4.579 -1.7067 -0.3976 -0.2375
 8150TIP3   OH245940   6.139   6.100  17.186  0.5236  0.6377  0.1767
 8150TIP3    H145941   6.190   6.050  17.249  2.2506  0.2579 -1.4553
 8150TIP3    H245942   6.192   6.102  17.107 -1.3717  1.4714 -1.1624
 8151TIP3   OH245943   0.855   3.781   1.669  0.1482  0.5973 -0.1127
 8151TIP3    H145944   0.833   3.692   1.643  0.9396  0.1276  0.7649
 8151TIP3    H245945   0.809   3.837   1.606 -2.3479 -0.3541  0.7179
 8152TIP3   OH245946   3.525   4.863  11.883 -0.2267  0.2855  0.2676
 8152TIP3    H145947   3.618   4.884  11.876 -0.2019  0.1495  0.1989
 8152TIP3    H245948   3.489   4.934  11.936 -0.0092  0.1338  0.6302
 8153TIP3   OH245949   0.426   0.193  11.341  0.4872 -0.2932 -0.1848
 8153TIP3    H145950   0.396   0.273  11.385 -0.1887  0.2113 -1.5083
 8153TIP3    H245951   0.507   0.218  11.297  0.5493 -0.4806 -0.1782
 8154TIP3   OH245952   5.147   6.199  12.973 -0.1936 -0.3701 -0.2929
 8154TIP3    H145953   5.147   6.241  12.887 -0.7608 -0.0790 -0.1543
 8154TIP3    H245954   5.213   6.246  13.023 -0.3045 -0.1322 -0.3718
 8155TIP3   OH245955   5.416   3.583   5.674  0.1580 -0.3721  0.0157
 8155TIP3    H145956   5.451   3.649   5.734 -0.0085 -0.1321 -0.1483
 8155TIP3    H245957   5.460   3.599   5.591 -0.3881 -0.0203 -0.2102
 8156TIP3   OH245958   4.207   3.036  10.649 -0.2480 -0.0437  0.0424
 8156TIP3    H145959   4.273   3.036  10.719  1.1953 -0.1800 -1.2488
 8156TIP3    H245960   4.235   3.106  10.590 -1.0016 -0.4011 -0.7644
 8157TIP3   OH245961   0.491   4.030  15.089 -0.2666 -0.0789  0.3449
 8157TIP3    H145962   0.571   3.980  15.106 -0.5653 -0.2182  1.4500
 8157TIP3    H245963   0.424   3.985  15.141 -1.1329 -0.1232 -0.7617
 8158TIP3   OH245964   3.925   0.782   4.545 -0.0726  0.0182 -0.2357
 8158TIP3    H145965   3.862   0.845   4.581 -0.2815 -0.1423 -0.3157
 8158TIP3    H245966   3.988   0.835   4.497  0.6280  0.3125  0.9605
 8159TIP3   OH245967   0.169   5.423  16.003 -0.0114 -0.3414 -0.1869
 8159TIP3    H145968   0.108   5.397  16.072  0.0839  0.7492  0.3259
 8159TIP3    H245969   0.112   5.454  15.932 -0.0763  0.7667  0.3278
 8160TIP3   OH245970   3.838   5.404  16.689 -0.0047  0.0196 -0.3130
 8160TIP3    H145971   3.776   5.343  16.648 -0.1948  1.2413 -1.9675
 8160TIP3    H245972   3.924   5.369  16.669 -0.1306 -0.2071 -0.4590
 8161TIP3   OH245973   2.238   5.336  14.212 -0.0450 -0.4109 -0.6242
 8161TIP3    H145974   2.291   5.289  14.147 -2.0921 -0.9109 -2.0650
 8161TIP3    H245975   2.225   5.423  14.175  1.0450  0.2445  0.4803
 8162TIP3   OH245976   0.036   4.593  16.188  0.2511 -0.5888  0.3562
 8162TIP3    H145977   0.073   4.526  16.245  2.2144  1.1254  1.2238
 8162TIP3    H245978   0.060   4.565  16.100  2.1588 -0.4416  0.7874
 8163TIP3   OH245979   5.714   1.543  14.991 -0.0246 -0.6207  0.1899
 8163TIP3    H145980   5.655   1.560  15.064 -1.0311 -2.2374 -0.2151
 8163TIP3    H245981   5.717   1.448  14.984  1.0611 -0.5191 -1.0829
 8164TIP3   OH245982   5.572   6.166   0.470  0.9487 -0.9782  0.0848
 8164TIP3    H145983   5.482   6.136   0.486  0.7598 -0.2055  0.5227
 8164TIP3    H245984   5.576   6.252   0.510  2.2557 -1.5009  1.1628
 8165TIP3   OH245985   1.230   3.093  16.405  0.2077 -0.2052  0.1321
 8165TIP3    H145986   1.172   3.025  16.436 -1.4064  0.5118 -1.1624
 8165TIP3    H245987   1.208   3.170  16.458 -0.8290  0.3510 -1.0436
 8166TIP3   OH245988   3.566   0.033   3.716 -0.0519  0.2566  0.2077
 8166TIP3    H145989   3.493   0.089   3.742 -0.4027 -0.4784  0.8070
 8166TIP3    H245990   3.591  -0.013   3.795  2.3516  1.8959  0.5205
 8167TIP3   OH245991   5.864   4.424  12.618 -0.6372 -0.2770 -0.2937
 8167TIP3    H145992   5.933   4.389  12.561 -2.3652 -1.7622 -1.6008
 8167TIP3    H245993   5.846   4.511  12.583  0.3073 -0.0239 -0.1747
 8168TIP3   OH245994   6.172   4.771   1.094  0.0035  0.7538  0.2870
 8168TIP3    H145995   6.147   4.827   1.021  0.5722 -0.5563 -0.9776
 8168TIP3    H245996   6.097   4.712   1.106 -0.3428  1.3647  1.1919
 8169TIP3   OH245997   4.263   5.519  13.060 -0.1048  0.6133  0.0980
 8169TIP3    H145998   4.240   5.572  13.137 -0.5309 -0.3438  0.6364
 8169TIP3    H245999   4.183   5.472  13.038  0.4153 -0.2411 -0.0221
 8170TIP3   OH246000   2.572   5.181  15.238  0.5543  0.6239  0.5512
 8170TIP3    H146001   2.515   5.225  15.301  0.4678  0.0778  0.8588
 8170TIP3    H246002   2.549   5.088  15.246  3.0284  0.0605  2.3353
 8171TIP3   OH246003   4.920   2.653   4.008  0.3594 -0.1649 -0.0928
 8171TIP3    H146004   4.882   2.696   3.932 -1.0837  1.4641  1.4522
 8171TIP3    H246005   4.845   2.613   4.053  1.0911 -0.5962  0.7803
 8172TIP3   OH246006   6.115   0.653  16.111  0.5449  0.1449  0.2460
 8172TIP3    H146007   6.179   0.722  16.131  1.2677 -0.9955  2.0947
 8172TIP3    H246008   6.169   0.578  16.084 -0.0993 -0.3132  0.2119
 8173TIP3   OH246009   6.119   4.845  12.121  0.3506  0.7836 -0.3752
 8173TIP3    H146010   6.127   4.936  12.094  0.2438  0.2967 -2.1159
 8173TIP3    H246011   6.144   4.794  12.044 -1.0759 -0.6724  0.0778
 8174TIP3   OH246012   6.142   5.108  12.039  0.2421  0.1159  0.4029
 8174TIP3    H146013   6.194   5.186  12.022 -0.0047  0.5816  1.7185
 8174TIP3    H246014   6.075   5.109  11.970  1.6526 -0.2645 -1.0488
 8175TIP3   OH246015   1.497   2.577   0.977  0.4840  0.0444 -0.5918
 8175TIP3    H146016   1.401   2.579   0.979  0.4234  2.6204 -1.6837
 8175TIP3    H246017   1.518   2.512   0.910 -0.5263 -0.1448 -0.7439
 8176TIP3   OH246018   1.755   6.334  12.799 -0.2523  0.1374 -0.5508
 8176TIP3    H146019   1.818   6.266  12.776 -1.2988 -0.5316 -1.6011
 8176TIP3    H246020   1.675   6.310  12.751 -1.6915  0.2802  1.6150
 8177TIP3   OH246021   6.812   3.576  10.573 -0.2535 -1.2323  0.6392
 8177TIP3    H146022   6.780   3.631  10.501 -0.0011 -0.8080  0.8516
 8177TIP3    H246023   6.734   3.533  10.607 -0.6318 -0.0857  1.2535
 8178TIP3   OH246024   6.412   5.800  12.698  0.2682  1.1806 -0.6233
 8178TIP3    H146025   6.500   5.770  12.677  0.0875 -1.3630  1.6380
 8178TIP3    H246026   6.354   5.736  12.657 -0.3001  0.4065  1.2605
 8179TIP3   OH246027   4.412   4.935  14.903 -0.3399  0.3641 -0.0667
 8179TIP3    H146028   4.433   5.006  14.963 -0.9735  0.5922 -0.1056
 8179TIP3    H246029   4.427   4.971  14.816  0.3147  0.1206 -0.0615
 8180TIP3   OH246030   4.590   5.800   5.234 -0.1918 -0.1484 -0.2458
 8180TIP3    H146031   4.627   5.769   5.317 -0.9485  0.4104  0.3195
 8180TIP3    H246032   4.506   5.754   5.227 -0.5068  0.4193 -0.2787
 8181TIP3   OH246033   3.579   0.751  13.665 -0.2813 -0.2619 -0.5229
 8181TIP3    H146034   3.624   0.815  13.721 -0.1854  0.6302 -1.5818
 8181TIP3    H246035   3.514   0.711  13.722 -0.8920  1.3542 -0.0236
 8182TIP3   OH246036   4.740   0.025   1.002  0.2844 -0.2596 -0.1536
 8182TIP3    H146037   4.823  -0.021   0.989  0.7004  0.8689 -1.6800
 8182TIP3    H246038   4.730   0.029   1.097  2.2962  0.1279  0.0842
 8183TIP3   OH246039   0.196   2.898  15.188 -0.5917 -0.0886 -0.4025
 8183TIP3    H146040   0.284   2.930  15.168 -0.5051 -0.1353 -0.0944
 8183TIP3    H246041   0.163   2.864  15.104 -0.8255  1.1434 -0.8289
 8184TIP3   OH246042   4.065   4.767   6.292 -0.1294 -0.2812 -0.4707
 8184TIP3    H146043   4.129   4.820   6.244 -0.1630 -0.9339 -1.2556
 8184TIP3    H246044   3.985   4.819   6.292  0.1857  0.2194 -0.1194
 8185TIP3   OH246045   5.824   2.553  16.537 -0.4509  0.4273  0.1591
 8185TIP3    H146046   5.813   2.575  16.445  0.7244  0.6231  0.0537
 8185TIP3    H246047   5.843   2.636  16.580  0.9339  0.0961  0.2499
 8186TIP3   OH246048   1.407   2.414   2.034 -0.4715 -0.6171  0.0561
 8186TIP3    H146049   1.474   2.358   2.074 -0.9721  0.4102  2.5652
 8186TIP3    H246050   1.327   2.363   2.038 -0.4359 -0.6800 -0.0350
 8187TIP3   OH246051   3.968   1.366  16.232 -0.5874  0.3088  0.1172
 8187TIP3    H146052   4.005   1.285  16.265 -0.0465  0.4034 -0.2492
 8187TIP3    H246053   3.952   1.419  16.310 -1.8390 -0.5070  0.4534
 8188TIP3   OH246054   2.832   4.834   3.581 -0.4654  0.4186  0.1869
 8188TIP3    H146055   2.767   4.769   3.610 -1.0291 -0.3594 -2.5277
 8188TIP3    H246056   2.908   4.817   3.637 -0.7096 -2.4277 -0.1495
 8189TIP3   OH246057   6.547   4.902  12.195  0.2728 -0.0366  0.0222
 8189TIP3    H146058   6.581   4.812  12.203 -1.9570 -0.7948  2.0321
 8189TIP3    H246059   6.601   4.953  12.255  1.4059 -0.0400 -0.9608
 8190TIP3   OH246060   6.313   1.916  14.089  1.0431  0.4385  0.8044
 8190TIP3    H146061   6.227   1.894  14.122  0.9795  1.2718  1.2263
 8190TIP3    H246062   6.330   1.851  14.021 -0.2393  0.7196  0.1848
 8191TIP3   OH246063   5.349   2.623   4.090 -0.0904  0.1074 -0.0236
 8191TIP3    H146064   5.280   2.687   4.107  1.6147  2.3448 -0.9758
 8191TIP3    H246065   5.323   2.546   4.140 -2.4033  1.4258  0.9785
 8192TIP3   OH246066   5.373   6.138  14.545  0.1065  0.5063 -0.2474
 8192TIP3    H146067   5.298   6.186  14.579  0.9568  1.3466  0.4654
 8192TIP3    H246068   5.443   6.203  14.537  0.8610 -0.3193 -0.6166
 8193TIP3   OH246069   0.910   0.625  11.893  0.1512 -0.4661  0.0645
 8193TIP3    H146070   0.917   0.699  11.833  0.3597 -0.3406  0.2429
 8193TIP3    H246071   0.836   0.573  11.859 -0.2014 -0.0071  0.1300
 8194TIP3   OH246072   0.875   6.440   2.245 -0.1200  0.4000 -0.2869
 8194TIP3    H146073   0.855   6.407   2.333  3.0939  0.4852  0.6133
 8194TIP3    H246074   0.928   6.372   2.205  1.1662  1.6936 -0.8748
 8195TIP3   OH246075   0.711   3.580   0.528 -0.1380 -0.1134  0.0925
 8195TIP3    H146076   0.785   3.594   0.588 -0.2394  0.6685  0.0435
 8195TIP3    H246077   0.748   3.527   0.457  0.6640  1.1463 -0.4662
 8196TIP3   OH246078   4.691   4.439  13.865 -0.3971 -0.0913 -0.2830
 8196TIP3    H146079   4.703   4.361  13.812  0.0750 -0.1838 -0.0511
 8196TIP3    H246080   4.749   4.504  13.826 -1.1137  0.2893 -0.7422
 8197TIP3   OH246081   3.079   0.295  10.921 -0.1556 -0.0193  0.3440
 8197TIP3    H146082   3.069   0.390  10.919 -1.5020 -0.1647 -1.0326
 8197TIP3    H246083   2.992   0.261  10.900  0.2530 -1.5703  1.0310
 8198TIP3   OH246084   3.017   0.600   5.249 -1.0406  0.3308 -0.6664
 8198TIP3    H146085   3.032   0.653   5.327 -1.8490 -0.0867 -0.2218
 8198TIP3    H246086   2.995   0.663   5.180  0.5485  0.7778 -0.7998
 8199TIP3   OH246087   3.473   1.697   4.364  0.2638  0.3142 -0.0489
 8199TIP3    H146088   3.422   1.770   4.330  0.9983  1.3332  0.9860
 8199TIP3    H246089   3.503   1.650   4.286  0.1303  1.3488 -0.7345
 8200TIP3   OH246090   6.496   1.767  12.396  0.4915  0.0852  0.3328
 8200TIP3    H146091   6.540   1.708  12.457  2.3130  1.0042 -0.0141
 8200TIP3    H246092   6.406   1.773  12.428  0.8290 -1.2012  1.5874
 8201TIP3   OH246093   3.473   5.027  12.632 -0.0557  0.3568 -0.0192
 8201TIP3    H146094   3.435   5.005  12.717  0.1297 -0.3553 -0.1155
 8201TIP3    H246095   3.565   5.002  12.639  0.4616  2.1754  0.2556
 8202TIP3   OH246096   3.082   6.824   2.236 -0.2242  0.5651  0.4259
 8202TIP3    H146097   3.086   6.846   2.143 -0.6480 -1.0832 -0.0293
 8202TIP3    H246098   3.129   6.741   2.243 -1.2240  0.0516  1.4598
 8203TIP3   OH246099   3.623   2.810  13.847 -0.7598 -0.0765  0.2194
 8203TIP3    H146100   3.531   2.836  13.839 -1.1247 -0.9688  1.1804
 8203TIP3    H246101   3.625   2.721  13.811 -0.0460  0.3183 -0.7579
 8204TIP3   OH246102   3.160   2.122   6.198 -0.2494  0.1821  0.3166
 8204TIP3    H146103   3.201   2.074   6.126  1.9007 -0.6360  1.9864
 8204TIP3    H246104   3.170   2.214   6.174 -1.3692 -0.0900 -1.3317
 8205TIP3   OH246105   1.595   6.027  13.358  1.0015 -0.1549 -0.1911
 8205TIP3    H146106   1.570   6.077  13.436  1.3488 -0.8154  0.3550
 8205TIP3    H246107   1.550   5.943  13.368  0.1431  0.1490 -1.2726
 8206TIP3   OH246108   0.016   2.916   3.525  0.7964 -0.2761  0.6338
 8206TIP3    H146109   0.061   2.998   3.506 -0.1414  0.6398  2.1157
 8206TIP3    H246110  -0.058   2.914   3.464  0.4793  0.2950  0.9889
 8207TIP3   OH246111   6.450   6.457  16.093  0.1877  0.2603 -0.4038
 8207TIP3    H146112   6.541   6.486  16.100  0.3803 -0.7382  2.8351
 8207TIP3    H246113   6.456   6.361  16.085 -0.5609  0.1683  0.0162
 8208TIP3   OH246114   2.509   1.333  13.792  0.5538 -0.0853  0.4368
 8208TIP3    H146115   2.450   1.345  13.718 -1.1185  1.2295  1.8725
 8208TIP3    H246116   2.597   1.329  13.754 -0.3567 -1.1571 -1.7073
 8209TIP3   OH246117   2.553   4.236   4.902 -0.4332  0.3850  0.0699
 8209TIP3    H146118   2.473   4.252   4.952 -0.6225  0.3854 -0.2305
 8209TIP3    H246119   2.563   4.141   4.903 -1.1107  0.2915 -0.9233
 8210TIP3   OH246120   5.965   0.064  17.055 -0.3810  0.0173  1.1155
 8210TIP3    H146121   6.046   0.095  17.015 -1.4152  0.8499 -0.4299
 8210TIP3    H246122   5.972  -0.032  17.054  0.0014  0.0432 -0.3051
 8211TIP3   OH246123   2.170   1.036  12.757 -0.5263 -0.8073 -0.3427
 8211TIP3    H146124   2.191   0.985  12.678  1.6173  0.7045 -0.8550
 8211TIP3    H246125   2.085   1.075  12.738  1.5977  2.9138 -3.9617
 8212TIP3   OH246126   2.141   0.875   1.271  0.1392 -0.4218 -0.6792
 8212TIP3    H146127   2.076   0.827   1.322  1.7494  0.1987  2.1386
 8212TIP3    H246128   2.123   0.967   1.289  0.7776 -0.1769 -1.2208
 8213TIP3   OH246129   1.051   3.723   4.006  0.3093 -0.5892 -0.4535
 8213TIP3    H146130   1.056   3.659   4.077  0.4941 -0.0038  0.0713
 8213TIP3    H246131   1.142   3.743   3.985  0.2695  0.5967  0.4069
 8214TIP3   OH246132   3.047   6.674  14.667  0.3316 -0.5560 -0.0011
 8214TIP3    H146133   3.132   6.703  14.633 -0.2674  2.3110  0.6537
 8214TIP3    H246134   3.060   6.665  14.761 -0.5782  2.3376  0.4883
 8215TIP3   OH246135   2.967   0.443   1.939 -0.4920 -0.0688 -0.6085
 8215TIP3    H146136   3.025   0.507   1.980 -1.7485 -0.0850  1.3423
 8215TIP3    H246137   2.909   0.496   1.883  0.3299  0.1285 -1.2882
 8216TIP3   OH246138   4.185   5.740   0.170 -0.5806 -0.4158  0.3950
 8216TIP3    H146139   4.213   5.651   0.195 -2.4739 -1.7240 -1.7158
 8216TIP3    H246140   4.262   5.780   0.131 -0.0132 -1.6057  0.2551
 8217TIP3   OH246141   1.951   0.422  16.124  0.0678  0.4416  0.1105
 8217TIP3    H146142   1.993   0.339  16.102 -0.7625  0.0130  0.1006
 8217TIP3    H246143   1.902   0.404  16.204 -1.3065  0.4881 -0.6730
 8218TIP3   OH246144   2.986   2.381   4.016  0.1136  0.6271  0.0901
 8218TIP3    H146145   2.958   2.437   3.944  0.1989  0.8868  0.2597
 8218TIP3    H246146   3.081   2.391   4.020  0.2682 -0.3680 -0.5814
 8219TIP3   OH246147   3.064   3.201   3.686  0.2390 -0.4025 -0.0465
 8219TIP3    H146148   2.980   3.244   3.701  0.1146 -0.6657  0.0018
 8219TIP3    H246149   3.123   3.273   3.663  0.0085 -0.2149 -0.0557
 8220TIP3   OH246150   1.767   6.735   2.748  0.2997 -0.3487  0.3264
 8220TIP3    H146151   1.704   6.727   2.676 -1.8971 -0.4068  2.1384
 8220TIP3    H246152   1.844   6.688   2.718 -0.2274  0.2838 -2.2756
 8221TIP3   OH246153   2.817   5.411  14.619 -0.3837  0.2409  0.1048
 8221TIP3    H146154   2.839   5.448  14.533 -1.3010  1.5410  0.4069
 8221TIP3    H246155   2.818   5.486  14.678 -2.1069 -0.2427  0.7749
 8222TIP3   OH246156   0.652   4.032   4.042 -0.4744 -0.1202  0.5372
 8222TIP3    H146157   0.649   4.023   3.947  1.5959  2.1533  0.1503
 8222TIP3    H246158   0.562   4.015   4.071 -1.2834 -0.3006 -1.8619
 8223TIP3   OH246159   2.164   2.530   2.580  0.1403 -0.3909  0.3157
 8223TIP3    H146160   2.156   2.542   2.674 -2.0222  0.4154  0.0775
 8223TIP3    H246161   2.210   2.608   2.549 -1.1542  0.4398  0.4526
 8224TIP3   OH246162   5.720   0.806  13.370  0.7104  0.3393  0.2141
 8224TIP3    H146163   5.736   0.740  13.303  0.6857  1.1138 -0.5744
 8224TIP3    H246164   5.785   0.787  13.438 -1.2696 -2.4008  1.5050
 8225TIP3   OH246165   0.324   4.565  11.943 -0.4123  0.1632  0.1374
 8225TIP3    H146166   0.321   4.590  12.035  1.1105  2.0894 -0.2609
 8225TIP3    H246167   0.260   4.622  11.900 -0.0550  0.3200 -0.1934
 8226TIP3   OH246168   5.597   3.486  13.040 -0.5668  0.0744 -0.3512
 8226TIP3    H146169   5.539   3.473  12.965 -1.8326 -1.3559  0.8204
 8226TIP3    H246170   5.597   3.401  13.085 -0.0460  0.9731  1.4042
 8227TIP3   OH246171   3.552   4.173   0.227  0.1228  0.1366  0.1375
 8227TIP3    H146172   3.632   4.120   0.233  0.3255  0.4237  0.0147
 8227TIP3    H246173   3.539   4.186   0.133 -0.9951 -1.2790  0.0567
 8228TIP3   OH246174   5.006   3.398   1.523 -0.3582  0.3646 -0.1828
 8228TIP3    H146175   4.958   3.337   1.579  1.5597 -1.6090 -0.5441
 8228TIP3    H246176   4.949   3.414   1.449 -1.2780 -0.2485  0.3772
 8229TIP3   OH246177   6.368   6.721   3.202  0.2220  0.2041  0.2305
 8229TIP3    H146178   6.288   6.685   3.164  0.2809 -0.6035  0.8393
 8229TIP3    H246179   6.402   6.651   3.258  1.2072  0.6313  0.2009
 8230TIP3   OH246180   3.605   6.181   0.900  0.0758 -0.0307  0.3224
 8230TIP3    H146181   3.597   6.250   0.834  1.0732  1.1971  1.4269
 8230TIP3    H246182   3.679   6.128   0.871 -0.0478 -0.0281 -0.0005
 8231TIP3   OH246183   0.535   6.522  10.851  0.3462 -0.5817 -0.0797
 8231TIP3    H146184   0.579   6.570  10.782  0.7799 -0.4904  0.2559
 8231TIP3    H246185   0.456   6.487  10.810  1.6591 -2.3614 -1.2034
 8232TIP3   OH246186   5.935   0.259   6.059  0.4583  0.1925 -0.4010
 8232TIP3    H146187   5.988   0.224   6.130 -1.6041  0.1557  1.2131
 8232TIP3    H246188   5.856   0.205   6.059 -0.2693  1.2038 -1.6777
 8233TIP3   OH246189   6.811   4.630   2.680 -0.1238  0.3332 -0.7347
 8233TIP3    H146190   6.743   4.570   2.711  0.6109  0.4631  1.2176
 8233TIP3    H246191   6.763   4.699   2.634 -1.2588  0.0570 -0.0059
 8234TIP3   OH246192   3.932   6.550   5.065 -0.2305 -0.1299  0.3370
 8234TIP3    H146193   4.010   6.526   5.115 -0.9565  0.1697  1.6565
 8234TIP3    H246194   3.943   6.506   4.981  0.9744 -0.7420  0.7901
 8235TIP3   OH246195   0.028   3.112  14.252 -0.6782  0.3426  0.2242
 8235TIP3    H146196   0.024   3.205  14.234 -0.6538  0.4349  0.6973
 8235TIP3    H246197  -0.042   3.096  14.315  0.8695  0.4985  2.0762
 8236TIP3   OH246198   5.187   2.725  16.072  0.1476  0.8236 -0.3293
 8236TIP3    H146199   5.221   2.710  16.161 -0.4319  0.1626 -0.2104
 8236TIP3    H246200   5.145   2.643  16.049  1.6574  0.4249 -1.8581
 8237TIP3   OH246201   0.322   1.368   4.680  0.2901  0.3869  0.1125
 8237TIP3    H146202   0.389   1.332   4.622 -1.0005  0.4419 -1.4914
 8237TIP3    H246203   0.283   1.439   4.629  0.3344  1.6770  1.8044
 8238TIP3   OH246204   5.746   2.357   4.191  0.1487  0.4693 -0.4758
 8238TIP3    H146205   5.750   2.261   4.197 -0.9680  0.4667  0.7292
 8238TIP3    H246206   5.697   2.374   4.111  1.9354  0.1078 -1.7121
 8239TIP3   OH246207   0.523   5.112   5.727  0.3034 -0.2871 -0.2189
 8239TIP3    H146208   0.499   5.175   5.795  2.0122 -0.0096  0.1546
 8239TIP3    H246209   0.618   5.106   5.731  0.3329 -1.3649 -1.6250
 8240TIP3   OH246210   3.621   3.792  12.949 -0.3043 -0.0125 -0.0314
 8240TIP3    H146211   3.559   3.746  12.892  0.2481 -0.6729 -0.1097
 8240TIP3    H246212   3.591   3.883  12.948 -0.9493 -0.2225 -0.5026
 8241TIP3   OH246213   6.140   0.852  16.744 -0.7935 -0.1959 -0.2559
 8241TIP3    H146214   6.191   0.771  16.733 -0.0833  0.4388 -2.0903
 8241TIP3    H246215   6.143   0.870  16.838 -2.2019 -3.0431  0.4435
 8242TIP3   OH246216   6.338   6.769  14.362 -0.7368  0.2532 -0.2340
 8242TIP3    H146217   6.273   6.780  14.292  0.1959 -1.8329 -1.5397
 8242TIP3    H246218   6.322   6.681  14.396 -0.6913  0.9699  1.7242
 8243TIP3   OH246219   3.147   5.391   4.836  0.8456  0.1051  0.0901
 8243TIP3    H146220   3.162   5.483   4.858 -0.7603  0.4290 -0.0578
 8243TIP3    H246221   3.186   5.342   4.908  1.0718  0.9173  0.5276
 8244TIP3   OH246222   5.864   6.052   0.651  0.2375  0.0191  0.8446
 8244TIP3    H146223   5.821   6.125   0.608 -3.2864 -2.1652  0.2984
 8244TIP3    H246224   5.836   6.057   0.742 -1.5854 -1.5700  0.4341
 8245TIP3   OH246225   5.703   3.612  11.753 -0.5828 -0.7063  0.3732
 8245TIP3    H146226   5.645   3.619  11.678 -1.4486 -1.2607  0.9662
 8245TIP3    H246227   5.727   3.703  11.774  0.2910 -0.5937 -1.0155
 8246TIP3   OH246228   5.756   5.988   3.801 -1.0321  0.6776 -0.0739
 8246TIP3    H146229   5.810   5.922   3.757 -1.3577  0.9310 -0.8665
 8246TIP3    H246230   5.727   5.945   3.881 -1.1527 -0.1220 -0.5296
 8247TIP3   OH246231   4.984   3.034   2.646  0.0975  0.2286 -0.3273
 8247TIP3    H146232   5.021   2.947   2.659  1.7596  0.8468 -0.6760
 8247TIP3    H246233   4.891   3.019   2.629  0.0998 -1.3682  0.9141
 8248TIP3   OH246234   5.756   0.092  13.728  0.9691  0.4559 -0.4317
 8248TIP3    H146235   5.824   0.046  13.777  2.1063  0.2516 -2.0784
 8248TIP3    H246236   5.796   0.176  13.707 -0.1860  1.2687  0.5042
 8249TIP3   OH246237   0.760   1.431   5.260  0.5556  0.7858  0.4080
 8249TIP3    H146238   0.673   1.401   5.236  0.6527  0.3221  0.6375
 8249TIP3    H246239   0.745   1.513   5.307  0.3337  1.5266 -0.8741
 8250TIP3   OH246240   1.025   1.533  14.615  0.3086  0.1354 -0.1577
 8250TIP3    H146241   1.032   1.457  14.673 -2.0558 -0.2458 -0.2636
 8250TIP3    H246242   0.942   1.520  14.569 -0.2015  2.8157 -0.1310
 8251TIP3   OH246243   1.464   5.347  12.553  0.1793 -0.0098 -0.5670
 8251TIP3    H146244   1.478   5.255  12.574 -3.0168 -0.3375  0.6964
 8251TIP3    H246245   1.403   5.346  12.480 -1.2526  1.0130  0.5510
 8252TIP3   OH246246   3.581   0.744  15.349 -0.2983  0.4785 -0.3930
 8252TIP3    H146247   3.561   0.652  15.333 -0.9506  0.9681 -2.6203
 8252TIP3    H246248   3.642   0.742  15.423 -0.7817 -1.6856  0.0075
 8253TIP3   OH246249   2.175   1.696  15.746 -0.2153 -0.4616  0.8549
 8253TIP3    H146250   2.250   1.724  15.693 -0.0875 -0.7895  0.8630
 8253TIP3    H246251   2.212   1.683  15.834 -0.3093 -0.4847  0.8910
 8254TIP3   OH246252   4.786   5.525   3.892  0.7068  0.2941 -0.0787
 8254TIP3    H146253   4.740   5.608   3.876  1.0962  0.9005  1.7431
 8254TIP3    H246254   4.770   5.506   3.984  0.9022 -1.5261 -0.3817
 8255TIP3   OH246255   1.306   0.217  13.309  0.5057  0.3546 -0.3031
 8255TIP3    H146256   1.285   0.183  13.396 -0.3631  1.0852 -0.2091
 8255TIP3    H246257   1.314   0.140  13.254 -0.1862 -0.0642  0.1678
 8256TIP3   OH246258   2.821   5.836  10.302  0.1531  0.4449  0.0860
 8256TIP3    H146259   2.742   5.885  10.324 -1.0293 -0.3056 -2.1995
 8256TIP3    H246260   2.795   5.744  10.308  1.4724  0.1065  1.2774
 8257TIP3   OH246261   4.720   6.570  16.119  0.1363  0.0893  0.4744
 8257TIP3    H146262   4.799   6.583  16.171  0.0535  1.4043  0.2915
 8257TIP3    H246263   4.649   6.577  16.182  0.0570  1.2702  0.2682
 8258TIP3   OH246264   1.418   0.159   5.166 -0.2577 -0.1091 -0.6869
 8258TIP3    H146265   1.508   0.170   5.196 -0.9613  0.0056  1.5398
 8258TIP3    H246266   1.394   0.244   5.129  0.0271  0.3542  0.1777
 8259TIP3   OH246267   0.091   1.247   2.850 -0.5687 -0.2188  0.2043
 8259TIP3    H146268   0.083   1.166   2.900 -1.9876 -0.5975 -0.5704
 8259TIP3    H246269   0.157   1.227   2.784  1.0823  0.1850  1.6663
 8260TIP3   OH246270   3.351   6.224  16.780 -0.0147 -0.2071 -0.3329
 8260TIP3    H146271   3.342   6.300  16.838  1.5107 -0.1052 -0.1697
 8260TIP3    H246272   3.269   6.220  16.732  0.2326  2.2200 -1.1149
 8261TIP3   OH246273   1.513   0.349  11.576 -0.4961  0.2379 -0.0125
 8261TIP3    H146274   1.546   0.433  11.546 -1.0936  0.5301  0.1216
 8261TIP3    H246275   1.418   0.357  11.570 -0.5663 -0.3516  0.2073
 8262TIP3   OH246276   5.076   1.687  14.229  0.2586 -0.4035 -0.3853
 8262TIP3    H146277   5.056   1.645  14.145  0.2961  0.6264 -0.9291
 8262TIP3    H246278   5.170   1.704  14.225  0.0695  0.7082 -0.6632
 8263TIP3   OH246279   6.266   2.693  17.136  0.3360 -0.3680 -0.0833
 8263TIP3    H146280   6.358   2.677  17.157  0.6550 -0.3249 -1.4107
 8263TIP3    H246281   6.241   2.622  17.078 -0.9872 -1.3533  1.5872
 8264TIP3   OH246282   6.519   6.632   4.906  0.5593 -0.3062 -0.4387
 8264TIP3    H146283   6.505   6.650   4.999 -0.3153 -1.2553 -0.3806
 8264TIP3    H246284   6.593   6.571   4.904  0.0039 -0.9955 -0.2996
 8265TIP3   OH246285   2.971   1.492  13.009  0.5471  0.5306  0.9354
 8265TIP3    H146286   3.023   1.447  13.076  1.7995 -0.8943 -0.9025
 8265TIP3    H246287   2.937   1.422  12.954 -0.6295  1.6604  0.1662
 8266TIP3   OH246288   0.653   1.740   1.757 -0.3773 -0.6429 -0.2659
 8266TIP3    H146289   0.709   1.663   1.757  0.5139 -0.1006  2.2826
 8266TIP3    H246290   0.699   1.804   1.702 -0.2777 -1.3447 -1.0130
 8267TIP3   OH246291   4.778   2.745   4.889 -0.6271  0.1744 -0.2465
 8267TIP3    H146292   4.720   2.741   4.813  1.6369  0.6387 -2.1410
 8267TIP3    H246293   4.763   2.663   4.935 -3.2751  0.6137 -0.2052
 8268TIP3   OH246294   5.597   2.091  11.497 -0.0034 -0.4423 -0.0478
 8268TIP3    H146295   5.586   2.120  11.587  0.7052 -2.9734  0.9529
 8268TIP3    H246296   5.666   2.025  11.501  0.1362 -0.5458 -2.4812
 8269TIP3   OH246297   3.409   1.515  13.163 -0.8892 -0.7277 -0.3253
 8269TIP3    H146298   3.346   1.444  13.175  0.6297 -1.9939  0.4984
 8269TIP3    H246299   3.445   1.530  13.250  1.0152 -1.0927 -0.9954
 8270TIP3   OH246300   2.479   2.417   3.673  0.1207  0.2583 -0.0850
 8270TIP3    H146301   2.545   2.454   3.732  0.2277  0.7754 -0.5119
 8270TIP3    H246302   2.424   2.362   3.728  0.8526 -0.1000  0.2984
 8271TIP3   OH246303   1.022   1.462  15.033  0.1729 -0.2851 -0.3200
 8271TIP3    H146304   1.113   1.485  15.014  0.9701 -1.0178  2.2408
 8271TIP3    H246305   0.994   1.526  15.097  0.7345 -3.0067  2.9347
 8272TIP3   OH246306   1.888   3.996  17.168  0.3264  0.2122  0.8861
 8272TIP3    H146307   1.967   4.027  17.125  1.2458 -2.3815  0.5146
 8272TIP3    H246308   1.816   4.030  17.115  1.2242  1.4589  0.4263
 8273TIP3   OH246309   1.817   2.307  14.491  0.3995 -0.3571  0.6137
 8273TIP3    H146310   1.843   2.317  14.582  0.5373 -0.7456  0.6177
 8273TIP3    H246311   1.895   2.274  14.446  1.0429  1.9505 -0.0967
 8274TIP3   OH246312   1.509   3.400   0.332 -0.2114  0.6047  0.0645
 8274TIP3    H146313   1.519   3.312   0.368  1.4790 -0.1923 -2.1202
 8274TIP3    H246314   1.535   3.459   0.403  1.8820 -0.8248  0.5552
 8275TIP3   OH246315   6.744   0.103  11.752  0.4059 -0.2172  0.1372
 8275TIP3    H146316   6.815   0.055  11.708 -0.8804 -0.9188 -1.2557
 8275TIP3    H246317   6.761   0.091  11.845  1.5037 -1.3007 -0.1788
 8276TIP3   OH246318   1.346   1.356   1.088 -0.4168 -0.4374  0.1441
 8276TIP3    H146319   1.435   1.387   1.107 -0.5394  0.5556 -0.8020
 8276TIP3    H246320   1.359   1.286   1.023 -0.4051  1.0056 -1.4699
 8277TIP3   OH246321   0.868   1.421  14.390 -0.5765  0.7748  0.1318
 8277TIP3    H146322   0.894   1.331  14.368 -2.9875 -0.4217  1.7628
 8277TIP3    H246323   0.923   1.476  14.334  2.0999 -1.6173  0.1462
 8278TIP3   OH246324   6.130   5.781  13.414 -0.2832  0.2939 -0.0111
 8278TIP3    H146325   6.088   5.867  13.421 -0.0877  0.3370  0.7291
 8278TIP3    H246326   6.224   5.799  13.421 -0.0787  0.2388 -2.0632
 8279TIP3   OH246327   6.732   0.815   3.131 -0.3641  0.1781  0.1565
 8279TIP3    H146328   6.651   0.828   3.180 -0.3858  1.0706 -0.0938
 8279TIP3    H246329   6.780   0.750   3.181 -0.5546  0.7896  1.1673
 8280TIP3   OH246330   6.476   3.698  16.204  0.1541 -0.5436 -0.4447
 8280TIP3    H146331   6.504   3.722  16.292 -2.5828 -2.2348  1.0365
 8280TIP3    H246332   6.534   3.626  16.179  0.5023 -0.5373  0.3119
 8281TIP3   OH246333   5.919   4.895   3.634 -0.0129 -0.0067  0.3307
 8281TIP3    H146334   5.999   4.859   3.596 -1.2842 -1.9379 -0.7017
 8281TIP3    H246335   5.897   4.836   3.705 -0.4164  0.6460  0.7646
 8282TIP3   OH246336   5.136   3.520   3.905  0.3902 -0.1494 -0.1327
 8282TIP3    H146337   5.093   3.435   3.893  2.1857 -1.0022 -0.7934
 8282TIP3    H246338   5.112   3.570   3.827 -0.3774 -0.1708  0.0836
 8283TIP3   OH246339   0.780   5.276  11.879  0.4375 -0.2213 -0.5448
 8283TIP3    H146340   0.854   5.247  11.932  1.3783  0.6610 -1.3314
 8283TIP3    H246341   0.809   5.359  11.840 -0.6683 -0.2521 -1.4952
 8284TIP3   OH246342   0.801   3.033  11.092 -0.4497 -0.2978  0.2072
 8284TIP3    H146343   0.749   3.008  11.168 -0.4712 -2.0201 -0.3228
 8284TIP3    H246344   0.892   3.015  11.117 -0.3023  0.6179  0.3607
 8285TIP3   OH246345   3.216   0.960  12.297 -0.3117 -0.3561 -0.1785
 8285TIP3    H146346   3.171   1.039  12.325 -2.9891 -1.8163  0.0034
 8285TIP3    H246347   3.193   0.951  12.204 -1.7870 -1.8749  0.2584
 8286TIP3   OH246348   4.986   6.777  11.704  0.4759 -0.7093 -0.8056
 8286TIP3    H146349   4.939   6.743  11.627 -0.4600 -1.5341  0.0945
 8286TIP3    H246350   4.934   6.746  11.779  0.2115  1.7528  0.1235
 8287TIP3   OH246351   6.608   4.351  16.741  0.5103  0.3267 -0.1480
 8287TIP3    H146352   6.595   4.367  16.834  0.0038 -0.2747 -0.1019
 8287TIP3    H246353   6.528   4.384  16.700  0.1769 -0.5236 -0.2220
 8288TIP3   OH246354   6.817   3.122  13.916  0.1815  0.6431  0.4144
 8288TIP3    H146355   6.788   3.122  13.824 -2.1284  2.1711  1.0540
 8288TIP3    H246356   6.742   3.156  13.964  0.7775 -1.5425  3.1045
 8289TIP3   OH246357   1.381   2.313  10.758 -0.1432 -0.3286 -0.0124
 8289TIP3    H146358   1.408   2.233  10.711  0.1476  0.2990 -0.9384
 8289TIP3    H246359   1.350   2.372  10.690 -0.5342  0.2926  0.6885
 8290TIP3   OH246360   5.923   4.102   2.428  0.1195 -0.4991  0.4487
 8290TIP3    H146361   5.856   4.047   2.388 -0.1458  0.6868 -0.7891
 8290TIP3    H246362   5.964   4.149   2.355  0.4358  0.8275  1.4267
 8291TIP3   OH246363   2.855   4.839  14.745 -0.6556  0.4243  0.4816
 8291TIP3    H146364   2.857   4.930  14.772  3.8563  0.2853  1.3301
 8291TIP3    H246365   2.850   4.789  14.827 -0.9540 -0.0977  0.1556
 8292TIP3   OH246366   2.957   6.587   4.434  0.1717 -0.9457  0.2717
 8292TIP3    H146367   3.010   6.511   4.458 -0.7155 -1.5251  0.4306
 8292TIP3    H246368   2.989   6.657   4.490  1.3227 -1.0640 -0.2041
 8293TIP3   OH246369   3.256   5.824   0.690  0.0902  0.1790  0.4861
 8293TIP3    H146370   3.342   5.866   0.682  1.3308 -2.1748  0.7763
 8293TIP3    H246371   3.261   5.774   0.771 -1.8029  0.4519  0.8191
 8294TIP3   OH246372   6.501   2.843  11.417  0.3316  0.2738  1.0612
 8294TIP3    H146373   6.451   2.793  11.352  1.7297  0.3780 -0.1602
 8294TIP3    H246374   6.540   2.915  11.367  1.5547  0.2877  1.9742
 8295TIP3   OH246375   1.513   0.831  13.138 -0.4586  0.0373  0.3372
 8295TIP3    H146376   1.456   0.903  13.163 -0.7489  0.2175 -0.7833
 8295TIP3    H246377   1.578   0.871  13.080  1.2548 -0.0287  2.0963
 8296TIP3   OH246378   2.090   3.359   3.521  0.1234  0.1574  0.3970
 8296TIP3    H146379   2.135   3.333   3.441  0.1654  0.9670  0.1561
 8296TIP3    H246380   2.072   3.452   3.510  0.2832  0.3161  1.4089
 8297TIP3   OH246381   2.861   2.159  14.411  0.3956 -0.0178  0.5782
 8297TIP3    H146382   2.840   2.069  14.437  0.1312  0.4613  2.1083
 8297TIP3    H246383   2.928   2.149  14.343 -0.2875 -1.3905  0.0715
 8298TIP3   OH246384   5.102   3.060  12.297  0.2111 -0.3360  0.0635
 8298TIP3    H146385   5.018   3.079  12.338  0.4551 -0.8997  0.8561
 8298TIP3    H246386   5.146   3.144  12.290 -0.4947 -0.0034 -0.5532
 8299TIP3   OH246387   4.354   1.530  14.773 -0.6665 -0.0713  0.3440
 8299TIP3    H146388   4.421   1.594  14.797 -1.2390  0.2383  1.1315
 8299TIP3    H246389   4.274   1.582  14.761 -0.5551 -0.2680 -1.7324
 8300TIP3   OH246390   6.341   5.941  16.117  0.3248  0.5956 -0.3238
 8300TIP3    H146391   6.414   5.887  16.087 -0.5541  0.0495 -1.5508
 8300TIP3    H246392   6.271   5.879  16.138 -0.5560  1.2119 -1.3387
 8301TIP3   OH246393   2.665   0.526  13.899  0.1720 -0.7423  0.4115
 8301TIP3    H146394   2.621   0.502  13.980  0.2006 -1.8939  0.1119
 8301TIP3    H246395   2.597   0.523  13.832 -0.0630  1.1584  0.5175
 8302TIP3   OH246396   3.823   5.521  15.930  0.5007  0.2247  0.2191
 8302TIP3    H146397   3.743   5.479  15.900  0.8013 -0.3329  0.1834
 8302TIP3    H246398   3.869   5.453  15.979  1.9848 -0.1759 -1.6042
 8303TIP3   OH246399   0.454   3.457   2.120 -0.4118 -0.0637  0.3378
 8303TIP3    H146400   0.418   3.377   2.081 -0.8139  0.4546 -0.3772
 8303TIP3    H246401   0.461   3.518   2.047 -2.4016  1.3713  1.2313
 8304TIP3   OH246402   0.950   6.103  13.912  0.1367 -0.0791  0.0428
 8304TIP3    H146403   0.879   6.137  13.966  0.3951  0.6780 -0.0922
 8304TIP3    H246404   1.010   6.061  13.975 -0.4647 -0.8163  0.1472
 8305TIP3   OH246405   2.061   3.156  12.185  0.4618 -0.8778 -0.4399
 8305TIP3    H146406   2.036   3.168  12.276 -0.6520  0.3087 -0.8680
 8305TIP3    H246407   2.130   3.089  12.187  0.5995 -0.7235  1.2716
 8306TIP3   OH246408   2.078   5.815   4.391 -0.3453 -0.0799 -0.6252
 8306TIP3    H146409   2.023   5.885   4.356  0.2951  1.7713  1.7246
 8306TIP3    H246410   2.167   5.839   4.364 -0.0510  0.4104  0.6975
 8307TIP3   OH246411   6.019   0.866   0.274 -0.3490 -0.2966 -0.1250
 8307TIP3    H146412   6.043   0.786   0.322  0.8099 -1.4474 -2.4571
 8307TIP3    H246413   6.102   0.905   0.248 -0.9236  0.2408 -1.2404
 8308TIP3   OH246414   0.746   1.244   5.901 -0.2493 -0.5564  0.2959
 8308TIP3    H146415   0.656   1.245   5.932  0.5758  0.8438  2.9894
 8308TIP3    H246416   0.776   1.154   5.916 -0.5715 -0.4762  1.5813
 8309TIP3   OH246417   3.421   2.212  16.307 -0.0151 -0.1611 -0.1942
 8309TIP3    H146418   3.451   2.272  16.375 -0.1153  0.1508 -0.4246
 8309TIP3    H246419   3.348   2.165  16.347  0.6327 -0.7845  0.2984
 8310TIP3   OH246420   3.571   0.755  14.874 -0.3329 -0.3339 -0.3535
 8310TIP3    H146421   3.522   0.827  14.835 -1.2954 -0.6341  0.2525
 8310TIP3    H246422   3.548   0.678  14.822  0.4977 -0.2601 -0.8461
 8311TIP3   OH246423   0.181   6.723   2.934 -0.3933  0.0500  0.0748
 8311TIP3    H146424   0.208   6.785   2.865 -0.7078  1.2989  1.0466
 8311TIP3    H246425   0.098   6.688   2.903  0.2676 -0.6751 -0.9598
 8312TIP3   OH246426   3.588   2.906  14.521  0.7560  0.1573  0.4410
 8312TIP3    H146427   3.546   2.845  14.461  0.4616 -0.8931  1.6887
 8312TIP3    H246428   3.516   2.951  14.564  0.9453  0.0788  0.8407
 8313TIP3   OH246429   4.054   4.880  14.842  0.5337  0.1787  0.3086
 8313TIP3    H146430   4.062   4.968  14.879 -2.8487  0.3345  0.9539
 8313TIP3    H246431   4.041   4.895  14.749  0.3832  0.3296  0.3523
 8314TIP3   OH246432   4.497   4.161  14.279 -0.5601 -0.3109 -0.0075
 8314TIP3    H146433   4.428   4.096  14.294 -1.8514  0.7261 -1.2147
 8314TIP3    H246434   4.452   4.245  14.284  0.6410  0.3958 -0.7200
 8315TIP3   OH246435   5.884   2.391   2.465 -0.0636  0.1184  0.1186
 8315TIP3    H146436   5.821   2.349   2.406  1.0729 -0.0707 -1.0105
 8315TIP3    H246437   5.967   2.387   2.417  0.4794  1.8624  0.8409
 8316TIP3   OH246438   1.027   1.256   3.214  0.0881  0.2488 -0.5063
 8316TIP3    H146439   1.072   1.192   3.270 -2.4264 -0.7965  0.4847
 8316TIP3    H246440   1.072   1.339   3.232  0.5930 -0.4218  1.6311
 8317TIP3   OH246441   2.905   0.793  12.553 -0.0728 -0.0347 -0.1954
 8317TIP3    H146442   2.995   0.811  12.581 -0.2596  1.7201 -0.5673
 8317TIP3    H246443   2.873   0.878  12.522 -1.5810 -0.8129 -0.8603
 8318TIP3   OH246444   1.440   2.781  17.071  0.4963 -0.5278 -0.2464
 8318TIP3    H146445   1.355   2.797  17.113 -0.2502 -0.7386 -1.6097
 8318TIP3    H246446   1.432   2.693  17.034 -0.1047  0.7251 -3.4679
 8319TIP3   OH246447   1.284   5.025   4.772 -0.0444  0.0040 -0.4659
 8319TIP3    H146448   1.314   5.116   4.762  0.7139  0.0897  1.9543
 8319TIP3    H246449   1.209   5.031   4.831  0.2252 -0.9709 -0.0122
 8320TIP3   OH246450   0.401   6.193  10.949 -0.2098  0.2635  0.2299
 8320TIP3    H146451   0.469   6.223  10.890  1.0752  0.1017  1.5629
 8320TIP3    H246452   0.392   6.100  10.931  0.4212  0.1437  0.4961
 8321TIP3   OH246453   6.359   5.532  13.317  0.7023  0.3206 -0.5355
 8321TIP3    H146454   6.359   5.441  13.347 -0.1515  0.0096 -1.4195
 8321TIP3    H246455   6.449   5.561  13.330  1.1421 -0.8462 -0.8318
 8322TIP3   OH246456   3.775   4.184  15.476 -1.0208 -0.1509 -0.5532
 8322TIP3    H146457   3.833   4.227  15.413 -0.8967  0.6973  0.1340
 8322TIP3    H246458   3.825   4.179  15.557 -1.8694  0.5260  0.0331
 8323TIP3   OH246459   1.834   5.573   4.423 -0.0182 -0.0621  0.4346
 8323TIP3    H146460   1.894   5.499   4.435  1.4390  0.9527 -0.2621
 8323TIP3    H246461   1.874   5.644   4.472 -1.6896  0.1571  1.5465
 8324TIP3   OH246462   4.266   5.246  12.226  0.5748 -0.4442  0.0132
 8324TIP3    H146463   4.314   5.321  12.191  0.2522 -0.0472  0.4082
 8324TIP3    H246464   4.184   5.284  12.259 -0.2770 -1.1899 -1.1963
 8325TIP3   OH246465   2.972   4.219   5.907 -0.4752 -0.1260 -0.2332
 8325TIP3    H146466   3.035   4.290   5.897  0.3932 -0.6183  1.3195
 8325TIP3    H246467   2.999   4.154   5.841  1.0406 -0.5695  0.7662
 8326TIP3   OH246468   1.854   0.005  15.661  0.0327 -0.1262  0.7972
 8326TIP3    H146469   1.924  -0.051  15.694  1.3733  1.6016  0.9918
 8326TIP3    H246470   1.798   0.022  15.737 -0.9509 -1.8874  0.5432
 8327TIP3   OH246471   0.917   4.216   6.022 -0.1663 -0.3131  0.0078
 8327TIP3    H146472   0.897   4.309   6.036  1.6438  0.1832 -0.3797
 8327TIP3    H246473   1.006   4.205   6.056  0.1671 -1.5877 -1.1704
 8328TIP3   OH246474   2.385   2.634   1.387 -0.3791  0.2457  0.2451
 8328TIP3    H146475   2.453   2.699   1.372  1.8877 -1.4502  2.4237
 8328TIP3    H246476   2.320   2.679   1.442 -1.8512  2.2748 -2.9092
 8329TIP3   OH246477   5.611   6.417   3.136 -0.0232  0.0973  0.0357
 8329TIP3    H146478   5.690   6.461   3.104 -1.7157  3.0736 -0.4242
 8329TIP3    H246479   5.550   6.420   3.062 -0.0607 -3.8387 -0.2700
 8330TIP3   OH246480   2.603   1.194   1.438 -0.9914  1.1954  0.6240
 8330TIP3    H146481   2.681   1.214   1.386 -0.8249 -1.0739 -0.0900
 8330TIP3    H246482   2.539   1.162   1.374 -1.1666 -0.5939  1.6444
 8331TIP3   OH246483   3.551   1.192  16.833 -0.0354 -0.0167 -0.4164
 8331TIP3    H146484   3.600   1.272  16.851  0.0447  0.0965 -1.0782
 8331TIP3    H246485   3.461   1.222  16.817 -0.0577 -0.0833 -0.4161
 8332TIP3   OH246486   4.145   3.420   2.139  0.8169  0.4383  0.5404
 8332TIP3    H146487   4.214   3.451   2.081 -0.5264  0.5385 -1.0894
 8332TIP3    H246488   4.121   3.334   2.106  0.7235  0.0347  1.6088
 8333TIP3   OH246489   2.692   5.707   1.872 -0.6613  0.3140 -0.2110
 8333TIP3    H146490   2.666   5.689   1.962 -1.2593 -1.9294 -0.7622
 8333TIP3    H246491   2.781   5.741   1.879 -0.6660  0.0873  1.2313
 8334TIP3   OH246492   3.368   3.574  13.804 -0.1942  0.7966 -0.0508
 8334TIP3    H146493   3.331   3.537  13.883  0.6146 -0.7868 -0.3766
 8334TIP3    H246494   3.462   3.556  13.810 -0.2726 -0.5315 -1.9474
 8335TIP3   OH246495   4.456   5.751  10.897 -0.3992 -0.4535 -0.3820
 8335TIP3    H146496   4.482   5.827  10.845  0.8262 -0.8572 -0.3842
 8335TIP3    H246497   4.477   5.676  10.841 -2.0278 -0.8080 -0.5751
 8336TIP3   OH246498   5.071   3.672  11.605 -0.1984  0.1130  0.0915
 8336TIP3    H146499   4.998   3.631  11.650 -0.1759  0.1923  0.2017
 8336TIP3    H246500   5.055   3.766  11.614  0.6305  0.1611  1.3219
 8337TIP3   OH246501   6.640   5.154  15.554 -0.1943 -0.9364  0.1990
 8337TIP3    H146502   6.578   5.186  15.489 -0.6689 -1.1167  0.5533
 8337TIP3    H246503   6.722   5.197  15.532 -0.6898  0.1300  0.3565
 8338TIP3   OH246504   3.091   3.885   3.983  0.4782 -0.1042 -0.1756
 8338TIP3    H146505   3.119   3.919   4.068  1.0503  0.9162 -0.7565
 8338TIP3    H246506   3.168   3.837   3.951  0.4657  0.0193 -0.3870
 8339TIP3   OH246507   6.395   2.272   4.612 -0.4995 -0.1130  0.0663
 8339TIP3    H146508   6.347   2.355   4.613 -0.0850  0.1390  1.6813
 8339TIP3    H246509   6.445   2.274   4.531 -2.1216  0.2400 -0.9836
 8340TIP3   OH246510   5.165   4.683  14.365  0.2061 -0.0582  0.4428
 8340TIP3    H146511   5.181   4.684  14.271  0.2262 -0.6820  0.4384
 8340TIP3    H246512   5.139   4.593  14.385 -2.2283  0.6118  0.6389
 8341TIP3   OH246513   4.687   4.584   4.199  0.3943 -0.1300  1.0851
 8341TIP3    H146514   4.634   4.510   4.168 -0.2242  0.7113  0.0993
 8341TIP3    H246515   4.654   4.602   4.287 -1.1374  0.5229  0.4069
 8342TIP3   OH246516   0.001   6.614  14.588  0.1271  0.0429 -0.2648
 8342TIP3    H146517  -0.008   6.522  14.565 -2.1056  0.3967 -1.0116
 8342TIP3    H246518   0.016   6.614  14.683 -0.7450 -1.0708 -0.1132
 8343TIP3   OH246519   6.487   1.798   2.539  0.2706  0.9593  0.2070
 8343TIP3    H146520   6.439   1.773   2.618  0.1884 -2.5227 -0.7711
 8343TIP3    H246521   6.579   1.794   2.564  0.2312  0.2921  0.2678
 8344TIP3   OH246522   2.704   5.739   4.010 -0.4858  0.3392  0.0979
 8344TIP3    H146523   2.622   5.690   4.001  0.1531 -0.7426 -0.1170
 8344TIP3    H246524   2.680   5.818   4.058 -1.6016 -0.0741  0.2602
 8345TIP3   OH246525   3.657   4.886   0.951  0.6041 -0.5189 -0.0613
 8345TIP3    H146526   3.612   4.814   0.994  0.7578 -0.6369 -0.0963
 8345TIP3    H246527   3.736   4.901   1.004  0.6622 -0.4946 -0.1531
 8346TIP3   OH246528   5.929   5.287  12.976 -0.0871 -0.2342 -0.3355
 8346TIP3    H146529   5.854   5.227  12.968  0.8657 -1.7233  1.2141
 8346TIP3    H246530   5.989   5.259  12.908  0.7099 -1.6736  0.8910
 8347TIP3   OH246531   2.536   3.161  16.398 -0.7059  0.2023 -0.5158
 8347TIP3    H146532   2.589   3.093  16.439 -0.4709  2.2087  2.8852
 8347TIP3    H246533   2.446   3.136  16.415 -0.6211  0.6338  0.6578
 8348TIP3   OH246534   2.571   1.370  11.864  0.3057  0.2625  0.2103
 8348TIP3    H146535   2.569   1.443  11.927  1.5002  0.5186 -0.0101
 8348TIP3    H246536   2.578   1.412  11.779  0.6909 -0.0957  0.0590
 8349TIP3   OH246537   0.479   1.237   5.879 -0.3952 -0.1365 -0.1119
 8349TIP3    H146538   0.411   1.304   5.887  0.3167  1.0141 -2.6232
 8349TIP3    H246539   0.472   1.206   5.789  1.9461 -0.4751 -0.2463
 8350TIP3   OH246540   5.302   5.064  16.061  0.1864 -0.1440  0.1036
 8350TIP3    H146541   5.246   4.986  16.061  0.3840 -0.2896  0.0087
 8350TIP3    H246542   5.294   5.100  16.149 -0.2262 -0.0358  0.0252
 8351TIP3   OH246543   1.998   3.407  12.061  0.5324 -0.0260 -0.9213
 8351TIP3    H146544   2.044   3.324  12.072 -2.4628 -1.6424  0.8199
 8351TIP3    H246545   2.019   3.457  12.140  1.1405  0.2329 -1.2467
 8352TIP3   OH246546   1.554   6.189   3.749 -0.1794 -0.3628 -0.6068
 8352TIP3    H146547   1.525   6.099   3.761 -0.2937 -0.0593  2.0657
 8352TIP3    H246548   1.475   6.237   3.724 -0.7462 -0.5652  0.7172
 8353TIP3   OH246549   1.562   2.512  12.505 -0.3326  0.0816 -0.1464
 8353TIP3    H146550   1.528   2.446  12.566  1.7854 -1.7858 -0.8258
 8353TIP3    H246551   1.656   2.513  12.522  0.1305  0.5167 -2.4224
 8354TIP3   OH246552   3.511   0.374  12.524  0.5710 -0.3959 -0.0493
 8354TIP3    H146553   3.478   0.433  12.457 -0.5188 -0.3335  0.5227
 8354TIP3    H246554   3.480   0.287  12.498 -2.0169 -0.0854  1.5847
 8355TIP3   OH246555   0.012   0.504  12.063  0.1872 -0.2127  0.1616
 8355TIP3    H146556   0.068   0.438  12.103 -0.9887 -0.8782  0.7485
 8355TIP3    H246557  -0.078   0.475  12.081 -0.3664  0.8138 -0.7657
 8356TIP3   OH246558   0.818   5.870   5.755 -0.1913  0.0879  0.3649
 8356TIP3    H146559   0.861   5.792   5.719  0.3053  0.6404 -0.2794
 8356TIP3    H246560   0.890   5.921   5.793 -0.4447  0.4494  0.3601
 8357TIP3   OH246561   5.236   3.659  13.739 -0.1012  0.0316 -0.2050
 8357TIP3    H146562   5.141   3.668  13.739 -0.1005  0.0376 -0.6013
 8357TIP3    H246563   5.268   3.747  13.721 -0.0120  0.0803  0.1748
 8358TIP3   OH246564   2.977   6.315  16.945 -0.2152  0.8808 -0.0369
 8358TIP3    H146565   2.993   6.336  16.853 -1.5395  0.8199 -0.2972
 8358TIP3    H246566   2.914   6.243  16.942  1.3454 -0.5690  0.8964
 8359TIP3   OH246567   1.799   5.154   3.211  0.5519 -0.1123  0.2554
 8359TIP3    H146568   1.723   5.212   3.215  0.2746 -0.5381  1.5905
 8359TIP3    H246569   1.873   5.209   3.236  0.3784 -0.1844  0.9315
 8360TIP3   OH246570   6.732   3.548   2.820  0.5565 -0.1451  0.5153
 8360TIP3    H146571   6.747   3.480   2.886  0.7828  1.0561  1.7319
 8360TIP3    H246572   6.639   3.569   2.828 -0.1541 -2.0068 -1.5931
 8361TIP3   OH246573   1.101   2.772  14.967  0.4182  0.5765  0.0654
 8361TIP3    H146574   1.022   2.758  15.019  0.3643  0.2026 -0.1159
 8361TIP3    H246575   1.150   2.690  14.975 -0.5028 -0.2464 -2.0428
 8362TIP3   OH246576   5.138   4.854  16.149  0.1599  0.0946  0.0241
 8362TIP3    H146577   5.090   4.936  16.158  0.7128  0.4300 -0.0734
 8362TIP3    H246578   5.125   4.809  16.233 -0.9541 -0.1652 -0.2696
 8363TIP3   OH246579   2.162   6.211  13.920 -0.1304 -0.8038  0.1877
 8363TIP3    H146580   2.108   6.155  13.865  0.2983 -0.5902 -0.4647
 8363TIP3    H246581   2.173   6.162  14.001  0.7457 -1.9531 -0.5889
 8364TIP3   OH246582   4.113   6.672  11.523  0.9490 -0.2002 -0.0842
 8364TIP3    H146583   4.140   6.724  11.598  1.2676 -1.5179  0.7349
 8364TIP3    H246584   4.029   6.711  11.496 -0.2506 -0.9943  2.2602
 8365TIP3   OH246585   5.639   0.114   3.204 -1.0492  0.4340  0.0423
 8365TIP3    H146586   5.630   0.199   3.246 -1.6886  0.4092 -0.0363
 8365TIP3    H246587   5.725   0.083   3.232 -0.1944  1.7135 -1.0384
 8366TIP3   OH246588   5.261   4.526  14.123 -0.2401  0.1672  0.0450
 8366TIP3    H146589   5.213   4.563  14.050  0.2351  1.6896  0.4749
 8366TIP3    H246590   5.309   4.452  14.086 -1.2645 -0.0890 -0.8149
 8367TIP3   OH246591   2.650   2.420   1.977  0.0741  0.3847 -0.5477
 8367TIP3    H146592   2.712   2.407   2.049 -0.1173  1.4606 -0.1592
 8367TIP3    H246593   2.602   2.500   2.001 -1.9211 -0.7554 -0.5223
 8368TIP3   OH246594   3.775   3.329  16.412  0.5624 -0.1058  0.1067
 8368TIP3    H146595   3.760   3.241  16.447 -0.6799 -0.1428 -0.4496
 8368TIP3    H246596   3.688   3.358  16.385  0.9738  1.2661  0.2052
 8369TIP3   OH246597   4.211   4.759   1.396 -0.0555 -0.1021 -0.1512
 8369TIP3    H146598   4.218   4.843   1.350  0.9900  0.8624  1.6500
 8369TIP3    H246599   4.170   4.781   1.480  0.8058 -1.2572  0.6022
 8370TIP3   OH246600   3.045   0.819  16.684 -0.0621  0.5528  0.3057
 8370TIP3    H146601   3.063   0.912  16.678  0.1423  0.4793 -0.3301
 8370TIP3    H246602   2.997   0.808  16.766  0.0568  1.1913  0.4578
 8371TIP3   OH246603   0.101   2.251  14.464 -0.6808  0.1654 -0.3005
 8371TIP3    H146604   0.121   2.263  14.371  0.6516 -0.9878 -0.1974
 8371TIP3    H246605   0.179   2.209  14.500 -0.8972  1.2202  1.4967
 8372TIP3   OH246606   5.098   1.478  13.662 -0.2197 -0.1110  0.1510
 8372TIP3    H146607   5.011   1.446  13.635  0.0516 -1.5042  0.8489
 8372TIP3    H246608   5.147   1.484  13.580 -1.1625  1.3634 -0.3394
 8373TIP3   OH246609   0.411   5.224  11.318 -0.1018 -0.4809  0.1351
 8373TIP3    H146610   0.439   5.151  11.263  1.1353 -0.1515  0.3044
 8373TIP3    H246611   0.436   5.303  11.268  1.3507 -0.1758  1.2666
 8374TIP3   OH246612   2.666   1.518   3.940  0.2654 -0.4472 -0.1212
 8374TIP3    H146613   2.606   1.444   3.948  0.8424 -1.5763 -4.0058
 8374TIP3    H246614   2.611   1.589   3.907  0.2028  0.1299  1.1601
 8375TIP3   OH246615   3.328   5.841   2.630  0.1513 -0.0231  0.5394
 8375TIP3    H146616   3.263   5.909   2.609 -0.7002 -0.7088  0.8741
 8375TIP3    H246617   3.369   5.821   2.546  1.2979  1.7570  0.6244
 8376TIP3   OH246618   6.786   2.369   0.538 -0.0745  0.3611 -0.1681
 8376TIP3    H146619   6.757   2.283   0.570 -2.4522  1.5247  1.0942
 8376TIP3    H246620   6.745   2.378   0.453 -0.2357  0.4456 -0.0814
 8377TIP3   OH246621   0.351   2.071   4.760  0.0640 -0.5063 -0.1477
 8377TIP3    H146622   0.350   1.984   4.800 -0.6017 -0.6732 -0.5222
 8377TIP3    H246623   0.417   2.065   4.691  0.2928 -0.5980  0.0777
 8378TIP3   OH246624   1.155   6.501   1.969  0.1134  0.4127 -0.6227
 8378TIP3    H146625   1.094   6.439   2.009  1.6311 -0.9188 -0.2764
 8378TIP3    H246626   1.180   6.560   2.040  0.5735 -0.1459 -0.3127
 8379TIP3   OH246627   0.627   3.607   5.178  0.1025 -0.0161 -0.1912
 8379TIP3    H146628   0.600   3.524   5.138  0.4774 -1.0754  1.6748
 8379TIP3    H246629   0.715   3.589   5.213 -0.5638  0.5573  1.8917
 8380TIP3   OH246630   6.042   1.104  12.421  0.2015 -0.0041  0.2656
 8380TIP3    H146631   6.081   1.174  12.474 -1.9209  1.3082  0.1981
 8380TIP3    H246632   5.985   1.057  12.482 -2.1618  1.4361 -0.6559
 8381TIP3   OH246633   4.685   6.586  14.343 -0.2526  0.4203 -0.3001
 8381TIP3    H146634   4.711   6.656  14.284  0.2113  1.5298  1.1556
 8381TIP3    H246635   4.649   6.631  14.420  0.0164 -0.9257  0.6546
 8382TIP3   OH246636   2.120   5.614  14.137 -0.2859 -0.0527  0.1593
 8382TIP3    H146637   2.134   5.690  14.192 -0.5862  1.6226 -1.9187
 8382TIP3    H246638   2.025   5.613  14.121 -0.4181 -1.4435  0.9141
 8383TIP3   OH246639   3.717   6.773  12.954 -0.2157 -0.0260  0.2876
 8383TIP3    H146640   3.750   6.805  13.038  2.0242 -0.5219 -0.3507
 8383TIP3    H246641   3.624   6.755  12.970  0.1308 -0.0106  2.6114
 8384TIP3   OH246642   2.271   5.445   2.755  0.3765 -0.2265  0.0273
 8384TIP3    H146643   2.192   5.486   2.792  0.7509  0.3062  0.2415
 8384TIP3    H246644   2.294   5.377   2.818  0.2410 -0.2069  0.0990
 8385TIP3   OH246645   1.980   3.889   4.242 -0.2093 -0.2063  0.6334
 8385TIP3    H146646   1.895   3.870   4.282 -1.3945  0.5688 -1.3706
 8385TIP3    H246647   1.959   3.915   4.153  2.1896 -0.3101 -0.0265
 8386TIP3   OH246648   5.369   6.158   5.576  0.0428 -0.1944  0.3247
 8386TIP3    H146649   5.319   6.077   5.582  0.3285 -0.5042 -1.0562
 8386TIP3    H246650   5.460   6.129   5.569  0.2344  0.2865  0.7706
 8387TIP3   OH246651   5.702   1.784  11.994  0.2458  0.3877 -0.3229
 8387TIP3    H146652   5.736   1.780  12.084  0.7539 -1.8094 -0.5620
 8387TIP3    H246653   5.620   1.833  12.002  0.9809  1.4773  1.0837
 8388TIP3   OH246654   2.521   1.909  15.173  0.0428 -0.2087  0.0642
 8388TIP3    H146655   2.589   1.969  15.142  0.0634  0.8543  1.9941
 8388TIP3    H246656   2.567   1.848  15.231 -0.2438 -1.1613 -0.6777
 8389TIP3   OH246657   2.922   4.909   2.586 -0.3817 -0.2174 -0.2656
 8389TIP3    H146658   2.967   4.841   2.635  2.8938  0.4636 -1.9743
 8389TIP3    H246659   2.884   4.966   2.653 -0.9528 -2.2547  1.2386
 8390TIP3   OH246660   2.514   4.423   2.898 -0.1084 -0.1243  0.2239
 8390TIP3    H146661   2.579   4.372   2.849  0.5461 -0.1441  1.0936
 8390TIP3    H246662   2.462   4.466   2.831  0.7034 -0.2314 -0.4912
 8391TIP3   OH246663   5.041   2.390  11.180  0.0920  0.2005 -0.4797
 8391TIP3    H146664   4.995   2.429  11.106 -0.0939  0.5283 -0.1936
 8391TIP3    H246665   5.073   2.465  11.230 -2.8889  0.1406  1.7955
 8392TIP3   OH246666   0.578   2.970  14.915  0.1167  0.6127 -0.2692
 8392TIP3    H146667   0.494   2.972  14.869  0.2174  0.7587 -0.4467
 8392TIP3    H246668   0.554   2.961  15.007 -0.1553  2.2899 -0.1448
 8393TIP3   OH246669   6.089   4.756   6.671 -0.3092  0.1635  0.2097
 8393TIP3    H146670   6.090   4.771   6.577 -1.9613  0.5235  0.2185
 8393TIP3    H246671   6.155   4.688   6.685 -1.6259 -1.5972 -1.5304
 8394TIP3   OH246672   3.234   4.315   5.366  0.2070 -0.2513  0.2978
 8394TIP3    H146673   3.179   4.382   5.324  0.6572 -1.1721 -1.8603
 8394TIP3    H246674   3.297   4.365   5.417 -0.0913  0.9542 -0.4734
 8395TIP3   OH246675   1.229   5.103   2.284 -0.0095 -0.7695 -0.3077
 8395TIP3    H146676   1.162   5.146   2.232 -0.1900 -0.2536  0.3457
 8395TIP3    H246677   1.306   5.102   2.228  0.7629  2.6179  0.4715
 8396TIP3   OH246678   1.701   0.634  12.104 -0.1772 -0.2706 -0.1409
 8396TIP3    H146679   1.707   0.695  12.031 -0.9010 -0.1233 -0.0748
 8396TIP3    H246680   1.788   0.592  12.106 -0.4808 -1.0696 -1.7756
 8397TIP3   OH246681   2.055   2.484  16.866  0.5607 -1.0766 -0.7528
 8397TIP3    H146682   2.137   2.445  16.897  1.6448  0.2599 -1.8233
 8397TIP3    H246683   2.034   2.435  16.787  1.9347  0.4292 -2.1104
 8398TIP3   OH246684   6.397   4.321  12.638 -0.1367 -0.9530 -0.2801
 8398TIP3    H146685   6.322   4.298  12.583 -0.5743 -1.5612  0.5415
 8398TIP3    H246686   6.379   4.411  12.666 -0.4921 -1.0465 -0.1983
 8399TIP3   OH246687   6.341   2.453   5.405  0.3938  0.0179 -0.8074
 8399TIP3    H146688   6.372   2.372   5.363 -0.3787 -1.8879  1.9761
 8399TIP3    H246689   6.405   2.519   5.379  2.9384 -2.2157 -0.7139
 8400TIP3   OH246690   3.269   1.508  16.261  0.0853 -0.1602  0.1487
 8400TIP3    H146691   3.233   1.586  16.220 -0.9409 -1.3429 -1.3017
 8400TIP3    H246692   3.242   1.436  16.204  0.2327 -1.6877  1.9092
 8401TIP3   OH246693   6.782   6.545   5.037 -0.4817  0.0639  0.6738
 8401TIP3    H146694   6.709   6.516   5.092 -0.2745  0.7030  1.2972
 8401TIP3    H246695   6.825   6.464   5.010 -2.5601 -0.4604 -1.3463
 8402TIP3   OH246696   1.236   6.685  11.638 -0.5715 -0.1801  0.0465
 8402TIP3    H146697   1.324   6.677  11.601 -0.1878  0.4157  0.7927
 8402TIP3    H246698   1.236   6.627  11.713 -1.0244 -0.6413 -0.3039
 8403TIP3   OH246699   2.664   4.266  10.745  0.2636 -0.0023 -0.2699
 8403TIP3    H146700   2.575   4.252  10.777  0.0915  1.2315 -0.1607
 8403TIP3    H246701   2.665   4.225  10.658 -0.9881  1.5705 -1.0754
 8404TIP3   OH246702   5.529   3.114  16.348  0.7162  0.2295 -0.0941
 8404TIP3    H146703   5.443   3.080  16.371  0.8637  0.3184  0.6475
 8404TIP3    H246704   5.532   3.200  16.391  2.0815 -0.7815  2.0339
 8405TIP3   OH246705   3.329   5.065   1.095 -0.0123  0.1982 -0.1691
 8405TIP3    H146706   3.258   5.128   1.082 -0.2730  0.2314  1.2632
 8405TIP3    H246707   3.404   5.104   1.050 -1.0312 -0.1801 -2.3368
 8406TIP3   OH246708   5.038   5.191   5.260  0.5192 -0.0945  0.1745
 8406TIP3    H146709   5.093   5.232   5.194  1.1108  0.8107  1.1952
 8406TIP3    H246710   4.975   5.259   5.284  1.4524  0.2510  1.8180
 8407TIP3   OH246711   3.602   4.506   3.185 -0.3826  0.0660  0.3099
 8407TIP3    H146712   3.507   4.512   3.179 -0.2751  0.7792 -0.7059
 8407TIP3    H246713   3.631   4.480   3.098  0.3566 -0.2953  0.6471
 8408TIP3   OH246714   1.060   6.441   3.630  0.0357  0.2459 -0.0424
 8408TIP3    H146715   1.034   6.436   3.722  1.0434  3.0084  0.5000
 8408TIP3    H246716   0.987   6.400   3.583 -1.4741  0.5721  1.8578
 8409TIP3   OH246717   2.346   2.048  11.950  0.2044  0.4281 -0.1124
 8409TIP3    H146718   2.252   2.048  11.972  0.2562 -1.1681  0.2988
 8409TIP3    H246719   2.389   2.070  12.032  0.1796  2.6852 -0.6561
 8410TIP3   OH246720   4.169   1.731   1.948 -0.2046 -0.0288 -0.0761
 8410TIP3    H146721   4.210   1.678   2.017  0.4201 -0.2396 -0.6013
 8410TIP3    H246722   4.099   1.676   1.914 -2.3409  1.0862  2.1896
 8411TIP3   OH246723   1.908   5.453   3.513 -0.3301  0.3069 -0.3046
 8411TIP3    H146724   1.858   5.535   3.510 -1.2939 -0.2142  0.7941
 8411TIP3    H246725   1.939   5.441   3.423 -1.4936  1.0823 -0.8377
 8412TIP3   OH246726   2.897   2.877  13.816  0.2310 -0.3295 -0.0763
 8412TIP3    H146727   2.950   2.940  13.864  1.6625 -0.9633 -0.7783
 8412TIP3    H246728   2.938   2.793  13.833 -0.7449 -0.8804 -0.3846
 8413TIP3   OH246729   0.567   6.587  12.786 -0.2796  0.8943  0.3353
 8413TIP3    H146730   0.596   6.511  12.735 -1.6092  0.5680  0.0210
 8413TIP3    H246731   0.626   6.588  12.862  0.4207  0.1700 -0.1718
 8414TIP3   OH246732   4.426   5.197  14.696  0.2004 -0.3676 -0.1935
 8414TIP3    H146733   4.413   5.119  14.641  1.9922 -0.8230 -0.0385
 8414TIP3    H246734   4.509   5.233  14.667 -0.4472  1.3267 -0.0233
 8415TIP3   OH246735   2.832   1.286   1.348 -0.7372  0.3481 -0.4418
 8415TIP3    H146736   2.886   1.207   1.340 -1.3431  0.0324 -1.6583
 8415TIP3    H246737   2.873   1.350   1.291  0.6333  1.4859  1.6779
 8416TIP3   OH246738   4.539   6.786  13.274  0.4669 -0.4465  0.2647
 8416TIP3    H146739   4.532   6.734  13.194 -3.2526 -1.5266  1.1357
 8416TIP3    H246740   4.543   6.722  13.345 -1.3665  0.3904  1.1929
 8417TIP3   OH246741   0.531   1.174  16.208  0.0615 -0.1565 -0.6928
 8417TIP3    H146742   0.548   1.233  16.135  0.8619  0.3155 -0.1381
 8417TIP3    H246743   0.567   1.219  16.285 -1.4720 -0.2820  0.1333
 8418TIP3   OH246744   0.767   5.969   1.025  0.0419  0.3611  0.6774
 8418TIP3    H146745   0.772   5.982   1.120 -0.7129  1.2938  0.6072
 8418TIP3    H246746   0.855   5.944   0.999 -0.2461 -2.3280  1.9550
 8419TIP3   OH246747   0.752   1.743  15.599  0.4250  0.0257  0.1512
 8419TIP3    H146748   0.663   1.729  15.567 -0.1680  1.3120  1.1249
 8419TIP3    H246749   0.806   1.683  15.549 -1.0128 -0.8580 -0.3839
 8420TIP3   OH246750   1.722   1.189  13.900  0.4684  0.2576  0.1529
 8420TIP3    H146751   1.679   1.203  13.816  1.2374  1.6471 -0.0431
 8420TIP3    H246752   1.710   1.272  13.947 -0.1423 -0.5730  1.5027
 8421TIP3   OH246753   1.318   6.045   1.725  0.6600  0.1740 -0.1752
 8421TIP3    H146754   1.309   6.137   1.749 -0.6849  0.3081 -1.0856
 8421TIP3    H246755   1.408   6.023   1.749  0.2189  0.9666  2.5637
 8422TIP3   OH246756   6.304   3.433  16.825  0.0213  0.2545 -0.1830
 8422TIP3    H146757   6.310   3.439  16.729  0.3523 -0.7296 -0.2362
 8422TIP3    H246758   6.251   3.355  16.840 -0.0344  0.4125  0.4370
 8423TIP3   OH246759   3.574   2.312   0.476 -0.3000 -0.1947 -0.1538
 8423TIP3    H146760   3.535   2.371   0.541 -0.6295  1.3701 -1.7071
 8423TIP3    H246761   3.506   2.247   0.459 -1.1980  0.8652 -0.7552
 8424TIP3   OH246762   1.193   6.787   4.506  0.0549  0.2040  0.0182
 8424TIP3    H146763   1.206   6.696   4.530 -0.6677  0.2864  0.8067
 8424TIP3    H246764   1.100   6.793   4.484  0.3342  0.5207 -1.1122
 8425TIP3   OH246765   6.654   3.098   6.643 -0.6892 -0.0544  0.0783
 8425TIP3    H146766   6.713   3.148   6.587  0.0985 -2.0279 -0.9452
 8425TIP3    H246767   6.676   3.126   6.732  0.4714  0.6100 -0.3965
 8426TIP3   OH246768   4.194   0.265  14.034  0.0698  0.2063  0.0226
 8426TIP3    H146769   4.145   0.346  14.049 -1.7280 -1.0281  1.2543
 8426TIP3    H246770   4.275   0.277  14.083  0.7450  1.9770 -1.3980
 8427TIP3   OH246771   3.541   0.660  12.635 -0.1953 -0.6061 -0.4977
 8427TIP3    H146772   3.483   0.688  12.564 -2.9531 -0.5874  1.6028
 8427TIP3    H246773   3.505   0.575  12.663  1.1967 -0.8953  0.4848
 8428TIP3   OH246774   2.309   4.999  15.490  0.7201  0.0096  0.0057
 8428TIP3    H146775   2.244   4.982  15.423  0.5249  1.7873 -0.3130
 8428TIP3    H246776   2.307   5.094  15.503  1.8461 -0.1042  1.4172
 8429TIP3   OH246777   1.277   2.728   5.187  0.0401 -0.4703  0.2538
 8429TIP3    H146778   1.203   2.787   5.176  1.1727  1.0233  0.3890
 8429TIP3    H246779   1.280   2.678   5.105 -0.1264  0.6125 -0.4253
 8430TIP3   OH246780   2.205   6.619  16.492  0.1465  0.0675 -0.1053
 8430TIP3    H146781   2.137   6.612  16.560 -0.1387 -0.6565 -0.4611
 8430TIP3    H246782   2.263   6.688  16.524 -2.1746  2.6394 -1.0418
 8431TIP3   OH246783   1.296   4.470   1.895 -0.2992  0.2008  0.8458
 8431TIP3    H146784   1.214   4.437   1.933 -1.0674 -0.4865 -1.2541
 8431TIP3    H246785   1.281   4.565   1.886 -0.8167  0.1055  0.6282
 8432TIP3   OH246786   4.643   3.227  11.399 -0.2646 -0.1931 -0.6791
 8432TIP3    H146787   4.645   3.266  11.311  0.7408  1.2958 -0.0297
 8432TIP3    H246788   4.584   3.283  11.449 -1.8897 -1.7875 -0.6802
 8433TIP3   OH246789   2.856   4.951   3.030 -0.3439  0.2501  0.3902
 8433TIP3    H146790   2.853   5.044   3.053 -0.0159  0.6341 -1.0324
 8433TIP3    H246791   2.838   4.906   3.113 -0.5297  1.5676  1.1058
 8434TIP3   OH246792   2.791   1.940  11.768  0.2874 -0.3395  0.5033
 8434TIP3    H146793   2.873   1.892  11.781  0.6420  0.1114 -0.0605
 8434TIP3    H246794   2.762   1.962  11.857 -0.0932 -1.9259  0.8104
 8435TIP3   OH246795   3.540   3.567  15.177 -0.0362  0.3875  0.1391
 8435TIP3    H146796   3.554   3.502  15.246 -0.1590 -0.7281 -0.8543
 8435TIP3    H246797   3.627   3.604  15.161  0.2211 -0.2440  0.0369
 8436TIP3   OH246798   1.742   1.270  13.386 -0.5668  0.3922  0.5405
 8436TIP3    H146799   1.759   1.326  13.310 -1.8498 -0.4804 -0.4366
 8436TIP3    H246800   1.661   1.225  13.365 -0.2955 -0.8152  1.9051
 8437TIP3   OH246801   5.655   6.248  14.888  0.1007 -0.1153 -0.2008
 8437TIP3    H146802   5.622   6.330  14.851 -3.1729  0.2730  2.9274
 8437TIP3    H246803   5.610   6.179  14.839  1.6950 -0.0591 -1.8302
 8438TIP3   OH246804   3.201   3.543   1.599  0.4203  0.5122  0.1102
 8438TIP3    H146805   3.233   3.576   1.515 -0.3920  0.5077 -0.2146
 8438TIP3    H246806   3.108   3.526   1.584  0.6085 -0.9961  0.5599
 8439TIP3   OH246807   1.730   4.411  14.100 -0.6989  0.0674 -0.1902
 8439TIP3    H146808   1.653   4.413  14.156 -0.1429  1.0838  0.5749
 8439TIP3    H246809   1.697   4.383  14.015 -1.4766 -1.9540  0.7332
 8440TIP3   OH246810   3.906   4.697  11.179 -0.5580  0.5090  0.0321
 8440TIP3    H146811   3.920   4.602  11.178  0.4331  0.6468 -0.2883
 8440TIP3    H246812   3.860   4.715  11.097  1.9857  0.6579 -1.4646
 8441TIP3   OH246813   6.703   1.623   0.435 -0.6961 -0.2561 -0.2653
 8441TIP3    H146814   6.681   1.716   0.441 -1.3274 -0.3493 -1.0139
 8441TIP3    H246815   6.645   1.580   0.498 -1.0663 -0.2431 -0.5934
 8442TIP3   OH246816   1.894   6.334   0.679  0.9034  0.3629 -0.3775
 8442TIP3    H146817   1.798   6.334   0.683  0.8872 -0.7874 -0.4651
 8442TIP3    H246818   1.920   6.411   0.729  0.0187 -0.7765  1.9690
 8443TIP3   OH246819   2.584   2.153  15.421 -0.0320  0.6932 -0.3995
 8443TIP3    H146820   2.528   2.114  15.488 -0.9719 -0.3180 -1.7291
 8443TIP3    H246821   2.524   2.204  15.366  0.5361  0.6274 -1.0999
 8444TIP3   OH246822   1.179   1.152  15.295  0.5566 -0.0498  1.0292
 8444TIP3    H146823   1.165   1.072  15.244  0.3808 -0.1374  1.2112
 8444TIP3    H246824   1.253   1.195  15.253 -0.7206  0.8058 -0.4516
 8445TIP3   OH246825   2.864   2.311   2.491  0.2044 -0.6261  0.2179
 8445TIP3    H146826   2.789   2.305   2.550 -0.0731 -0.2293 -0.0827
 8445TIP3    H246827   2.925   2.371   2.534  0.0338 -0.3938  0.1388
 8446TIP3   OH246828   1.271   1.000  13.825 -0.2464 -0.7287  0.6820
 8446TIP3    H146829   1.190   0.976  13.781 -0.7302 -0.6085  1.4942
 8446TIP3    H246830   1.311   0.916  13.849 -0.0534 -0.7904  0.1437
 8447TIP3   OH246831   4.452   6.143  11.428  0.2025  0.6535 -0.3457
 8447TIP3    H146832   4.499   6.119  11.507 -0.4997 -0.8486 -0.3607
 8447TIP3    H246833   4.519   6.146  11.359  0.4398 -0.4599 -0.1714
 8448TIP3   OH246834   2.748   1.224  15.321  0.4890 -0.1671 -0.2469
 8448TIP3    H146835   2.779   1.231  15.412  1.1811  1.4304 -0.5733
 8448TIP3    H246836   2.660   1.188  15.329  0.0113  1.1931  1.1705
 8449TIP3   OH246837   4.305   0.599   5.469 -0.0936  0.1747  0.0304
 8449TIP3    H146838   4.400   0.609   5.459 -0.0150  0.5556  1.0234
 8449TIP3    H246839   4.279   0.673   5.525 -0.6163 -1.2218  1.7099
 8450TIP3   OH246840   3.703   5.736  17.037 -0.2839 -0.1301  0.4524
 8450TIP3    H146841   3.615   5.760  17.007  0.4860  0.5654 -1.4073
 8450TIP3    H246842   3.715   5.646  17.007  0.4824  0.5623 -1.4511
 8451TIP3   OH246843   5.961   6.156  15.574 -0.3643 -0.1282 -0.2998
 8451TIP3    H146844   5.991   6.076  15.616  0.2550  0.5569  0.6064
 8451TIP3    H246845   5.980   6.143  15.481  1.2705 -0.3868  0.0323
 8452TIP3   OH246846   1.295   3.509   6.372 -0.4589 -0.6479  0.0718
 8452TIP3    H146847   1.369   3.468   6.418 -0.0916  0.2792  0.3315
 8452TIP3    H246848   1.232   3.438   6.360 -0.6064 -0.9392  2.1010
 8453TIP3   OH246849   5.214   1.966   5.858  0.3496  0.1401  0.2744
 8453TIP3    H146850   5.196   1.879   5.823 -0.3813  0.6153 -0.5525
 8453TIP3    H246851   5.290   1.953   5.915  0.6410 -0.9218 -0.3297
 8454TIP3   OH246852   0.471   2.411   4.467 -0.4529 -0.0776 -0.2826
 8454TIP3    H146853   0.448   2.487   4.521  1.4691 -0.7184  1.5427
 8454TIP3    H246854   0.496   2.449   4.383 -0.2165  1.2623  0.3638
 8455TIP3   OH246855   4.081   6.159   0.640  0.1055 -0.1927 -0.3317
 8455TIP3    H146856   4.010   6.156   0.575  1.0786 -1.4213 -1.3938
 8455TIP3    H246857   4.144   6.094   0.609  0.9614 -0.2665  1.4577
 8456TIP3   OH246858   6.221   1.906  15.668 -0.0813  0.8972  0.4599
 8456TIP3    H146859   6.210   1.812  15.663 -0.3489  0.8615  1.5474
 8456TIP3    H246860   6.314   1.919  15.689  0.3211  0.9498 -1.1841
 8457TIP3   OH246861   5.376   2.823  15.194  0.0657  0.1313 -0.7695
 8457TIP3    H146862   5.410   2.779  15.116  1.2073 -1.3322  0.5092
 8457TIP3    H246863   5.439   2.893  15.211  0.1391  0.0749 -0.8109
 8458TIP3   OH246864   6.112   2.836  13.257  0.2320  0.0976  0.1556
 8458TIP3    H146865   6.133   2.917  13.210 -2.3019 -0.5506 -2.3836
 8458TIP3    H246866   6.134   2.766  13.196  1.2124 -1.1278  1.8281
 8459TIP3   OH246867   3.835   6.545   2.729  0.3020  0.1284 -0.0005
 8459TIP3    H146868   3.912   6.514   2.776 -0.0111  0.1974  0.5683
 8459TIP3    H246869   3.855   6.529   2.637  1.4868  1.2156  0.0360
 8460TIP3   OH246870   1.578   2.928   0.763 -0.5989 -0.4277 -0.3777
 8460TIP3    H146871   1.491   2.913   0.800 -1.4345 -2.8135 -2.9326
 8460TIP3    H246872   1.596   2.849   0.712  1.7245  1.2732 -2.4531
 8461TIP3   OH246873   3.646   2.498   5.473  0.5034 -0.2240 -1.0491
 8461TIP3    H146874   3.591   2.512   5.551  0.4606  1.4669 -1.3499
 8461TIP3    H246875   3.698   2.421   5.495 -1.6593 -1.6689 -0.5713
 8462TIP3   OH246876   6.189   0.084  11.542 -0.6228 -0.2553 -0.1675
 8462TIP3    H146877   6.174   0.088  11.448 -0.5872 -1.0476 -0.2118
 8462TIP3    H246878   6.139   0.008  11.571 -3.0405  1.6219  0.9297
 8463TIP3   OH246879   2.237   0.481  14.498 -0.4817  0.0879  0.0191
 8463TIP3    H146880   2.244   0.489  14.402 -1.3577 -2.3868 -0.3039
 8463TIP3    H246881   2.309   0.425  14.523 -0.2005  0.7987  0.8609
 8464TIP3   OH246882   5.103   4.106   0.922 -0.3570 -1.0732  0.2238
 8464TIP3    H146883   5.029   4.166   0.919  0.6020  0.1738  0.3033
 8464TIP3    H246884   5.110   4.072   0.833  0.4838  0.7714 -0.4739
 8465TIP3   OH246885   1.579   4.524   5.509  0.1047  0.6037  0.4828
 8465TIP3    H146886   1.535   4.439   5.518 -0.0425  0.8190  2.0576
 8465TIP3    H246887   1.559   4.570   5.591 -0.6136  2.5454 -0.7109
 8466TIP3   OH246888   6.786   3.070  16.429  0.1083  0.1353 -0.0247
 8466TIP3    H146889   6.816   3.126  16.501 -0.8534  1.3497 -0.5394
 8466TIP3    H246890   6.828   3.107  16.351  1.1414 -1.1672 -0.1222
 8467TIP3   OH246891   3.429   0.695   6.045  0.1651 -0.2460 -0.1586
 8467TIP3    H146892   3.429   0.791   6.049  0.7350 -0.2589  0.2103
 8467TIP3    H246893   3.391   0.675   5.959  2.1083  0.3674 -1.2242
 8468TIP3   OH246894   5.107   0.727  13.253  0.2168  0.6924 -0.7392
 8468TIP3    H146895   5.023   0.715  13.299 -0.0980 -2.3153 -1.9021
 8468TIP3    H246896   5.172   0.734  13.324 -0.6684 -0.1427  0.1848
 8469TIP3   OH246897   5.982   4.707  15.626  0.5537 -0.3731 -0.3504
 8469TIP3    H146898   5.978   4.803  15.622 -1.2754 -0.3935  0.1742
 8469TIP3    H246899   5.890   4.679  15.628  0.9531 -2.2567 -2.8046
 8470TIP3   OH246900   3.033   4.711  12.890  0.0555 -0.5036  0.4599
 8470TIP3    H146901   3.118   4.726  12.850  0.0833  2.2893  1.3461
 8470TIP3    H246902   3.019   4.616  12.883  2.7359 -0.8976 -0.6102
 8471TIP3   OH246903   3.391   3.293   3.713  0.1415  0.6562  0.3138
 8471TIP3    H146904   3.420   3.276   3.803 -0.9092 -0.5989  0.4475
 8471TIP3    H246905   3.391   3.207   3.671  1.8674  1.3823 -1.3124
 8472TIP3   OH246906   3.100   2.257  14.195  0.4183  0.7289 -0.8447
 8472TIP3    H146907   3.050   2.198  14.137  0.1794 -0.2566  0.3063
 8472TIP3    H246908   3.179   2.207  14.217  0.0910  0.7018  0.3542
 8473TIP3   OH246909   3.611   2.958  15.244  0.4203  0.0335  0.2883
 8473TIP3    H146910   3.627   2.965  15.338 -1.9581 -3.5892  1.1550
 8473TIP3    H246911   3.656   2.877  15.218 -1.7839 -0.9030 -0.8505
 8474TIP3   OH246912   4.608   2.258   3.984 -0.7260  0.2433  0.2678
 8474TIP3    H146913   4.674   2.199   3.948  1.2821  0.9933  2.4768
 8474TIP3    H246914   4.541   2.201   4.021  0.4435 -0.6598  1.0544
 8475TIP3   OH246915   4.715   3.241  11.087 -0.2936 -0.3035  0.1496
 8475TIP3    H146916   4.629   3.209  11.116 -0.0909 -1.1384 -0.1378
 8475TIP3    H246917   4.703   3.257  10.993 -0.2438 -0.0596  0.1862
 8476TIP3   OH246918   3.121   6.153  12.313  0.1796 -0.2399 -0.3440
 8476TIP3    H146919   3.210   6.173  12.341  0.3202 -1.0560 -0.1874
 8476TIP3    H246920   3.122   6.060  12.293 -0.8033 -0.4049  0.3063
 8477TIP3   OH246921   0.368   2.445  10.151  0.2780 -0.8051 -0.3738
 8477TIP3    H146922   0.442   2.496  10.119  1.6554 -2.3858  0.1504
 8477TIP3    H246923   0.338   2.491  10.229  0.4335  0.0672 -0.8213
 8478TIP3   OH246924   6.066   1.340  16.215 -0.1482 -0.3126 -0.2334
 8478TIP3    H146925   6.081   1.434  16.209  0.3123 -0.3232  0.6270
 8478TIP3    H246926   5.977   1.328  16.180 -0.3655  0.4912  0.0139
 8479TIP3   OH246927   5.047   3.484  14.020  0.2102 -0.3227 -0.0393
 8479TIP3    H146928   5.078   3.465  13.931  0.3217  0.3815 -0.1576
 8479TIP3    H246929   4.955   3.506  14.009 -0.3926 -2.4726  0.3184
 8480TIP3   OH246930   0.931   2.531  14.715 -0.3430 -0.2332  0.7085
 8480TIP3    H146931   0.899   2.615  14.748 -0.7673 -0.5788  1.2035
 8480TIP3    H246932   0.891   2.466  14.773  2.0707 -0.6438  2.0501
 8481TIP3   OH246933   0.541   3.363   5.053  0.8232  0.3598 -0.2354
 8481TIP3    H146934   0.446   3.357   5.054  0.8188  0.4810  1.0438
 8481TIP3    H246935   0.571   3.284   5.098  1.4156 -0.6696 -2.3099
 8482TIP3   OH246936   4.780   4.734  12.350  0.0745 -0.9887  0.0028
 8482TIP3    H146937   4.721   4.762  12.420  2.1598  0.3507  1.3195
 8482TIP3    H246938   4.868   4.745  12.386  1.2241 -0.7835 -2.6312
 8483TIP3   OH246939   1.902   3.922   3.978 -0.0115 -0.1601 -0.5969
 8483TIP3    H146940   1.924   4.010   3.948 -1.6044  0.3470 -0.3550
 8483TIP3    H246941   1.825   3.898   3.926  0.1397 -1.2370 -0.3403
 8484TIP3   OH246942   4.024   1.017   0.604 -0.0407  0.2821  0.5766
 8484TIP3    H146943   4.106   1.062   0.587  0.2844 -0.3084  0.5418
 8484TIP3    H246944   4.044   0.924   0.593 -1.3283  0.2287 -1.9975
 8485TIP3   OH246945   5.093   4.862   2.676 -0.5792  0.5255 -0.0467
 8485TIP3    H146946   5.176   4.891   2.637  0.8289 -2.2063  0.6846
 8485TIP3    H246947   5.031   4.860   2.604  1.1953 -1.6164 -1.6422
 8486TIP3   OH246948   4.734   0.101   0.178  0.3823 -0.4573 -0.8588
 8486TIP3    H146949   4.649   0.075   0.214  0.5277 -0.6842 -0.6730
 8486TIP3    H246950   4.731   0.071   0.088 -0.0815  0.3350 -1.1187
 8487TIP3   OH246951   0.661   5.680  14.915  0.0275 -0.0846  0.4952
 8487TIP3    H146952   0.713   5.749  14.873  0.0301  0.6130  1.5828
 8487TIP3    H246953   0.573   5.690  14.877 -0.3300  1.4679  1.6371
 8488TIP3   OH246954   0.792   1.820   1.529  0.2772 -0.0392 -0.6410
 8488TIP3    H146955   0.802   1.781   1.442  1.3538  0.6540 -0.8442
 8488TIP3    H246956   0.745   1.901   1.514  2.1190  1.0389 -0.8697
 8489TIP3   OH246957   1.492   0.565  16.668  0.3167 -0.6226  0.3211
 8489TIP3    H146958   1.542   0.584  16.589 -0.6242  0.3660 -0.0623
 8489TIP3    H246959   1.422   0.630  16.669  0.7941 -0.0670  2.4200
 8490TIP3   OH246960   1.657   2.467   4.187 -0.1528  0.2848 -0.1836
 8490TIP3    H146961   1.628   2.401   4.250 -1.5082  1.4789  0.4882
 8490TIP3    H246962   1.693   2.416   4.114  3.7082 -1.1849  2.4184
 8491TIP3   OH246963   2.767   6.070   2.468  0.1039 -0.4559 -0.5284
 8491TIP3    H146964   2.778   5.994   2.525 -2.9258 -0.3832  0.3333
 8491TIP3    H246965   2.792   6.038   2.381  1.8831 -1.4540  0.2785
 8492TIP3   OH246966   5.984   6.754  13.784 -1.0417 -0.0481  0.6118
 8492TIP3    H146967   6.073   6.788  13.799 -0.2904 -0.8738 -1.6056
 8492TIP3    H246968   5.981   6.734  13.691 -4.3410  2.0188  0.1111
 8493TIP3   OH246969   2.566   3.146  12.835 -0.4934 -0.2028 -0.1404
 8493TIP3    H146970   2.595   3.115  12.921 -0.1961 -1.6224 -0.7255
 8493TIP3    H246971   2.647   3.169  12.790 -0.2808 -2.8773 -1.2886
 8494TIP3   OH246972   2.654   1.822  16.861  0.0561  0.0507  0.2946
 8494TIP3    H146973   2.656   1.731  16.890  1.7808  0.1517  0.6568
 8494TIP3    H246974   2.695   1.870  16.933 -0.2626  1.0305 -0.1641
 8495TIP3   OH246975   2.861   4.183  16.307 -0.2479  0.0420 -0.6219
 8495TIP3    H146976   2.879   4.277  16.302 -0.6497  0.1940  0.5670
 8495TIP3    H246977   2.766   4.176  16.298 -0.5379 -0.0001  1.9185
 8496TIP3   OH246978   3.717   3.057   5.265  0.1052  0.3915 -0.0455
 8496TIP3    H146979   3.717   3.148   5.293 -0.2790  0.1658  0.6974
 8496TIP3    H246980   3.801   3.046   5.220  0.1346  1.1166 -0.1817
 8497TIP3   OH246981   5.323   3.648   1.356  0.5391 -0.3412  0.4106
 8497TIP3    H146982   5.384   3.595   1.407  1.3870 -1.0108 -1.2120
 8497TIP3    H246983   5.338   3.738   1.385  3.8038 -0.2041 -1.2595
 8498TIP3   OH246984   5.702   1.385   5.022 -0.2980  0.0224  0.1309
 8498TIP3    H146985   5.717   1.322   4.951 -1.3216 -0.0324 -0.0423
 8498TIP3    H246986   5.734   1.340   5.101 -0.1053 -0.3166 -0.1346
 8499TIP3   OH246987   6.810   1.038   4.122  0.2651  0.2247 -0.4601
 8499TIP3    H146988   6.835   1.123   4.087  0.2099  0.2904 -0.3396
 8499TIP3    H246989   6.714   1.037   4.120  0.2379  0.4850  0.2847
 8500TIP3   OH246990   6.282   2.206  11.784 -0.4767 -0.3165  0.0276
 8500TIP3    H146991   6.272   2.300  11.771 -0.9832 -0.6317 -2.1821
 8500TIP3    H246992   6.348   2.198  11.853 -0.5409  1.6337  0.3572
 8501TIP3   OH246993   6.381   2.221  14.714  0.4915 -0.3743 -0.1212
 8501TIP3    H146994   6.414   2.190  14.630  0.4973 -0.7361  0.0115
 8501TIP3    H246995   6.416   2.158  14.778  1.0267  0.2579  0.2322
 8502TIP3   OH246996   6.364   6.583   3.642  0.3059  0.2501  0.1365
 8502TIP3    H146997   6.366   6.624   3.728 -0.1854  0.4681  0.0491
 8502TIP3    H246998   6.423   6.636   3.588  1.3494 -0.4531  0.5783
 8503TIP3   OH246999   2.893   1.448  15.552 -0.1200  0.0440  0.5366
 8503TIP3    H147000   2.867   1.540  15.542 -0.7637 -0.1637  0.2687
 8503TIP3    H247001   2.974   1.440  15.501 -1.4943 -0.1673 -1.7539
 8504TIP3   OH247002   6.211   2.821  14.164  0.3336 -0.2077 -0.3877
 8504TIP3    H147003   6.174   2.736  14.188  1.7070 -0.3455  1.5267
 8504TIP3    H247004   6.306   2.807  14.167  0.5719  1.1395 -1.0485
 8505TIP3   OH247005   4.876   3.986   0.025 -0.1643  0.0209 -0.1485
 8505TIP3    H147006   4.906   3.901  -0.006 -0.0415  0.0446 -0.0961
 8505TIP3    H247007   4.838   3.968   0.111  0.1331  0.0664 -0.0071
 8506TIP3   OH247008   1.302   5.445   5.938 -0.4427 -0.5989 -0.2501
 8506TIP3    H147009   1.327   5.535   5.918  0.4624 -0.9731 -0.8352
 8506TIP3    H247010   1.217   5.435   5.896 -1.6044  0.6312  1.6288
 8507TIP3   OH247011   1.305   2.121   2.410  0.1932  0.6311  0.0958
 8507TIP3    H147012   1.376   2.058   2.421 -0.0509  0.6731  2.3405
 8507TIP3    H247013   1.255   2.088   2.335  0.5299 -1.4186  0.7069
 8508TIP3   OH247014   1.351   5.717  10.687  0.1924 -0.2196  1.1327
 8508TIP3    H147015   1.416   5.672  10.633 -0.4242  0.1425  0.0368
 8508TIP3    H247016   1.371   5.810  10.675 -2.0294  0.0724 -1.3609
 8509TIP3   OH247017   4.349   2.909  15.303  0.3485 -0.0738  0.0384
 8509TIP3    H147018   4.276   2.854  15.331 -1.0989  1.5425 -0.3104
 8509TIP3    H247019   4.408   2.913  15.378 -0.4270 -0.6308  0.6872
 8510TIP3   OH247020   5.292   4.998   1.143 -0.2456 -0.0037 -0.4012
 8510TIP3    H147021   5.342   5.057   1.086  0.5644  1.0911  1.3568
 8510TIP3    H247022   5.331   4.912   1.128  0.7633  0.4696 -0.6283
 8511TIP3   OH247023   5.553   1.631   0.742 -0.0579  0.1722  0.2624
 8511TIP3    H147024   5.624   1.685   0.777 -0.4651 -0.3397  1.9537
 8511TIP3    H247025   5.510   1.595   0.819 -2.8144  1.2501 -0.6634
 8512TIP3   OH247026   2.265   2.774   0.681 -0.2207  0.3483  0.0451
 8512TIP3    H147027   2.349   2.818   0.672  0.6724 -1.0396  1.1646
 8512TIP3    H247028   2.200   2.844   0.675  1.0626  1.6072  0.4354
 8513TIP3   OH247029   6.763   5.595   2.623 -0.3988  1.3719  0.0784
 8513TIP3    H147030   6.755   5.563   2.713 -1.9270  3.4874  0.7548
 8513TIP3    H247031   6.834   5.659   2.627  1.0690 -0.0903 -0.7874
 8514TIP3   OH247032   5.563   3.603  15.259 -0.1758  0.2141 -0.0191
 8514TIP3    H147033   5.619   3.678  15.243 -0.7535  0.5932 -0.3240
 8514TIP3    H247034   5.616   3.543  15.312  0.5626  0.4835 -0.4476
 8515TIP3   OH247035   6.570   2.845   0.797  0.1315  0.0075 -0.1947
 8515TIP3    H147036   6.654   2.826   0.839 -0.5149 -2.0381  0.2978
 8515TIP3    H247037   6.504   2.824   0.864 -0.8024  1.0035 -0.7638
 8516TIP3   OH247038   3.182   4.594  15.208 -0.2410  0.2573  0.2462
 8516TIP3    H147039   3.089   4.597  15.187  0.1410  0.8224 -1.5628
 8516TIP3    H247040   3.222   4.549  15.133  0.9724  0.2891  0.8501
 8517TIP3   OH247041   3.041   5.935  13.989 -0.2605 -0.0798 -0.3460
 8517TIP3    H147042   2.964   5.932  14.046  1.8444 -0.3667  2.6963
 8517TIP3    H247043   3.067   5.844  13.977  0.2561  0.0673 -0.3849
 8518TIP3   OH247044   6.301   0.330  11.945  0.1786  0.1056 -0.0686
 8518TIP3    H147045   6.348   0.389  11.887 -0.1985  0.5210  0.0377
 8518TIP3    H247046   6.359   0.318  12.020 -0.1879  1.2448  0.4295
 8519TIP3   OH247047   2.678   0.367  15.886 -0.0736  0.1455  0.3832
 8519TIP3    H147048   2.610   0.338  15.946  0.9818 -0.3490  1.3932
 8519TIP3    H247049   2.634   0.425  15.825 -1.8886 -2.0741 -0.5443
 8520TIP3   OH247050   5.329   4.882  13.315 -0.1450 -0.6153  0.4727
 8520TIP3    H147051   5.360   4.808  13.262  2.5144  1.2874 -0.8401
 8520TIP3    H247052   5.398   4.896  13.379 -0.3712  1.0062  0.3875
 8521TIP3   OH247053   4.295   6.777   2.934 -0.3018  0.1701 -0.3744
 8521TIP3    H147054   4.229   6.752   2.999 -2.1383  1.8607 -1.4478
 8521TIP3    H247055   4.323   6.695   2.894 -0.9273 -0.6842  0.8955
 8522TIP3   OH247056   3.601   4.698   3.933  0.3478 -0.3336 -0.1176
 8522TIP3    H147057   3.552   4.703   4.015  0.2830  0.6111 -0.1975
 8522TIP3    H247058   3.545   4.741   3.869 -0.2631 -2.3720 -1.0099
 8523TIP3   OH247059   6.490   0.873   1.146 -0.7921  0.2785 -0.4909
 8523TIP3    H147060   6.516   0.964   1.132 -0.0467  0.0198 -0.8802
 8523TIP3    H247061   6.534   0.848   1.228 -1.1129  0.3141 -0.3085
 8524TIP3   OH247062   1.458   2.871   1.062  0.4987  0.7953  0.4386
 8524TIP3    H147063   1.546   2.874   1.025  1.2663 -1.0733  1.9532
 8524TIP3    H247064   1.412   2.807   1.007  0.6568  0.4036  0.7600
 8525TIP3   OH247065   2.295   4.344   0.915 -0.1185 -0.2101  0.3792
 8525TIP3    H147066   2.216   4.293   0.897 -0.1442  0.2770 -1.0258
 8525TIP3    H247067   2.313   4.329   1.008 -3.6250  2.1313  1.6209
 8526TIP3   OH247068   3.207   6.033  14.536  0.3665 -0.0539 -0.0399
 8526TIP3    H147069   3.260   6.015  14.613  1.1425  1.3982 -0.1960
 8526TIP3    H247070   3.117   6.033  14.567  0.5987 -0.5295  0.6429
 8527TIP3   OH247071   1.226   5.834  13.121 -0.0647  0.1891 -0.1258
 8527TIP3    H147072   1.168   5.904  13.092 -0.1382  0.1304 -0.1214
 8527TIP3    H247073   1.169   5.757  13.129 -0.3766  0.5563  1.7042
 8528TIP3   OH247074   1.067   2.955  11.176 -0.6955  0.6067 -0.4705
 8528TIP3    H147075   1.152   2.973  11.216  0.3160 -2.8921 -0.7514
 8528TIP3    H247076   1.041   2.870  11.211 -2.7532  0.3038 -2.5011
 8529TIP3   OH247077   4.716   6.612   1.939  0.4671  0.5054 -0.5645
 8529TIP3    H147078   4.634   6.661   1.929 -0.2791 -0.7017 -0.5331
 8529TIP3    H247079   4.690   6.528   1.976  1.7491  0.1691 -0.3639
 8530TIP3   OH247080   2.409   2.215  14.418 -0.4678 -0.1363  0.0474
 8530TIP3    H147081   2.473   2.279  14.388 -0.2871  0.0532  0.8093
 8530TIP3    H247082   2.362   2.189  14.339  0.6703 -0.4266 -0.5455
 8531TIP3   OH247083   0.980   6.393  11.496  1.2902  0.1405  0.2032
 8531TIP3    H147084   1.046   6.449  11.457  0.3699  0.2848 -1.1885
 8531TIP3    H247085   0.911   6.387  11.431 -1.0991  1.6992  2.3703
 8532TIP3   OH247086   5.468   2.072   1.542 -0.3385  0.1132  0.1874
 8532TIP3    H147087   5.483   1.996   1.485  1.2154  0.1894  0.4601
 8532TIP3    H247088   5.455   2.145   1.481 -3.3568 -0.5301 -0.1276
 8533TIP3   OH247089   0.180   2.372  13.657 -0.2485 -0.0050 -0.5685
 8533TIP3    H147090   0.087   2.379  13.635 -0.4631  0.1834  0.3377
 8533TIP3    H247091   0.200   2.452  13.706  0.6813  0.4825 -1.6964
 8534TIP3   OH247092   1.951   6.436  13.283  0.0736 -0.2860  0.3911
 8534TIP3    H147093   2.036   6.438  13.238  0.0692 -0.4070  0.3770
 8534TIP3    H247094   1.888   6.416  13.213  0.0381 -0.2359  0.4083
 8535TIP3   OH247095   6.423   2.901   2.925  0.0237  0.3420  0.5315
 8535TIP3    H147096   6.478   2.920   2.849  1.4478  0.6726  1.6001
 8535TIP3    H247097   6.365   2.830   2.896  0.0214  0.9769 -1.0766
 8536TIP3   OH247098   6.741   0.663  16.554 -0.1157 -0.0943 -0.6176
 8536TIP3    H147099   6.701   0.590  16.507  0.0752 -0.7916  0.2740
 8536TIP3    H247100   6.716   0.741  16.504 -0.1782 -0.7810 -1.6761
 8537TIP3   OH247101   0.515   1.905  12.286 -0.6237 -0.2925 -0.4318
 8537TIP3    H147102   0.457   1.943  12.220  0.1279  0.3839 -0.7252
 8537TIP3    H247103   0.587   1.968  12.293 -1.0114 -0.0142  1.5313
 8538TIP3   OH247104   4.360   3.519   3.018 -0.7691 -0.1197 -0.4146
 8538TIP3    H147105   4.285   3.571   3.047 -1.2464 -1.5467  1.1225
 8538TIP3    H247106   4.370   3.540   2.925  0.0503  3.7820  0.4113
 8539TIP3   OH247107   1.824   6.814  12.238  0.1444  0.3287 -0.4626
 8539TIP3    H147108   1.773   6.767  12.172  0.9616 -1.7903  0.3231
 8539TIP3    H247109   1.911   6.774  12.233  0.3775  0.4900  1.4887
 8540TIP3   OH247110   5.734   1.560   3.274  0.2062  0.1152  0.1246
 8540TIP3    H147111   5.683   1.606   3.340 -0.0585  1.8895 -1.2559
 8540TIP3    H247112   5.825   1.570   3.302  0.2813  2.6716 -0.7776
 8541TIP3   OH247113   4.965   1.640   5.800  0.3604 -0.0017  0.1599
 8541TIP3    H147114   5.044   1.646   5.747  0.0658  1.6831 -0.1353
 8541TIP3    H247115   4.996   1.653   5.890  0.3877  1.1123  0.0030
 8542TIP3   OH247116   6.310   1.051   0.746  0.0263  0.3325  0.2024
 8542TIP3    H147117   6.404   1.066   0.745  0.5350 -2.2883  1.5932
 8542TIP3    H247118   6.282   1.069   0.656  2.2514 -0.9902 -0.8168
 8543TIP3   OH247119   6.462   3.533   0.014  0.3179 -0.3245 -0.2251
 8543TIP3    H147120   6.496   3.489   0.091  1.1101  2.3798  1.0634
 8543TIP3    H247121   6.535   3.533  -0.048  0.4778 -0.3555 -0.0370
 8544TIP3   OH247122   2.995   4.565  14.108 -0.1116 -0.4383 -0.0741
 8544TIP3    H147123   2.987   4.587  14.015 -1.8084  0.2412  0.1895
 8544TIP3    H247124   2.996   4.650  14.152 -1.6531 -0.7592  0.6495
 8545TIP3   OH247125   5.377   3.588  14.063  0.7740  0.6262  0.5491
 8545TIP3    H147126   5.414   3.559  13.980 -0.3475  1.8748 -0.4313
 8545TIP3    H247127   5.312   3.522  14.085  0.1989  0.9148 -0.2298
 8546TIP3   OH247128   6.638   5.244  12.979  0.7459 -0.0018 -0.6230
 8546TIP3    H147129   6.726   5.237  13.019  1.1632  0.8716 -1.3566
 8546TIP3    H247130   6.612   5.335  12.995 -0.3373 -0.4374  0.1939
 8547TIP3   OH247131   1.923   1.473  14.158 -0.0354 -0.0897 -0.5214
 8547TIP3    H147132   1.965   1.497  14.074  0.1228  0.0663 -0.4005
 8547TIP3    H247133   1.938   1.550  14.214 -0.0962 -0.2144 -0.3349
 8548TIP3   OH247134   5.071   5.787  12.494 -0.4254  0.0360  0.3047
 8548TIP3    H147135   5.150   5.793  12.440 -1.2839  4.5530 -0.9375
 8548TIP3    H247136   5.001   5.764  12.433 -0.7594  1.0082  0.2965
 8549TIP3   OH247137   5.499   3.205  16.838 -0.5082  0.0927  0.3215
 8549TIP3    H147138   5.563   3.155  16.788  0.0423  0.0187  1.0959
 8549TIP3    H247139   5.414   3.169  16.812 -0.2511  0.2213 -0.7377
 8550TIP3   OH247140   3.235   1.277   5.001 -0.0932  0.1288 -0.6446
 8550TIP3    H147141   3.194   1.205   4.954  0.1325 -0.9122  0.6931
 8550TIP3    H247142   3.322   1.285   4.962 -0.7541  0.8937 -2.0093
 8551TIP3   OH247143   0.366   1.518  11.988  0.4317  0.3529  0.5116
 8551TIP3    H147144   0.448   1.544  11.947 -0.0938  2.3369  0.6322
 8551TIP3    H247145   0.309   1.493  11.914  0.4651  1.0244  0.2514
 8552TIP3   OH247146   0.877   3.217   4.963 -0.0056  0.6126  0.1775
 8552TIP3    H147147   0.817   3.261   4.902 -0.1661 -0.4539 -0.4635
 8552TIP3    H247148   0.957   3.204   4.912 -1.0402 -2.7702 -0.8375
 8553TIP3   OH247149   0.028   3.729   4.117 -0.7375  0.0315  0.0485
 8553TIP3    H147150   0.120   3.756   4.126  0.0096 -2.5345  0.9845
 8553TIP3    H247151  -0.021   3.810   4.124  1.1929  1.1334  4.4429
 8554TIP3   OH247152   5.323   5.290  17.238  0.8399  0.0045 -0.0780
 8554TIP3    H147153   5.335   5.366  17.181  0.8581  0.4080  0.4590
 8554TIP3    H247154   5.410   5.249  17.242  1.0163  0.4035  0.2595
 8555TIP3   OH247155   0.509   5.792   4.997  0.0310  0.1019  0.8027
 8555TIP3    H147156   0.469   5.757   5.077  1.7336 -0.4699  1.4510
 8555TIP3    H247157   0.552   5.873   5.025  2.4503 -1.1571  1.0423
 8556TIP3   OH247158   6.810   5.408  13.650 -0.2352 -0.1896 -0.1279
 8556TIP3    H147159   6.905   5.411  13.652 -0.1934 -1.1344  0.7565
 8556TIP3    H247160   6.789   5.320  13.620 -0.8416  0.1978 -0.8738
 8557TIP3   OH247161   1.642   5.581   5.603 -0.4396  0.7964 -0.5026
 8557TIP3    H147162   1.571   5.517   5.604 -0.5100  0.8538 -1.2348
 8557TIP3    H247163   1.721   5.531   5.622 -0.4085  0.3685 -1.6783
 8558TIP3   OH247164   6.771   1.877   3.101  0.5527 -0.2756 -0.2459
 8558TIP3    H147165   6.795   1.953   3.047  0.7958 -0.4730 -0.4185
 8558TIP3    H247166   6.808   1.802   3.054 -0.6252 -0.6230 -0.6571
 8559TIP3   OH247167   5.756   3.654  14.712  0.3690 -0.2446 -0.4246
 8559TIP3    H147168   5.698   3.657  14.636 -0.7041 -2.0331  0.2473
 8559TIP3    H247169   5.806   3.573  14.701  3.4331  1.6500 -1.3835
 8560TIP3   OH247170   6.553   5.041  17.092  0.7974 -0.3970  0.3634
 8560TIP3    H147171   6.644   5.013  17.079  0.7469  0.6870 -3.9278
 8560TIP3    H247172   6.544   5.119  17.036 -2.3525  0.5747  1.9929
 8561TIP3   OH247173   6.089   4.419   6.109  0.0379 -1.2162 -0.3536
 8561TIP3    H147174   6.076   4.344   6.167  1.6388 -1.5032 -0.3152
 8561TIP3    H247175   6.173   4.456   6.136 -0.5239  0.3824 -0.6283
 8562TIP3   OH247176   0.718   6.662  11.344  0.2391 -0.3502  0.4821
 8562TIP3    H147177   0.758   6.576  11.353  0.8384  0.0073  1.3055
 8562TIP3    H247178   0.635   6.655  11.392  0.2097 -0.5026  0.4126
 8563TIP3   OH247179   3.266   4.624   2.550 -0.8152 -0.2521  0.9136
 8563TIP3    H147180   3.323   4.562   2.596  2.0814  0.4039 -1.5117
 8563TIP3    H247181   3.287   4.709   2.587  3.1493  0.6164 -2.6020
 8564TIP3   OH247182   2.368   0.886   1.481  0.0692 -0.5922  0.1437
 8564TIP3    H147183   2.374   0.925   1.568 -0.3674  0.5345 -0.3226
 8564TIP3    H247184   2.308   0.812   1.492  0.0907 -0.5100  0.8174
 8565TIP3   OH247185   0.020   3.699   2.193  0.4992  0.1292 -0.1280
 8565TIP3    H147186   0.003   3.607   2.173 -1.0996  0.3769 -0.0317
 8565TIP3    H247187   0.111   3.700   2.224 -0.0973 -1.7573  1.9633
 8566TIP3   OH247188   3.730   1.379   0.823  0.2978 -0.2236  0.0232
 8566TIP3    H147189   3.653   1.380   0.880 -0.2066 -0.5191 -0.6468
 8566TIP3    H247190   3.710   1.444   0.756  0.6584 -0.2658 -0.1226
 8567TIP3   OH247191   1.050   5.896  14.435  0.2344 -0.1350 -0.1754
 8567TIP3    H147192   0.971   5.915  14.485  1.1498  2.5014  0.4558
 8567TIP3    H247193   1.056   5.801  14.434 -2.9694 -0.4394 -0.3498
 8568TIP3   OH247194   5.321   0.270   5.052  0.3005  0.2890 -0.1435
 8568TIP3    H147195   5.416   0.261   5.053  0.3409  0.6729 -0.6644
 8568TIP3    H247196   5.289   0.188   5.014  0.4988  0.7736 -1.3867
 8569TIP3   OH247197   2.592   2.241   4.230 -0.1473 -0.2507 -0.9276
 8569TIP3    H147198   2.581   2.180   4.303  2.2509 -0.2878 -0.5039
 8569TIP3    H247199   2.686   2.242   4.213 -0.4977  0.6876 -3.2548
 8570TIP3   OH247200   0.318   3.428   5.195  0.4722  0.2702  0.2529
 8570TIP3    H147201   0.282   3.509   5.159  1.6840  0.8074  0.2069
 8570TIP3    H247202   0.246   3.390   5.246 -1.3367 -0.4684 -2.5692
 8571TIP3   OH247203   0.749   2.639   1.816 -0.2664 -0.2127 -0.4926
 8571TIP3    H147204   0.666   2.644   1.864  0.9146  3.1590  1.4907
 8571TIP3    H247205   0.806   2.588   1.872 -0.2588 -0.3997 -0.6677
 8572TIP3   OH247206   3.718   6.406  10.958 -0.0777  0.3028  0.1087
 8572TIP3    H147207   3.806   6.419  10.923 -0.2684 -1.2309 -1.0330
 8572TIP3    H247208   3.692   6.493  10.989  1.6487  0.8790  0.0624
 8573TIP3   OH247209   5.436   2.800  13.779 -0.0711  0.8086  0.2486
 8573TIP3    H147210   5.446   2.806  13.684  0.8668  3.1367  0.4372
 8573TIP3    H247211   5.449   2.707  13.798  1.0943  0.4847 -1.7735
 8574TIP3   OH247212   2.277   3.756  13.405 -0.4190 -0.6242  0.2840
 8574TIP3    H147213   2.248   3.668  13.382  1.8389 -1.3666 -0.0236
 8574TIP3    H247214   2.357   3.769  13.353 -1.3934  2.1418 -0.7012
 8575TIP3   OH247215   6.824   6.217   0.444  0.2203  0.0410 -0.4336
 8575TIP3    H147216   6.822   6.304   0.402  1.0847 -0.8341 -2.4240
 8575TIP3    H247217   6.887   6.167   0.392  1.3116 -1.1898  1.9226
 8576TIP3   OH247218   2.915   1.319   3.699  0.1947  0.1409 -0.5570
 8576TIP3    H147219   2.919   1.383   3.770  1.1196  1.4089 -1.6936
 8576TIP3    H247220   2.928   1.235   3.741  1.9457  0.9619  0.6404
 8577TIP3   OH247221   0.463   0.244   0.478  0.6701 -0.1355 -0.2206
 8577TIP3    H147222   0.402   0.196   0.534  0.0847  3.4368  2.5654
 8577TIP3    H247223   0.410   0.272   0.403 -0.0867 -0.1476  0.3032
 8578TIP3   OH247224   0.902   5.573  14.669 -0.2730  0.3323 -0.2505
 8578TIP3    H147225   0.937   5.492  14.706 -0.1810  0.7314  0.5377
 8578TIP3    H247226   0.869   5.547  14.582  0.9944 -0.2601 -0.5700
 8579TIP3   OH247227   3.618   4.039  12.276 -0.2743 -0.0472  0.3673
 8579TIP3    H147228   3.586   3.984  12.205 -0.7731  2.6606 -1.6259
 8579TIP3    H247229   3.545   4.096  12.298  0.9958  1.6351  0.4760
 8580TIP3   OH247230   5.568   3.643  11.101 -0.1272  0.1581 -0.1887
 8580TIP3    H147231   5.537   3.679  11.018  1.3244  2.7998  0.3078
 8580TIP3    H247232   5.531   3.702  11.168  1.0201 -0.2157  0.8055
 8581TIP3   OH247233   3.767   6.214  17.235 -0.0545  0.2738  0.4541
 8581TIP3    H147234   3.826   6.239  17.306  1.3519 -1.3130 -0.0891
 8581TIP3    H247235   3.719   6.139  17.271  1.1430 -0.9688 -0.4471
 8582TIP3   OH247236   4.270   6.377   4.551 -0.0061 -0.8220  0.2283
 8582TIP3    H147237   4.332   6.354   4.482  3.3981  3.9647  1.1662
 8582TIP3    H247238   4.188   6.395   4.506  1.0246 -1.4223 -2.0000
 8583TIP3   OH247239   0.062   0.161   5.064  0.5991 -0.3115 -0.6333
 8583TIP3    H147240   0.107   0.211   4.995  2.1598  2.3489  2.0396
 8583TIP3    H247241  -0.005   0.221   5.097  1.4279 -0.5445  1.6309
 8584TIP3   OH247242   1.938   3.069  14.084 -0.7150 -0.4188 -0.3330
 8584TIP3    H147243   1.916   3.162  14.075 -0.2061 -0.0214  1.8154
 8584TIP3    H247244   2.010   3.068  14.147 -2.0256 -2.3701  1.2689
 8585TIP3   OH247245   1.274   1.676   0.964 -0.3626 -0.0327  0.1739
 8585TIP3    H147246   1.193   1.625   0.970  0.5909 -1.4878  1.0510
 8585TIP3    H247247   1.282   1.718   1.050 -1.0288  1.4968 -0.4699
 8586TIP3   OH247248   5.924   0.086   0.268  0.1587  0.3372 -0.0307
 8586TIP3    H147249   5.908   0.139   0.345  0.0507  0.5344 -0.1873
 8586TIP3    H247250   6.015   0.058   0.276 -0.4787 -1.5778  1.3472
 8587TIP3   OH247251   5.849   6.034  13.622  0.1987 -0.2838  0.2828
 8587TIP3    H147252   5.918   6.039  13.556  0.5641  0.0937  0.6853
 8587TIP3    H247253   5.795   6.112  13.606  0.6393  0.1332  0.8100
 8588TIP3   OH247254   1.113   1.142  15.820 -0.0543 -0.2424  0.1913
 8588TIP3    H147255   1.150   1.198  15.889  0.3501 -0.7095  0.3608
 8588TIP3    H247256   1.150   1.055  15.838  1.3050 -0.0695 -1.5157
 8589TIP3   OH247257   0.302   5.980  14.848  0.7706 -0.1908  0.4799
 8589TIP3    H147258   0.284   5.978  14.754  1.1356  0.2498  0.3966
 8589TIP3    H247259   0.216   5.987  14.889  0.7139  2.2430  0.0838
 8590TIP3   OH247260   5.731   3.460   3.784  0.1761  0.5228 -0.6373
 8590TIP3    H147261   5.761   3.466   3.874 -2.6041 -1.2748  0.5287
 8590TIP3    H247262   5.675   3.537   3.773  0.4020  0.6658 -0.7987
 8591TIP3   OH247263   4.602   5.548  16.593  0.0290 -0.1993 -0.0056
 8591TIP3    H147264   4.657   5.472  16.576 -0.7801 -0.6995 -0.4224
 8591TIP3    H247265   4.664   5.617  16.619  0.9185 -0.5471 -1.1283
 8592TIP3   OH247266   3.355   2.690   3.394  0.4640  0.0956 -0.1100
 8592TIP3    H147267   3.372   2.773   3.349  1.5561 -0.2283 -0.3266
 8592TIP3    H247268   3.417   2.628   3.354  1.7509 -0.1288  2.0844
 8593TIP3   OH247269   2.177   5.238   1.170  0.7887 -0.1992  0.4608
 8593TIP3    H147270   2.195   5.183   1.247 -1.1604 -0.6160  0.6580
 8593TIP3    H247271   2.247   5.215   1.108  0.5371 -2.3247  0.8599
 8594TIP3   OH247272   3.854   0.728   3.819  0.0572 -0.7646 -0.2933
 8594TIP3    H147273   3.913   0.802   3.834  3.4719 -3.5865  1.5702
 8594TIP3    H247274   3.871   0.702   3.728  1.0622 -1.0044 -0.0460
 8595TIP3   OH247275   4.512   0.645  14.488  0.2226 -0.1708 -0.2263
 8595TIP3    H147276   4.542   0.699  14.561  0.2930 -0.9128  0.3060
 8595TIP3    H247277   4.578   0.577  14.480 -0.0069 -0.3407 -0.7164
 8596TIP3   OH247278   6.124   1.259  14.141  0.2400  0.8080 -0.8251
 8596TIP3    H147279   6.031   1.282  14.142 -0.7264 -1.8317  4.2038
 8596TIP3    H247280   6.131   1.194  14.071 -1.5709  1.4147 -1.6400
 8597TIP3   OH247281   1.977   2.322  14.700 -0.5434  0.0573  0.7252
 8597TIP3    H147282   2.060   2.300  14.656 -0.4303  2.2448 -0.2728
 8597TIP3    H247283   2.001   2.337  14.791  0.1087  0.3321  0.5135
 8598TIP3   OH247284   5.540   3.384  10.933  0.1183 -0.0283 -0.4728
 8598TIP3    H147285   5.587   3.421  10.858  1.3454 -0.1518  0.2050
 8598TIP3    H247286   5.570   3.435  11.008 -1.5146  0.4609 -0.1105
 8599TIP3   OH247287   3.551   2.100   2.451 -0.1287 -0.7741  0.2442
 8599TIP3    H147288   3.577   2.009   2.437 -2.6911 -1.5719  0.1714
 8599TIP3    H247289   3.536   2.135   2.364 -1.5627 -1.1010  0.3320
 8600TIP3   OH247290   2.530   0.733  11.467  0.0193  0.4841  0.1836
 8600TIP3    H147291   2.605   0.779  11.505  0.1772  0.1089  0.3253
 8600TIP3    H247292   2.568   0.673  11.403 -0.2406  1.0513 -0.5201
 8601TIP3   OH247293   0.300   0.709  14.875  0.0244  0.0808  0.0190
 8601TIP3    H147294   0.347   0.644  14.927 -0.9214 -1.0334 -0.4712
 8601TIP3    H247295   0.357   0.727  14.801 -0.0217 -0.7528 -0.2200
 8602TIP3   OH247296   0.381   5.341  13.146  0.1095 -0.3347 -0.2574
 8602TIP3    H147297   0.303   5.305  13.102 -0.1138  0.8067 -0.8339
 8602TIP3    H247298   0.375   5.435  13.132  1.2726 -0.1673  0.2530
 8603TIP3   OH247299   5.651   3.092  13.385 -0.1642 -0.1452 -0.4513
 8603TIP3    H147300   5.681   3.180  13.408  2.1850 -0.9262 -0.1827
 8603TIP3    H247301   5.616   3.101  13.296  1.3848  0.8412 -1.0099
 8604TIP3   OH247302   5.408   0.916  15.981  0.4033  0.0771 -0.0859
 8604TIP3    H147303   5.387   0.866  16.059 -1.2464 -0.9601 -1.1399
 8604TIP3    H247304   5.325   0.955  15.953  0.7115 -0.4437 -1.8820
 8605TIP3   OH247305   5.002   3.806  14.049 -0.0150 -0.0970  0.1307
 8605TIP3    H147306   5.053   3.738  14.004 -1.1007 -0.6041 -0.3719
 8605TIP3    H247307   4.985   3.872  13.982  0.7700  0.5521  0.5426
 8606TIP3   OH247308   1.383   0.350   4.594 -0.1426  0.2805 -0.6929
 8606TIP3    H147309   1.419   0.438   4.605 -2.5791  1.3233 -0.3448
 8606TIP3    H247310   1.316   0.343   4.662 -0.5130 -1.5870 -1.1811
 8607TIP3   OH247311   6.665   1.496  12.425 -0.4287  0.3069  0.3822
 8607TIP3    H147312   6.730   1.542  12.372 -1.9669  0.6761 -1.2608
 8607TIP3    H247313   6.717   1.454  12.494  1.4946  0.9616 -0.5801
 8608TIP3   OH247314   0.963   5.637  12.635 -0.1895  0.1965 -0.2493
 8608TIP3    H147315   0.954   5.583  12.557 -1.3338  0.4656 -0.3271
 8608TIP3    H247316   0.992   5.722  12.603 -1.2455  0.4863 -0.4623
 8609TIP3   OH247317   2.602   0.524  13.395  0.1395 -0.3273  0.1060
 8609TIP3    H147318   2.624   0.584  13.324 -0.9875 -2.1130 -1.8615
 8609TIP3    H247319   2.663   0.451  13.385  0.2040 -0.4491  1.2264
 8610TIP3   OH247320   2.490   0.303   5.567  0.5111 -0.6666 -0.1361
 8610TIP3    H147321   2.510   0.238   5.499  0.4033  0.4783 -1.2882
 8610TIP3    H247322   2.550   0.375   5.551 -0.8969  0.5204 -0.3369
 8611TIP3   OH247323   1.299   3.177  10.828  0.0337  0.3385  0.1577
 8611TIP3    H147324   1.380   3.218  10.800  0.0776  1.2894  1.5627
 8611TIP3    H247325   1.281   3.111  10.761  3.0399 -1.3145  0.7861
 8612TIP3   OH247326   4.628   2.060  16.941 -0.1862 -0.2823  0.2072
 8612TIP3    H147327   4.626   1.966  16.956 -0.6264 -0.2554  0.3342
 8612TIP3    H247328   4.542   2.091  16.970 -1.4701 -0.3505 -3.1121
 8613TIP3   OH247329   4.232   2.214   4.535 -0.5629 -0.6528 -0.2610
 8613TIP3    H147330   4.286   2.159   4.590 -0.3132  0.7214  0.9499
 8613TIP3    H247331   4.162   2.157   4.504 -0.2756 -1.6596  0.8853
 8614TIP3   OH247332   5.845   5.955   4.937 -0.4703  0.0094 -0.1418
 8614TIP3    H147333   5.858   5.864   4.966 -0.8434  0.3028  0.9905
 8614TIP3    H247334   5.902   6.006   4.994 -1.1745  0.6009  0.0422
 8615TIP3   OH247335   4.609   4.604  12.677  0.2338  0.3250 -0.6260
 8615TIP3    H147336   4.579   4.676  12.732 -2.6917 -1.5588  0.5054
 8615TIP3    H247337   4.536   4.588  12.617  1.0254 -1.3321 -1.2070
 8616TIP3   OH247338   0.953   0.778   2.485 -0.2960  0.0343 -0.2084
 8616TIP3    H147339   0.903   0.850   2.447 -1.5033 -0.9435 -0.5208
 8616TIP3    H247340   0.888   0.727   2.534  0.5341 -0.8371  0.0064
 8617TIP3   OH247341   4.961   1.108  12.253 -0.2033  0.3537  0.3763
 8617TIP3    H147342   4.887   1.111  12.314 -1.5988  1.2351 -1.3101
 8617TIP3    H247343   4.940   1.037  12.193 -1.7038  2.9815 -2.4749
 8618TIP3   OH247344   5.838   0.624   5.042  0.3184 -0.1719  0.0994
 8618TIP3    H147345   5.792   0.621   5.125 -1.9786  2.7228 -0.8875
 8618TIP3    H247346   5.929   0.639   5.065 -0.3932  1.4999  2.1298
 8619TIP3   OH247347   4.601   4.129  16.414 -0.4599 -0.6375  0.5615
 8619TIP3    H147348   4.560   4.143  16.500 -3.0163 -0.7940 -0.5485
 8619TIP3    H247349   4.560   4.049  16.381  1.3256 -1.2209 -0.3763
 8620TIP3   OH247350   6.694   0.749   4.234  0.1854  0.3010 -0.4281
 8620TIP3    H147351   6.759   0.725   4.300 -0.8132  1.0607  0.8797
 8620TIP3    H247352   6.722   0.703   4.155  1.4626 -0.5746  0.4938
 8621TIP3   OH247353   4.261   6.231  12.720  0.6803  0.2851 -0.0667
 8621TIP3    H147354   4.268   6.271  12.807  1.8586  0.0201 -0.0290
 8621TIP3    H247355   4.318   6.283  12.664  1.1144 -0.4525 -0.3371
 8622TIP3   OH247356   3.577   3.175  11.547 -0.3654 -0.2390  0.1560
 8622TIP3    H147357   3.669   3.165  11.522 -0.3190 -1.1477  0.6492
 8622TIP3    H247358   3.577   3.247  11.609 -0.2703  1.0341 -1.2610
 8623TIP3   OH247359   2.845   1.457  15.842 -0.1138 -0.3976 -0.5957
 8623TIP3    H147360   2.776   1.522  15.826  0.8790  0.3085 -2.2928
 8623TIP3    H247361   2.857   1.414  15.757  1.3839 -0.6365 -0.2905
 8624TIP3   OH247362   1.234   0.066  14.347  0.2279  0.4384 -0.2660
 8624TIP3    H147363   1.148   0.096  14.318 -0.8996 -2.4280 -0.1987
 8624TIP3    H247364   1.228   0.062  14.442 -0.1526 -1.1112 -0.3138
 8625TIP3   OH247365   6.283   4.195   3.015  0.0784 -0.6750  0.5556
 8625TIP3    H147366   6.292   4.281   2.974 -0.0054 -1.4538 -1.1917
 8625TIP3    H247367   6.313   4.208   3.105 -1.4695  1.5456  0.8440
 8626TIP3   OH247368   1.564   2.420  17.025  0.2016 -0.2184  0.3232
 8626TIP3    H147369   1.557   2.325  17.033 -0.9605 -0.2147 -0.4509
 8626TIP3    H247370   1.477   2.448  16.995  0.6925  1.0275  0.0200
 8627TIP3   OH247371   0.761   5.614  16.447 -0.0637 -0.1798 -0.2383
 8627TIP3    H147372   0.763   5.643  16.356  0.7246  0.4205 -0.0404
 8627TIP3    H247373   0.837   5.656  16.488  0.4415 -1.5921  0.3577
 8628TIP3   OH247374   2.822   2.140   6.235 -0.4551 -0.1190  1.0576
 8628TIP3    H147375   2.839   2.047   6.223 -3.1112 -0.3601 -2.4422
 8628TIP3    H247376   2.890   2.184   6.183 -0.7127 -0.2783  0.5745
 8629TIP3   OH247377   6.373   2.033   4.775  0.4602  0.2209  0.0610
 8629TIP3    H147378   6.351   2.107   4.719  0.8860  0.0559 -0.3320
 8629TIP3    H247379   6.442   1.987   4.728 -0.6372 -1.1227 -0.3104
 8630TIP3   OH247380   5.093   3.304  14.524  0.3444  0.3553  0.1686
 8630TIP3    H147381   5.061   3.389  14.493 -0.3687 -0.6388 -2.0581
 8630TIP3    H247382   5.183   3.320  14.550  0.9028  1.4110 -2.1923
 8631TIP3   OH247383   2.497   4.583  13.586  0.6710 -0.2839 -0.7508
 8631TIP3    H147384   2.480   4.547  13.673 -1.9026  2.2720 -0.0523
 8631TIP3    H247385   2.567   4.646  13.600 -0.2464  0.6640 -0.3351
 8632TIP3   OH247386   3.439   5.209   2.342  0.3906 -0.3046 -0.4348
 8632TIP3    H147387   3.491   5.183   2.418 -0.6667  2.6084  1.4949
 8632TIP3    H247388   3.489   5.180   2.267  2.3647 -1.8342  1.3633
 8633TIP3   OH247389   3.808   2.359  15.741 -0.2053  0.0199  0.0963
 8633TIP3    H147390   3.802   2.264  15.740 -1.3748  0.0785  0.2168
 8633TIP3    H247391   3.729   2.388  15.785  0.9664  1.0040  1.6669
 8634TIP3   OH247392   2.260   2.535   1.145 -0.0628  0.5100 -0.2746
 8634TIP3    H147393   2.167   2.538   1.167 -0.0801 -1.0382 -0.0100
 8634TIP3    H247394   2.305   2.559   1.226 -0.2071 -1.5473  0.4742
 8635TIP3   OH247395   6.110   5.154  12.334 -0.3557 -0.8609  0.0657
 8635TIP3    H147396   6.123   5.165  12.240 -1.1493  0.6422  0.0964
 8635TIP3    H247397   6.017   5.134  12.343 -0.1994 -1.4017  0.5033
 8636TIP3   OH247398   5.426   5.438  13.753  0.5078 -0.1605  0.0393
 8636TIP3    H147399   5.470   5.416  13.671  1.9405  0.1611  0.6906
 8636TIP3    H247400   5.494   5.428  13.820 -0.1941  1.1246  0.9873
 8637TIP3   OH247401   0.674   4.175   2.860  0.0492 -0.3821 -0.0620
 8637TIP3    H147402   0.729   4.098   2.852  1.3231  0.6415 -1.8943
 8637TIP3    H247403   0.646   4.176   2.952  0.4139 -2.6914  0.1150
 8638TIP3   OH247404   1.300   5.772  15.937  0.1129 -0.5133 -0.2622
 8638TIP3    H147405   1.311   5.731  15.851 -1.0529 -1.2055 -0.0976
 8638TIP3    H247406   1.214   5.813  15.933 -0.1916 -1.0348  0.7708
 8639TIP3   OH247407   2.071   6.304  12.564 -0.3243  0.2534  0.5015
 8639TIP3    H147408   2.058   6.292  12.658 -2.6728 -0.8618  0.1011
 8639TIP3    H247409   2.043   6.394  12.547 -2.6148 -0.3920  0.5229
 8640TIP3   OH247410   1.433   1.399  14.916  0.1160 -0.2758  0.1068
 8640TIP3    H147411   1.514   1.387  14.866  1.4592  2.2182  1.5356
 8640TIP3    H247412   1.363   1.384  14.851  1.7433  0.8441 -2.0447
 8641TIP3   OH247413   2.144   1.084   2.504 -0.4166 -0.2325  0.1407
 8641TIP3    H147414   2.105   1.170   2.519  0.4699  0.4469 -1.1864
 8641TIP3    H247415   2.236   1.094   2.530  0.0808 -0.2741 -1.4872
 8642TIP3   OH247416   4.760   2.253   5.790 -0.5451 -1.0791  0.3028
 8642TIP3    H147417   4.807   2.198   5.852 -0.5600 -0.2776  1.0391
 8642TIP3    H247418   4.790   2.342   5.809 -1.0437 -0.7559 -0.3963
 8643TIP3   OH247419   3.799   3.585   6.310 -0.2414 -0.3969  0.0735
 8643TIP3    H147420   3.891   3.561   6.298 -0.4767 -1.6197  0.4863
 8643TIP3    H247421   3.753   3.501   6.310 -1.6247  0.2894 -2.1691
 8644TIP3   OH247422   1.870   3.571   4.193 -0.3399  0.2027  0.3320
 8644TIP3    H147423   1.783   3.582   4.231  0.2419 -2.1449  2.6536
 8644TIP3    H247424   1.921   3.645   4.228 -1.2112  1.2839 -0.6091
 8645TIP3   OH247425   1.600   6.748   0.646  0.3340 -0.2154  0.0652
 8645TIP3    H147426   1.529   6.783   0.700  0.4946  0.2753 -0.0429
 8645TIP3    H247427   1.558   6.680   0.593  0.2848 -1.1151  1.2146
 8646TIP3   OH247428   2.473   4.882  12.009  0.5640  0.4677  0.0032
 8646TIP3    H147429   2.469   4.806  11.951  0.8046  0.8820 -0.5680
 8646TIP3    H247430   2.530   4.943  11.964 -0.1884  1.2776  0.1247
 8647TIP3   OH247431   4.630   6.651   0.761 -0.7049  0.0213  0.1248
 8647TIP3    H147432   4.684   6.572   0.767  1.0691  1.2426  0.8408
 8647TIP3    H247433   4.635   6.691   0.847 -0.9339  1.3327 -0.4435
 8648TIP3   OH247434   0.129   2.340   0.939 -0.1525 -0.3520 -0.2203
 8648TIP3    H147435   0.081   2.406   0.889 -2.3069 -2.2899 -0.8481
 8648TIP3    H247436   0.067   2.269   0.952  1.1903 -1.1422  2.8683
 8649TIP3   OH247437   3.355   1.413  15.376  0.8692 -0.2015 -0.0183
 8649TIP3    H147438   3.450   1.411  15.376  0.8929 -1.9501  1.6595
 8649TIP3    H247439   3.329   1.320  15.376 -0.7696  0.1941  1.3944
 8650TIP3   OH247440   0.014   5.695   3.274 -0.2992 -0.2087 -0.0856
 8650TIP3    H147441  -0.071   5.738   3.284  0.3250  0.9599  0.3149
 8650TIP3    H247442   0.046   5.724   3.189  0.0447 -0.0161  0.1080
 8651TIP3   OH247443   2.264   1.930  13.190 -0.1506 -0.1623  0.1131
 8651TIP3    H147444   2.203   1.904  13.259  1.9132 -2.4334  1.2524
 8651TIP3    H247445   2.227   1.893  13.110 -1.1350  0.0021  0.4850
 8652TIP3   OH247446   2.690   5.239   3.342 -0.0155  0.1608 -0.2472
 8652TIP3    H147447   2.645   5.154   3.344  1.8384 -0.8811 -0.2750
 8652TIP3    H247448   2.640   5.295   3.401 -1.2105 -0.9833 -0.1330
 8653TIP3   OH247449   2.029   5.034  12.773  0.3056 -0.7540  0.6949
 8653TIP3    H147450   2.039   4.943  12.800  0.5201 -0.6415  1.0017
 8653TIP3    H247451   2.105   5.078  12.810 -0.3362 -0.2467  1.4291
 8654TIP3   OH247452   6.783   6.353  12.962 -0.8922  0.4187  0.1596
 8654TIP3    H147453   6.778   6.381  13.053  1.7878 -0.3995  0.6464
 8654TIP3    H247454   6.740   6.268  12.961  0.9286 -0.5595  1.1778
 8655TIP3   OH247455   0.256   6.707   1.436 -0.2574  0.1328 -0.3263
 8655TIP3    H147456   0.259   6.665   1.350 -0.8607  3.4247 -2.1287
 8655TIP3    H247457   0.168   6.745   1.440 -1.2490 -2.1847  3.0072
 8656TIP3   OH247458   5.164   1.940   4.258 -0.3000 -0.1695  0.6409
 8656TIP3    H147459   5.236   1.999   4.281  0.5372 -1.0374  0.3194
 8656TIP3    H247460   5.094   1.998   4.227  0.4024  0.6635  0.5888
 8657TIP3   OH247461   4.440   0.569   1.502 -0.0237  0.6893 -0.2745
 8657TIP3    H147462   4.462   0.661   1.489 -0.1679  0.6869 -0.5551
 8657TIP3    H247463   4.355   0.558   1.458 -1.3339  1.0395  2.0134
 8658TIP3   OH247464   6.018   6.142   5.427  0.2914  0.1697  0.6557
 8658TIP3    H147465   6.007   6.236   5.413 -2.1360  0.0553  1.3600
 8658TIP3    H247466   6.086   6.136   5.494 -0.2624  1.5000  1.3799
 8659TIP3   OH247467   5.353   1.111   3.923 -0.0185 -0.1203  0.0358
 8659TIP3    H147468   5.303   1.173   3.870 -0.6986 -0.9328 -0.2966
 8659TIP3    H247469   5.330   1.131   4.013  0.6909  0.8861  0.0111
 8660TIP3   OH247470   2.185   5.875   2.790  0.2219 -0.4195  0.5473
 8660TIP3    H147471   2.132   5.802   2.821 -0.8005  0.9897  2.3086
 8660TIP3    H247472   2.273   5.857   2.825  0.2665 -1.3526 -0.0114
 8661TIP3   OH247473   0.851   5.158   5.328  0.1935 -0.0896 -0.1047
 8661TIP3    H147474   0.761   5.169   5.297  0.5162 -3.6839 -2.9283
 8661TIP3    H247475   0.843   5.094   5.399  0.5568 -2.3954 -2.0013
 8662TIP3   OH247476   1.624   4.296   3.439 -0.3321 -0.2024  0.1301
 8662TIP3    H147477   1.614   4.369   3.500  1.3952  0.8143 -0.7435
 8662TIP3    H247478   1.594   4.331   3.354  3.0080  0.5169 -0.9093
 8663TIP3   OH247479   4.698   1.045  11.759 -0.2444 -0.7780 -0.7797
 8663TIP3    H147480   4.643   0.968  11.745  0.0409 -0.8228 -1.7200
 8663TIP3    H247481   4.781   1.010  11.791 -1.3071 -0.6042  2.6125
 8664TIP3   OH247482   2.219   0.431   1.298  0.4215 -0.0700 -0.2774
 8664TIP3    H147483   2.148   0.420   1.236  0.5952 -1.5063 -0.2574
 8664TIP3    H247484   2.183   0.487   1.367 -0.8235 -1.0302 -0.1050
 8665TIP3   OH247485   1.567   5.567   0.823 -0.1604 -0.9231 -0.2273
 8665TIP3    H147486   1.644   5.563   0.879 -0.6551  0.8067  0.6467
 8665TIP3    H247487   1.599   5.606   0.741 -0.3346  1.4675  0.7390
 8666TIP3   OH247488   6.516   4.147   1.570  0.1085 -0.1407 -0.1742
 8666TIP3    H147489   6.446   4.211   1.561 -0.7739 -1.0455  0.1568
 8666TIP3    H247490   6.596   4.196   1.547 -0.5853  0.9606 -0.3103
 8667TIP3   OH247491   0.502   4.257   0.644 -0.0578 -0.6095  0.1428
 8667TIP3    H147492   0.422   4.294   0.606 -0.8277 -1.5212  0.8019
 8667TIP3    H247493   0.558   4.238   0.569 -1.4993 -2.2826 -0.5818
 8668TIP3   OH247494   4.340   1.129  16.358  0.2835 -0.0129 -0.4868
 8668TIP3    H147495   4.427   1.126  16.318 -0.1350  1.4031 -1.6256
 8668TIP3    H247496   4.356   1.124  16.452  1.5129 -0.8162 -0.7219
 8669TIP3   OH247497   6.261   4.165   5.758 -0.1562  0.5669 -0.0401
 8669TIP3    H147498   6.251   4.235   5.693 -0.6181  0.3785 -0.1768
 8669TIP3    H247499   6.171   4.139   5.779 -0.0099 -1.3539 -1.4906
 8670TIP3   OH247500   6.779   6.428  12.103  0.2103 -0.0877  0.2428
 8670TIP3    H147501   6.785   6.388  12.016 -0.6111 -1.7604  0.9046
 8670TIP3    H247502   6.814   6.361  12.162  1.3665  1.2622  1.1735
 8671TIP3   OH247503   1.267   2.422  10.975 -0.1042 -0.3272  0.5402
 8671TIP3    H147504   1.311   2.396  11.056 -1.1503 -0.8493  0.9638
 8671TIP3    H247505   1.313   2.375  10.906  1.3899  0.8142  0.6881
 8672TIP3   OH247506   0.829   4.685   3.921 -0.2943 -0.2384  0.0445
 8672TIP3    H147507   0.800   4.702   3.831 -0.3302  0.2526  0.1472
 8672TIP3    H247508   0.875   4.601   3.916  0.5359  0.2415 -0.6192
 8673TIP3   OH247509   0.773   6.168   2.376 -0.0368  0.4026 -0.6504
 8673TIP3    H147510   0.789   6.094   2.317  0.6896 -0.5692  0.7206
 8673TIP3    H247511   0.765   6.129   2.463  1.2605  2.0051  0.2437
 8674TIP3   OH247512   1.209   0.487  12.216  0.0950 -0.4394  0.1340
 8674TIP3    H147513   1.280   0.467  12.155  0.2901 -0.3832  0.3423
 8674TIP3    H247514   1.253   0.514  12.296 -0.1585  0.7358 -0.1043
 8675TIP3   OH247515   6.306   6.229  13.950  0.2258 -0.2610 -0.3306
 8675TIP3    H147516   6.223   6.207  13.991 -0.0760 -1.4992 -1.5524
 8675TIP3    H247517   6.295   6.319  13.919 -0.0570  0.1571  0.9458
 8676TIP3   OH247518   2.577   1.457  13.455 -0.4231  0.1959  0.5130
 8676TIP3    H147519   2.498   1.412  13.485 -0.0269 -0.6947  0.2495
 8676TIP3    H247520   2.639   1.450  13.527 -0.0298 -0.5291  0.1128
 8677TIP3   OH247521   6.824   4.272   4.684 -0.3879  0.0379 -0.5548
 8677TIP3    H147522   6.867   4.354   4.707 -1.1628  0.5643 -0.9644
 8677TIP3    H247523   6.779   4.245   4.764  0.2545 -0.2519 -0.2773
 8678TIP3   OH247524   1.465   4.490  11.081 -0.5406 -0.0036 -0.5144
 8678TIP3    H147525   1.556   4.507  11.059 -0.4594 -1.0655 -1.0573
 8678TIP3    H247526   1.424   4.465  10.998 -1.0302 -0.7042 -0.0786
 8679TIP3   OH247527   4.622   4.106   0.545  0.3476 -0.3772  0.0757
 8679TIP3    H147528   4.609   4.122   0.452  1.4466  2.0225  0.2654
 8679TIP3    H247529   4.554   4.157   0.588  2.0828  1.5808  0.6463
 8680TIP3   OH247530   0.870   2.359  14.963 -0.5561  0.4776 -0.1990
 8680TIP3    H147531   0.951   2.355  15.014 -0.2084  0.2451 -0.7695
 8680TIP3    H247532   0.826   2.276  14.984 -0.6828  0.6303  0.1583
 8681TIP3   OH247533   5.551   6.292   1.389  0.3582  0.4768 -0.2742
 8681TIP3    H147534   5.487   6.344   1.342  0.3019 -0.9750 -1.9257
 8681TIP3    H247535   5.503   6.255   1.463 -0.6620 -0.3211 -1.3017
 8682TIP3   OH247536   1.983   0.402   3.853  0.5339 -0.6170 -0.3265
 8682TIP3    H147537   1.996   0.418   3.760  1.1142 -0.2555 -0.1862
 8682TIP3    H247538   2.049   0.337   3.877  2.9236  1.9542  0.5962
 8683TIP3   OH247539   5.219   1.299   3.720  0.4969  0.0640 -0.4613
 8683TIP3    H147540   5.266   1.305   3.637 -2.3131 -0.4874 -2.2380
 8683TIP3    H247541   5.150   1.234   3.704 -1.4818  1.5028  1.5942
 8684TIP3   OH247542   5.216   2.612  11.260 -0.6811  1.0519  0.1238
 8684TIP3    H147543   5.267   2.603  11.180 -0.6911 -1.2518  0.3223
 8684TIP3    H247544   5.169   2.695  11.250 -2.1724 -0.0559 -3.1151
 8685TIP3   OH247545   1.400   6.363  15.805  0.5933 -0.3331 -0.3322
 8685TIP3    H147546   1.445   6.395  15.726  0.5658 -0.4198 -0.3832
 8685TIP3    H247547   1.311   6.396  15.797  1.0377  1.1486  0.5284
 8686TIP3   OH247548   4.109   1.218  11.308  0.7820  0.2258  0.3085
 8686TIP3    H147549   4.152   1.238  11.391  1.0546 -0.9844  0.4884
 8686TIP3    H247550   4.131   1.292  11.251  1.8621  0.3531  0.8601
 8687TIP3   OH247551   1.134   2.196   3.710  0.2498  0.4155 -0.0437
 8687TIP3    H147552   1.079   2.228   3.782 -0.1109 -0.1007 -0.0793
 8687TIP3    H247553   1.189   2.270   3.687  0.8422  0.3896  1.2067
 8688TIP3   OH247554   3.024   2.837  15.467 -0.2162  0.0365  0.1268
 8688TIP3    H147555   2.959   2.883  15.414 -0.0251  0.5448  0.3260
 8688TIP3    H247556   3.104   2.838  15.414  0.6239  2.5255  1.2836
 8689TIP3   OH247557   0.375   5.585   0.969  0.7639 -0.4892 -0.0956
 8689TIP3    H147558   0.412   5.638   1.040 -0.2191 -0.6816  0.5784
 8689TIP3    H247559   0.384   5.495   1.000  1.2007 -0.6437 -0.6510
 8690TIP3   OH247560   0.122   4.485   5.322 -0.6054  1.0015 -0.3071
 8690TIP3    H147561   0.080   4.504   5.405  2.5827  3.4567  0.9788
 8690TIP3    H247562   0.156   4.396   5.331  0.3042  1.4794  1.3913
 8691TIP3   OH247563   3.567   4.884  12.297  0.2739 -0.0162  0.5223
 8691TIP3    H147564   3.548   4.804  12.248  1.6397  0.3097 -0.6167
 8691TIP3    H247565   3.599   4.946  12.231  0.5884  1.0030  1.5878
 8692TIP3   OH247566   5.385   6.104   4.456 -0.1690  0.2585 -0.0423
 8692TIP3    H147567   5.367   6.116   4.550 -3.5557  0.6740 -0.6003
 8692TIP3    H247568   5.341   6.177   4.414 -1.0869 -1.3776 -2.0984
 8693TIP3   OH247569   0.955   2.074   0.784 -0.0504 -0.1107 -0.3999
 8693TIP3    H147570   0.968   2.147   0.723  0.7980  2.1692  2.2945
 8693TIP3    H247571   1.039   2.027   0.783  0.4214  0.7041 -0.0505
 8694TIP3   OH247572   5.639   4.207   2.500  0.0904 -0.1775  0.2058
 8694TIP3    H147573   5.690   4.195   2.580 -0.7902  0.0926  0.8228
 8694TIP3    H247574   5.634   4.120   2.462 -0.5216 -0.5461  1.0988
 8695TIP3   OH247575   5.673   5.264  16.450  0.1310  0.1852 -0.6482
 8695TIP3    H147576   5.658   5.300  16.537  0.1426 -0.9226 -0.1759
 8695TIP3    H247577   5.759   5.297  16.425  0.5103 -0.1767  0.1324
 8696TIP3   OH247578   2.139   2.706  11.648 -0.1133  0.0787  0.2641
 8696TIP3    H147579   2.213   2.648  11.665  0.3435  0.4602 -0.3780
 8696TIP3    H247580   2.064   2.661  11.687  0.3913 -0.4905  0.5929
 8697TIP3   OH247581   6.058   2.309   0.300 -0.7148 -0.5406  0.4672
 8697TIP3    H147582   6.151   2.289   0.292 -0.7868 -1.8718  2.4093
 8697TIP3    H247583   6.044   2.380   0.237  1.0202 -2.0358 -1.7890
 8698TIP3   OH247584   0.869   5.766  16.247 -0.1195  0.1925 -0.1057
 8698TIP3    H147585   0.913   5.797  16.168  2.7269 -0.0260  1.2750
 8698TIP3    H247586   0.896   5.827  16.315 -1.9203 -0.0517  0.8872
 8699TIP3   OH247587   3.279   4.890  13.742 -0.0004  0.0153 -0.3692
 8699TIP3    H147588   3.249   4.835  13.815 -1.5349  2.5638  1.1024
 8699TIP3    H247589   3.210   4.881  13.676  0.0292 -0.2475 -0.3636
 8700TIP3   OH247590   4.865   5.118   1.842  0.5142 -0.0947  0.0524
 8700TIP3    H147591   4.958   5.118   1.863  0.4887  1.7192  0.2821
 8700TIP3    H247592   4.852   5.194   1.786 -0.4515 -1.6136 -1.9208
 8701TIP3   OH247593   5.181   3.403  12.036 -0.0652  0.5227  0.1862
 8701TIP3    H147594   5.252   3.454  11.998  1.2922 -0.8892  0.7309
 8701TIP3    H247595   5.168   3.330  11.974 -0.3502  0.2230  0.5902
 8702TIP3   OH247596   5.307   6.588  10.552  0.0026 -0.0250 -0.6538
 8702TIP3    H147597   5.402   6.576  10.546 -0.2086 -3.7046  0.8225
 8702TIP3    H247598   5.297   6.662  10.612  1.9044  0.4114 -0.7813
 8703TIP3   OH247599   4.252   1.335   3.455  0.1026 -0.3241 -0.1763
 8703TIP3    H147600   4.229   1.378   3.372 -0.8046 -0.8657 -0.2185
 8703TIP3    H247601   4.282   1.248   3.429 -2.0860 -1.2435  0.1529
 8704TIP3   OH247602   4.034   4.533   5.839  0.2487 -0.3210  0.0513
 8704TIP3    H147603   4.111   4.478   5.856  0.9041  0.5857  0.0612
 8704TIP3    H247604   3.990   4.539   5.924  0.5582 -0.2508  0.2087
 8705TIP3   OH247605   0.969   0.140   1.552  0.1613 -0.5001 -0.1448
 8705TIP3    H147606   0.929   0.206   1.496 -1.0145  0.0476  1.2666
 8705TIP3    H247607   1.015   0.082   1.492  0.4237  1.0385 -1.5200
 8706TIP3   OH247608   5.135   1.542   3.227  0.0945 -0.3511  0.1259
 8706TIP3    H147609   5.177   1.547   3.314  0.5427  0.4320 -0.1266
 8706TIP3    H247610   5.191   1.482   3.178  0.3272 -0.1295  0.1173
 8707TIP3   OH247611   6.166   1.114   4.411  0.0883 -0.1992 -0.2187
 8707TIP3    H147612   6.177   1.101   4.317 -0.9078 -2.1268 -0.1202
 8707TIP3    H247613   6.074   1.139   4.421  0.0447 -0.5448  0.2735
 8708TIP3   OH247614   3.022   6.048  12.989  0.0122  0.2635 -0.4396
 8708TIP3    H147615   3.076   5.991  12.934 -0.6410 -0.4461 -0.3567
 8708TIP3    H247616   3.036   6.135  12.953 -0.2162 -0.1573 -1.5890
 8709TIP3   OH247617   5.778   4.161   0.335 -0.0963 -0.1722  0.0216
 8709TIP3    H147618   5.745   4.073   0.353 -1.7002  0.7411  1.9075
 8709TIP3    H247619   5.750   4.179   0.245 -2.2287 -0.5589  0.5694
 8710TIP3   OH247620   0.293   1.821  17.091  0.4391 -0.3129 -0.0731
 8710TIP3    H147621   0.258   1.737  17.120 -0.4153  0.7946  2.4207
 8710TIP3    H247622   0.217   1.879  17.089  1.2878  0.8398  0.0888
 8711TIP3   OH247623   2.739   3.482  11.526 -0.8857 -0.0581 -0.0269
 8711TIP3    H147624   2.758   3.549  11.590 -1.0534 -0.4157  0.4013
 8711TIP3    H247625   2.729   3.402  11.577  1.3021 -0.8261 -0.6852
 8712TIP3   OH247626   3.753   1.282   2.354 -0.5305  0.2263 -0.2210
 8712TIP3    H147627   3.673   1.258   2.307 -1.3693  0.6354  0.9407
 8712TIP3    H247628   3.768   1.210   2.416 -0.1263  0.2568 -0.2793
 8713TIP3   OH247629   6.264   3.739   5.942 -0.2773 -0.6216  0.3672
 8713TIP3    H147630   6.302   3.748   6.030  0.4683 -3.0040  0.3435
 8713TIP3    H247631   6.278   3.648   5.919 -3.8927 -1.0635 -0.6899
 8714TIP3   OH247632   1.353   1.915  16.557  0.1010  0.2703 -0.1964
 8714TIP3    H147633   1.412   1.845  16.584  1.6995  0.9219 -1.8335
 8714TIP3    H247634   1.267   1.873  16.550  0.7161 -1.1346  0.4097
 8715TIP3   OH247635   4.996   4.701   5.200 -0.2967 -0.4038 -0.2238
 8715TIP3    H147636   4.953   4.731   5.120  1.1637 -1.6168 -1.5119
 8715TIP3    H247637   5.088   4.692   5.176  0.2590 -0.4262  1.7225
 8716TIP3   OH247638   1.715   0.508  15.133 -0.5632  0.6550 -0.0476
 8716TIP3    H147639   1.752   0.428  15.095 -2.3893  0.1058 -0.7669
 8716TIP3    H247640   1.751   0.510  15.222 -1.7105 -1.8713  0.5640
 8717TIP3   OH247641   2.867   6.150   0.463 -0.4931 -0.0339 -0.3003
 8717TIP3    H147642   2.804   6.077   0.461  0.2131 -0.6554 -0.5326
 8717TIP3    H247643   2.940   6.116   0.516 -0.4790  0.7837  0.2149
 8718TIP3   OH247644   3.272   3.323  16.914  0.3804  0.4697 -0.2944
 8718TIP3    H147645   3.365   3.343  16.904  0.9030 -0.7224  1.7638
 8718TIP3    H247646   3.269   3.253  16.979 -1.8580 -0.7038 -1.5302
 8719TIP3   OH247647   1.890   2.810   2.417 -0.1749  0.0686  0.1071
 8719TIP3    H147648   1.978   2.841   2.394 -0.3885  0.9658  0.4847
 8719TIP3    H247649   1.839   2.889   2.431 -1.2487 -0.4345 -0.8149
 8720TIP3   OH247650   1.472   3.332  14.639 -0.3076 -0.3824 -0.4511
 8720TIP3    H147651   1.389   3.296  14.667  0.3352 -0.5776  1.3459
 8720TIP3    H247652   1.533   3.259  14.643  0.0545 -0.1385 -1.2981
 8721TIP3   OH247653   0.435   4.950  14.065 -0.0118  0.2874  0.5988
 8721TIP3    H147654   0.510   4.898  14.092  1.9718  2.9033  0.4947
 8721TIP3    H247655   0.414   5.004  14.141 -0.6718  0.7980  0.0752
 8722TIP3   OH247656   0.109   5.934   1.637 -0.0195 -0.1140 -0.3053
 8722TIP3    H147657   0.033   5.881   1.660  1.0092 -0.4389  2.6819
 8722TIP3    H247658   0.120   5.919   1.543 -3.0601 -0.7597 -0.6591
 8723TIP3   OH247659   5.892   2.162  16.875 -0.3823  0.0664 -0.4936
 8723TIP3    H147660   5.852   2.081  16.842  0.1557  0.0594 -1.1435
 8723TIP3    H247661   5.818   2.212  16.910 -0.7881 -0.4910 -0.5330
 8724TIP3   OH247662   3.984   1.001  11.473  0.7319 -0.8544 -0.1571
 8724TIP3    H147663   3.935   0.991  11.554 -0.0127 -1.7864 -0.6906
 8724TIP3    H247664   4.003   1.094  11.467  0.8510 -0.7801  1.1032
 8725TIP3   OH247665   4.995   1.161  15.316 -0.6294  0.1678  0.2950
 8725TIP3    H147666   5.065   1.121  15.266 -2.8226 -2.9033 -0.6513
 8725TIP3    H247667   5.038   1.198  15.393  2.1207 -0.4362 -0.8474
 8726TIP3   OH247668   0.199   5.756  11.513  0.6245 -0.8888  0.0736
 8726TIP3    H147669   0.141   5.822  11.552  1.9049  0.2978  0.0137
 8726TIP3    H247670   0.151   5.726  11.436  0.0439  0.0044  0.0640
 8727TIP3   OH247671   0.087   2.311  12.145  0.4550 -0.2797 -0.0986
 8727TIP3    H147672   0.059   2.392  12.102 -0.4680 -0.1931  0.6181
 8727TIP3    H247673   0.130   2.261  12.076 -0.7292 -0.0245 -1.0661
 8728TIP3   OH247674   6.392   0.038  12.239 -0.1852 -0.2309  0.0372
 8728TIP3    H147675   6.444   0.036  12.319  0.7953  1.6069 -0.5125
 8728TIP3    H247676   6.307   0.074  12.267  0.1768  0.4760  0.2488
 8729TIP3   OH247677   3.452   2.115  17.114  0.1606 -0.8358  0.1488
 8729TIP3    H147678   3.521   2.175  17.086 -0.4626 -0.8320 -1.5332
 8729TIP3    H247679   3.489   2.028  17.099 -0.2308 -0.8346 -0.9664
 8730TIP3   OH247680   6.384   3.746  15.060  0.0127 -0.0377 -0.2691
 8730TIP3    H147681   6.345   3.661  15.083 -0.3845  0.4394  0.8709
 8730TIP3    H247682   6.341   3.809  15.118  0.4203  0.9288 -0.9916
 8731TIP3   OH247683   2.929   0.233   1.027  0.2621 -0.6509  0.0811
 8731TIP3    H147684   2.958   0.189   1.107  2.0301 -1.1954 -0.7973
 8731TIP3    H247685   2.988   0.200   0.959 -1.3118 -0.3608 -1.5038
 8732TIP3   OH247686   2.149   4.724   1.888  0.1219 -0.6978 -0.6684
 8732TIP3    H147687   2.103   4.775   1.823 -1.1979 -0.0728  0.6867
 8732TIP3    H247688   2.193   4.655   1.838  0.5582  0.7330 -2.3509
 8733TIP3   OH247689   0.443   6.588  13.751 -0.3798 -0.8841  0.2446
 8733TIP3    H147690   0.377   6.631  13.805 -0.5632  0.2892 -0.8665
 8733TIP3    H247691   0.483   6.523  13.809 -0.1559  0.7298  1.9833
 8734TIP3   OH247692   4.603   1.681  16.265 -0.2906 -0.3564 -0.4249
 8734TIP3    H147693   4.626   1.629  16.188  0.2073 -0.7759 -0.0047
 8734TIP3    H247694   4.577   1.766  16.230 -1.0056 -0.8533 -1.1151
 8735TIP3   OH247695   1.676   1.848  11.155  1.0047 -0.2970 -0.0290
 8735TIP3    H147696   1.708   1.792  11.226  0.1034 -0.2857  0.3979
 8735TIP3    H247697   1.644   1.927  11.199  3.1463  1.0339 -0.6885
 8736TIP3   OH247698   5.495   0.569  13.389 -0.1076  0.4421 -0.4262
 8736TIP3    H147699   5.556   0.576  13.316 -0.1921 -0.1151 -0.5586
 8736TIP3    H247700   5.498   0.654  13.432  1.5237  0.1212  0.1756
 8737TIP3   OH247701   0.039   0.539   3.820  0.1176  0.4780 -0.2258
 8737TIP3    H147702   0.076   0.498   3.898 -1.0711 -1.2600 -0.5033
 8737TIP3    H247703  -0.009   0.615   3.853 -1.0364 -0.6790  0.8973
 8738TIP3   OH247704   6.082   5.931  15.705  0.0687  0.1083  0.3253
 8738TIP3    H147705   6.125   5.849  15.682  1.6907  0.4305  1.9451
 8738TIP3    H247706   6.133   5.965  15.779 -0.8302  2.3546 -0.0059
 8739TIP3   OH247707   4.945   1.511  15.319  0.5046  0.2313  0.8216
 8739TIP3    H147708   4.980   1.518  15.230  1.1703 -0.4943  1.0138
 8739TIP3    H247709   4.858   1.549  15.314 -0.2447 -1.5496 -0.5932
 8740TIP3   OH247710   2.366   5.828  16.039  0.4919 -0.4705  0.0303
 8740TIP3    H147711   2.341   5.918  16.018  0.6293 -0.5417 -0.4486
 8740TIP3    H247712   2.299   5.774  15.996 -1.8018 -0.5468  3.3013
 8741TIP3   OH247713   6.554   2.665   1.956  0.4362 -0.3026 -0.7843
 8741TIP3    H147714   6.498   2.588   1.953  0.7032 -0.4853 -1.1858
 8741TIP3    H247715   6.635   2.638   1.912  1.0847 -0.2387  0.3438
 8742TIP3   OH247716   2.653   6.409  14.619  0.3399  0.5371 -0.1742
 8742TIP3    H147717   2.648   6.497  14.657  0.3386  0.3007  0.3831
 8742TIP3    H247718   2.684   6.354  14.691 -2.4203 -0.4535  0.3870
 8743TIP3   OH247719   4.211   4.608   2.429  0.4121  0.4413 -0.3851
 8743TIP3    H147720   4.239   4.699   2.415 -1.8116  0.9337 -2.1084
 8743TIP3    H247721   4.137   4.614   2.490  0.3934 -0.2552 -0.3298
 8744TIP3   OH247722   3.693   2.280   1.952 -0.0172  0.1473 -0.2513
 8744TIP3    H147723   3.629   2.292   1.881  0.8637  0.0101 -1.0971
 8744TIP3    H247724   3.727   2.192   1.938  1.0627  0.5754 -0.4257
 8745TIP3   OH247725   4.446   1.316  15.414  0.2961 -0.2243  0.1722
 8745TIP3    H147726   4.498   1.377  15.361  0.0804  1.1973  1.5173
 8745TIP3    H247727   4.355   1.339  15.394  0.1244 -2.0848 -1.4730
 8746TIP3   OH247728   3.683   0.258   0.283 -0.1460  0.1997 -0.9029
 8746TIP3    H147729   3.589   0.273   0.269 -0.3487  2.3733  1.9806
 8746TIP3    H247730   3.692   0.162   0.282 -2.5863 -0.1044 -0.3456
 8747TIP3   OH247731   5.476   5.607  15.028 -0.2262  0.0592 -0.6301
 8747TIP3    H147732   5.412   5.676  15.044 -1.0863 -0.8334 -0.0709
 8747TIP3    H247733   5.462   5.581  14.937 -1.0051 -0.4578 -0.3703
 8748TIP3   OH247734   6.763   6.469   4.332 -0.2781  0.2256 -0.3792
 8748TIP3    H147735   6.815   6.521   4.271 -0.1628  0.7233  0.1378
 8748TIP3    H247736   6.815   6.468   4.412 -0.5324 -0.2412 -0.2210
 8749TIP3   OH247737   3.210   1.702  14.951 -0.0981  0.2070  0.1172
 8749TIP3    H147738   3.174   1.752  15.024  0.1197 -0.6712  0.8362
 8749TIP3    H247739   3.162   1.620  14.952 -0.5112  0.4204 -1.1082
 8750TIP3   OH247740   3.291   3.514   2.940 -0.2342  0.7606 -0.2386
 8750TIP3    H147741   3.212   3.552   2.902 -2.3549 -2.1469  0.8980
 8750TIP3    H247742   3.297   3.552   3.028 -1.0408  0.2020  0.0689
 8751TIP3   OH247743   6.790   4.827   2.095  0.6309 -0.2840  0.2378
 8751TIP3    H147744   6.863   4.885   2.116  0.9223 -0.5480 -0.0287
 8751TIP3    H247745   6.832   4.748   2.062  0.2541 -0.8642  1.1229
 8752TIP3   OH247746   4.620   2.120  16.310 -0.3039  0.1827  0.1261
 8752TIP3    H147747   4.532   2.129  16.348  0.2275  0.2506  1.3789
 8752TIP3    H247748   4.605   2.119  16.215 -1.6226  0.5459  0.3117
 8753TIP3   OH247749   4.531   3.731   0.213  1.2833 -0.2659 -0.0857
 8753TIP3    H147750   4.447   3.716   0.170  1.0772 -1.9729  0.7991
 8753TIP3    H247751   4.569   3.643   0.221  2.8813  0.4185  0.0707
 8754TIP3   OH247752   3.685   4.144  11.567  0.2873 -0.5959 -0.0222
 8754TIP3    H147753   3.658   4.066  11.518 -0.8798 -1.5946  2.0747
 8754TIP3    H247754   3.768   4.170  11.526  1.0767 -3.3450 -0.3962
 8755TIP3   OH247755   4.028   5.166   0.210  0.2962 -0.2858 -0.2462
 8755TIP3    H147756   3.945   5.210   0.230  0.1819 -1.1384  1.3326
 8755TIP3    H247757   4.024   5.084   0.260  1.6089 -0.8699 -1.0606
 8756TIP3   OH247758   5.172   0.396   0.762  0.5880  0.0295  0.3532
 8756TIP3    H147759   5.200   0.364   0.847  0.1444  1.5436  1.1042
 8756TIP3    H247760   5.228   0.351   0.699  2.1634  0.2203  1.5725
 8757TIP3   OH247761   0.474   0.511   3.292 -0.9233  0.1023 -0.1396
 8757TIP3    H147762   0.527   0.537   3.367 -2.9195  0.8187  1.1096
 8757TIP3    H247763   0.411   0.448   3.327 -0.1597 -1.7133 -1.8401
 8758TIP3   OH247764   1.516   5.129  16.818  0.0977 -0.3573  0.0976
 8758TIP3    H147765   1.546   5.218  16.801  0.9303 -0.9642 -1.9090
 8758TIP3    H247766   1.595   5.081  16.844 -0.1792 -0.7309  0.2691
 8759TIP3   OH247767   1.792   1.799   2.060 -0.4291  0.1392 -0.2687
 8759TIP3    H147768   1.762   1.815   1.970 -1.1656 -0.1186 -0.0726
 8759TIP3    H247769   1.875   1.846   2.066 -0.9462  1.1278 -0.7197
 8760TIP3   OH247770   3.843   5.953   5.516  0.1240 -0.1828 -0.3113
 8760TIP3    H147771   3.818   5.867   5.549  0.9833 -0.4010 -0.2199
 8760TIP3    H247772   3.786   6.014   5.563  1.2783 -0.4840  1.5704
 8761TIP3   OH247773   3.191   5.640   0.503 -0.0280 -0.3089  0.3481
 8761TIP3    H147774   3.226   5.693   0.574  0.6545 -0.8851  0.4487
 8761TIP3    H247775   3.203   5.550   0.531  0.4648 -0.5516 -0.5823
 8762TIP3   OH247776   3.168   2.474   1.242 -0.4518  0.1447  0.2860
 8762TIP3    H147777   3.212   2.500   1.162 -1.1973  0.8293  0.0871
 8762TIP3    H247778   3.075   2.487   1.224 -0.7625 -1.4247  0.6391
 8763TIP3   OH247779   3.687   2.013  11.480  0.1378 -0.5309 -0.3487
 8763TIP3    H147780   3.680   1.919  11.496  2.2580 -0.7429 -0.4540
 8763TIP3    H247781   3.673   2.053  11.566  0.4722 -1.0086 -0.0703
 8764TIP3   OH247782   4.791   6.242  13.933 -0.1100  0.3065  0.1851
 8764TIP3    H147783   4.705   6.279  13.952  0.3726  2.4387 -1.4278
 8764TIP3    H247784   4.852   6.294  13.986  0.6096  2.2858 -2.3654
 8765TIP3   OH247785   6.376   4.405   5.288 -0.3879 -0.3162  0.1211
 8765TIP3    H147786   6.323   4.328   5.310 -1.2813 -0.3322 -1.8522
 8765TIP3    H247787   6.327   4.448   5.218  1.3861  0.6183 -0.6020
 8766TIP3   OH247788   3.939   6.313   4.145 -0.0364  0.3223  0.2222
 8766TIP3    H147789   3.851   6.299   4.180 -0.6166 -0.4923 -1.4603
 8766TIP3    H247790   3.925   6.334   4.052  1.5555 -0.1186 -0.1445
 8767TIP3   OH247791   0.016   5.861   4.930 -0.3934 -0.4165 -0.0490
 8767TIP3    H147792   0.109   5.869   4.913  0.6941 -0.1036  4.7569
 8767TIP3    H247793  -0.010   5.781   4.883  2.1895 -0.4552 -1.5847
 8768TIP3   OH247794   1.910   1.087   5.581 -0.3127  0.2964 -0.2625
 8768TIP3    H147795   1.879   1.161   5.634 -1.2162 -0.6671  0.5982
 8768TIP3    H247796   1.999   1.071   5.613 -1.2506 -1.0422  1.9076
 8769TIP3   OH247797   4.080   6.656   3.039 -0.0401 -0.1380 -0.7572
 8769TIP3    H147798   4.068   6.561   3.043 -1.4072  0.0343  0.1362
 8769TIP3    H247799   3.998   6.692   3.072  0.6648  1.3553 -0.5215
 8770TIP3   OH247800   4.623   4.940   3.659 -0.5659  0.6956 -0.1720
 8770TIP3    H147801   4.680   4.969   3.730 -0.5573  0.3244 -0.0288
 8770TIP3    H247802   4.580   4.861   3.692  0.5122 -0.3181 -1.0951
 8771TIP3   OH247803   5.522   6.580  13.536  0.2327  0.7879 -0.0005
 8771TIP3    H147804   5.474   6.563  13.455 -0.1781 -1.2476  0.6315
 8771TIP3    H247805   5.457   6.572  13.606  1.0423  0.1922  0.7126
 8772TIP3   OH247806   5.699   2.883  15.809 -0.2388  0.0466 -0.1369
 8772TIP3    H147807   5.660   2.812  15.861  1.0287  1.0446  2.3523
 8772TIP3    H247808   5.787   2.851  15.788  0.4873  0.9875  1.3556
 8773TIP3   OH247809   5.394   1.705   2.644  0.2242  0.7902  0.0449
 8773TIP3    H147810   5.322   1.687   2.705  1.0685 -3.4947  0.0730
 8773TIP3    H247811   5.352   1.704   2.558  0.0568 -1.2783  0.0924
 8774TIP3   OH247812   5.376   2.606   1.485  0.0138  0.3513  0.0421
 8774TIP3    H147813   5.286   2.633   1.468 -0.1815  0.2726  0.9003
 8774TIP3    H247814   5.411   2.676   1.541  0.7128  0.7395 -0.8622
 8775TIP3   OH247815   2.595   1.707   1.435 -0.3069  0.1769  0.3839
 8775TIP3    H147816   2.606   1.774   1.369  1.7689 -0.3846  0.0852
 8775TIP3    H247817   2.648   1.737   1.510 -1.4605  0.1190  1.2489
 8776TIP3   OH247818   5.977   0.183  12.288  0.3361 -0.0038  0.2310
 8776TIP3    H147819   5.993   0.246  12.218  0.3398  0.2522  0.4657
 8776TIP3    H247820   5.936   0.233  12.358 -0.1725 -0.3681  0.2050
 8777TIP3   OH247821   5.847   3.829   3.835 -0.0557  0.4053  0.1216
 8777TIP3    H147822   5.917   3.783   3.788 -1.3233  0.3976 -1.8754
 8777TIP3    H247823   5.775   3.766   3.837 -0.5363  0.9662  0.7528
 8778TIP3   OH247824   2.330   0.061   1.043 -0.2370  0.4649 -0.0601
 8778TIP3    H147825   2.345   0.147   1.003 -0.9237 -0.6062 -2.8527
 8778TIP3    H247826   2.296   0.007   0.971  1.9584 -2.6808  1.0679
 8779TIP3   OH247827   0.019   0.086   1.388 -0.0175 -0.0033 -0.7222
 8779TIP3    H147828   0.003   0.168   1.342 -0.3240  1.0992  1.1998
 8779TIP3    H247829  -0.064   0.067   1.432  0.2307 -1.0393 -0.6797
 8780TIP3   OH247830   1.690   4.778   1.264 -0.3591  0.2064 -0.3905
 8780TIP3    H147831   1.663   4.806   1.176 -0.8849 -0.5481 -0.4816
 8780TIP3    H247832   1.762   4.837   1.287 -0.8949  1.0765 -0.9035
 8781TIP3   OH247833   2.660   0.480   5.386  0.5084 -0.0338 -0.3125
 8781TIP3    H147834   2.720   0.427   5.334  1.5796  0.7973  0.0242
 8781TIP3    H247835   2.710   0.559   5.407 -0.9395  0.9963 -0.5764
 8782TIP3   OH247836   6.039   0.289   1.260 -0.1039  0.5899  0.4848
 8782TIP3    H147837   6.125   0.259   1.230  0.2204 -1.3729  3.0067
 8782TIP3    H247838   6.057   0.373   1.303  0.4079  0.5914  0.2754
 8783TIP3   OH247839   1.608   0.382   0.794 -0.7309 -0.4740  0.3894
 8783TIP3    H147840   1.556   0.333   0.858  0.0234  0.7531  2.0167
 8783TIP3    H247841   1.586   0.474   0.811 -0.1605 -0.0853 -0.8436
 8784TIP3   OH247842   6.407   0.243   4.713 -0.4448 -0.0551 -0.1168
 8784TIP3    H147843   6.411   0.174   4.648 -1.0517  1.7942 -2.2287
 8784TIP3    H247844   6.315   0.247   4.740 -0.3577 -0.2232  0.2213
 8785TIP3   OH247845   6.178   4.758   3.541 -0.2826 -1.1584 -0.0818
 8785TIP3    H147846   6.210   4.802   3.462 -1.0522  1.8500  1.1153
 8785TIP3    H247847   6.256   4.738   3.591  0.0980 -0.9640 -0.5866
 8786TIP3   OH247848   6.585   5.470   4.785 -0.4697 -0.3115 -0.3736
 8786TIP3    H147849   6.529   5.392   4.794 -1.2153  0.1358 -1.0647
 8786TIP3    H247850   6.574   5.497   4.694 -0.5789  0.8773 -0.0162
 8787TIP3   OH247851   6.320   6.714   4.741  0.1908  0.5326  0.2931
 8787TIP3    H147852   6.369   6.703   4.659  2.5255  2.9167  1.2334
 8787TIP3    H247853   6.380   6.684   4.809 -0.9899  0.3628  1.2922
 8788TIP3   OH247854   4.096   4.948   3.184 -0.4140 -0.0570 -0.3452
 8788TIP3    H147855   4.161   4.950   3.254 -1.3242 -1.5500  0.5993
 8788TIP3    H247856   4.012   4.962   3.229 -0.8581  0.9019 -1.4164
 8789TIP3   OH247857   2.138   4.499  16.544 -0.6612 -0.2221  0.2538
 8789TIP3    H147858   2.120   4.538  16.629 -1.6191 -2.9103  1.4033
 8789TIP3    H247859   2.052   4.488  16.504 -0.3078 -0.0203 -0.5794
 8790TIP3   OH247860   6.027   2.610   3.127 -0.2689  0.1306 -0.3099
 8790TIP3    H147861   5.954   2.646   3.077 -0.4752  0.9634  0.5727
 8790TIP3    H247862   5.995   2.606   3.217  1.0486  1.3211  0.2395
 8791TIP3   OH247863   1.132   0.384   3.797 -0.2030  0.0041  0.3214
 8791TIP3    H147864   1.146   0.479   3.793 -0.4567  0.0851  1.1891
 8791TIP3    H247865   1.133   0.363   3.890  0.7345 -0.9946  0.1018
 8792TIP3   OH247866   3.225   4.352   4.166  0.2751  0.3469  0.0739
 8792TIP3    H147867   3.295   4.400   4.210 -0.6721  0.2313  1.7786
 8792TIP3    H247868   3.185   4.417   4.107  0.2191  1.1497  0.9592
 8793TIP3   OH247869   0.313   1.431   2.052 -0.6794 -0.3369  0.1198
 8793TIP3    H147870   0.307   1.355   2.110  1.6394 -1.8896 -1.4814
 8793TIP3    H247871   0.404   1.460   2.059 -1.4928  2.4036  0.7063
 8794TIP3   OH247872   2.611   5.252   4.561  0.4170 -0.0607  0.3486
 8794TIP3    H147873   2.653   5.177   4.602  0.3317 -0.1688  0.2411
 8794TIP3    H247874   2.539   5.214   4.510  0.4386  0.0835  0.2091
 8795TIP3   OH247875   1.050   6.090  11.559 -0.0862  0.5151 -0.1357
 8795TIP3    H147876   1.101   6.018  11.597 -3.9438 -2.4991 -0.0256
 8795TIP3    H247877   1.075   6.166  11.610  0.9807 -1.6748  2.9275
 8796TIP3   OH247878   1.245   6.307  12.183  0.0808 -0.2335  0.2541
 8796TIP3    H147879   1.339   6.324  12.182  0.4503 -2.1124 -0.1718
 8796TIP3    H247880   1.226   6.273  12.095 -0.8180 -0.7921  0.6526
 8797TIP3   OH247881   2.469   5.546   3.864  0.2282  0.7739 -0.7115
 8797TIP3    H147882   2.561   5.551   3.840 -0.1871  1.1359 -2.3473
 8797TIP3    H247883   2.442   5.458   3.838 -0.1784  1.0928 -1.3912
 8798TIP3   OH247884   6.115   0.984   4.771 -0.4159 -0.2676  0.2977
 8798TIP3    H147885   6.174   1.010   4.701  0.7458 -2.1096  0.5286
 8798TIP3    H247886   6.134   1.045   4.842  1.4109 -0.9292  0.4365
 8799TIP3   OH247887   5.603   0.012  13.467 -0.1912  0.0931  0.2232
 8799TIP3    H147888   5.633   0.035  13.555 -0.5818  0.2640  0.3125
 8799TIP3    H247889   5.554  -0.069  13.480 -0.1350  0.0452  0.1394
 8800TIP3   OH247890   6.228   6.265   1.251  0.0468 -0.2141  0.0301
 8800TIP3    H147891   6.204   6.253   1.160  0.0330  1.0816 -0.1457
 8800TIP3    H247892   6.243   6.176   1.284  1.9783 -0.6143 -1.7555
 8801TIP3   OH247893   5.228   5.074   5.859  0.3341 -0.4563 -0.4155
 8801TIP3    H147894   5.321   5.067   5.840  0.2238 -2.3985 -0.4410
 8801TIP3    H247895   5.205   4.990   5.899 -1.0031  0.6927  1.4350
 8802TIP3   OH247896   1.741   4.976  16.957  0.0222  0.9311 -0.0892
 8802TIP3    H147897   1.752   4.959  17.050 -1.9639  0.4611  0.1052
 8802TIP3    H247898   1.822   5.020  16.931  1.1598 -0.0613  1.5588
 8803TIP3   OH247899   6.815   5.641   4.792 -0.2355 -0.3202 -0.0996
 8803TIP3    H147900   6.740   5.590   4.760 -0.8410 -0.1949  1.0826
 8803TIP3    H247901   6.838   5.697   4.718 -1.5975 -0.0296 -0.3402
 8804TIP3   OH247902   3.882   4.504   1.439  0.8083  0.6156 -0.5210
 8804TIP3    H147903   3.830   4.433   1.400  1.8515 -0.1206 -0.6366
 8804TIP3    H247904   3.934   4.461   1.507  2.9682  0.8175 -1.9232
 8805TIP3   OH247905   2.838   0.984   2.341  0.1265  0.3885  0.0023
 8805TIP3    H147906   2.756   1.025   2.314 -0.5608 -0.8678  0.1019
 8805TIP3    H247907   2.829   0.973   2.436  0.1206 -0.3410 -0.0761
 8806TIP3   OH247908   3.843   6.562   0.218 -0.3653  0.5222 -0.1410
 8806TIP3    H147909   3.769   6.528   0.269 -1.1133 -0.7804 -1.9831
 8806TIP3    H247910   3.830   6.657   0.219 -1.6192  0.3734  0.2588
 8807TIP3   OH247911   3.986   4.763   0.775  0.0462  0.3065 -0.7011
 8807TIP3    H147912   3.904   4.722   0.747  0.1906  0.6399 -1.6578
 8807TIP3    H247913   4.048   4.690   0.779 -0.6063 -0.2181  1.5015
 8808TIP3   OH247914   1.854   1.880  13.524  0.5393 -0.2180  0.1252
 8808TIP3    H147915   1.881   1.882  13.615  0.2941  1.1901  0.1866
 8808TIP3    H247916   1.776   1.823  13.524 -0.2106  0.7556  1.0286
 8809TIP3   OH247917   5.277   3.850  15.524  0.0221  0.2251  0.1646
 8809TIP3    H147918   5.254   3.939  15.550 -2.4140 -0.5175  0.7989
 8809TIP3    H247919   5.264   3.848  15.430  0.1076  0.5328  0.1452
 8810TIP3   OH247920   1.690   1.548   1.960 -0.4342 -0.1577 -0.3726
 8810TIP3    H147921   1.615   1.557   2.019  0.6716  0.0397  1.0675
 8810TIP3    H247922   1.757   1.607   1.996  0.3990 -0.2616 -1.6564
 8811TIP3   OH247923   4.854   4.342  10.843 -0.3168  1.0377  0.0903
 8811TIP3    H147924   4.785   4.376  10.787 -0.7650 -0.9864 -0.6585
 8811TIP3    H247925   4.852   4.247  10.830  2.8466  0.8964 -0.2682
 8812TIP3   OH247926   6.324   6.285  14.362 -0.3276 -0.0158  0.2199
 8812TIP3    H147927   6.288   6.232  14.433  0.7003 -0.1423  0.6593
 8812TIP3    H247928   6.257   6.351  14.345 -1.8594 -1.7116 -0.6842
 8813TIP3   OH247929   6.701   6.580  17.133 -0.4990 -0.6557 -0.1839
 8813TIP3    H147930   6.736   6.602  17.219  2.2388 -1.1588 -1.0837
 8813TIP3    H247931   6.680   6.486  17.139 -1.9302 -0.3197  0.4040
 8814TIP3   OH247932   3.199   4.123   1.813 -0.2186 -0.6332 -0.2555
 8814TIP3    H147933   3.212   4.216   1.832 -0.7524 -0.2683 -1.5505
 8814TIP3    H247934   3.259   4.078   1.872 -0.2104  0.5096  0.6466
 8815TIP3   OH247935   2.967   1.483   2.052 -0.6984 -0.2139  0.2877
 8815TIP3    H147936   2.917   1.423   2.108  0.0404 -1.4065 -0.2720
 8815TIP3    H247937   2.936   1.464   1.963 -0.0116 -0.2118  0.0431
 8816TIP3   OH247938   5.170   1.036  15.096 -0.2667 -0.6196  0.2810
 8816TIP3    H147939   5.131   1.102  15.039  1.3521 -0.0277 -0.2237
 8816TIP3    H247940   5.244   1.002  15.045  1.1108 -0.2065  1.9180
 8817TIP3   OH247941   4.851   0.942   5.828  0.4303  0.1062 -0.3844
 8817TIP3    H147942   4.822   1.002   5.897 -0.1264 -0.8002  0.1951
 8817TIP3    H247943   4.871   0.999   5.753  1.9447  1.1947  0.7992
 8818TIP3   OH247944   1.313   5.270  11.725  0.3040  0.5023  0.8630
 8818TIP3    H147945   1.231   5.312  11.749  0.3106  1.8271 -1.1596
 8818TIP3    H247946   1.290   5.178  11.712 -0.6699  0.6920  1.1674
 8819TIP3   OH247947   1.412   2.984   5.098  0.0713 -0.1131  0.2133
 8819TIP3    H147948   1.407   2.966   5.004  0.9976  0.0387  0.1207
 8819TIP3    H247949   1.383   3.074   5.108 -2.7762 -0.9739  0.4459
 8820TIP3   OH247950   3.841   6.825  11.163 -0.8532  0.0869  0.0388
 8820TIP3    H147951   3.834   6.840  11.258  0.0538  2.4302 -0.1843
 8820TIP3    H247952   3.922   6.868  11.138 -0.8410 -0.9052 -1.7628
 8821TIP3   OH247953   6.241   5.979   3.955  0.1938 -0.2960 -0.3564
 8821TIP3    H147954   6.160   6.016   3.921  0.4233  0.8796  0.3375
 8821TIP3    H247955   6.223   5.960   4.047  1.0713  1.2243  0.1739
 8822TIP3   OH247956   3.135   1.921  14.685 -0.2047  0.3874  0.2228
 8822TIP3    H147957   3.060   1.896  14.739  0.0519 -0.8975  0.0188
 8822TIP3    H247958   3.105   1.999  14.638 -0.9496  0.6602  1.0985
 8823TIP3   OH247959   6.029   0.546   4.122 -0.0738 -0.0145 -0.2272
 8823TIP3    H147960   5.955   0.597   4.155  1.8990  1.5959  2.0028
 8823TIP3    H247961   6.053   0.590   4.040 -0.7187  0.2794 -0.2684
 8824TIP3   OH247962   1.725   6.062   5.730  0.2870  0.2362 -0.3648
 8824TIP3    H147963   1.715   6.082   5.637  2.8835 -1.0413 -1.0305
 8824TIP3    H247964   1.691   5.972   5.739 -2.3886  1.2354  0.5665
 8825TIP3   OH247965   0.375   4.010  14.126 -0.0499 -0.3427 -0.3415
 8825TIP3    H147966   0.455   3.977  14.166  0.4478  0.7660 -0.3942
 8825TIP3    H247967   0.389   4.104  14.117 -1.0470 -0.2425 -1.0672
 8826TIP3   OH247968   4.250   5.770  12.536  0.1009  0.2515 -0.0134
 8826TIP3    H147969   4.253   5.866  12.539  1.2716  0.2149  0.5918
 8826TIP3    H247970   4.167   5.750  12.492 -1.0959  1.5217  1.5414
 8827TIP3   OH247971   5.327   0.757   0.369  0.0344 -0.3061 -0.0341
 8827TIP3    H147972   5.339   0.663   0.359  2.6587 -0.0051 -0.2143
 8827TIP3    H247973   5.294   0.786   0.284  1.1300 -0.8076 -0.6444
 8828TIP3   OH247974   5.197   3.182   4.828 -0.1441 -0.2683 -0.6731
 8828TIP3    H147975   5.164   3.267   4.857  0.2583 -0.4499  0.3760
 8828TIP3    H247976   5.130   3.120   4.854  0.4747 -0.5010  0.4161
 8829TIP3   OH247977   2.788   6.192   2.925 -0.6530  0.4997  0.0736
 8829TIP3    H147978   2.758   6.101   2.922 -1.3528  0.7184  0.2000
 8829TIP3    H247979   2.871   6.192   2.876 -2.5467  0.5048 -3.4880
 8830TIP3   OH247980   2.702   3.132  11.069 -0.2808 -0.4471  0.3735
 8830TIP3    H147981   2.706   3.039  11.089 -0.6522 -0.9393 -1.6500
 8830TIP3    H247982   2.787   3.152  11.029 -0.3064  0.0261  0.5482
 8831TIP3   OH247983   0.085   6.387  15.718  0.5397 -0.1088  0.2760
 8831TIP3    H147984   0.175   6.371  15.692  0.6686 -2.5431  1.9335
 8831TIP3    H247985   0.063   6.315  15.777 -1.0775  2.7383  3.4863
 8832TIP3   OH247986   3.028   1.010  14.804  0.3167 -0.6434  0.2974
 8832TIP3    H147987   2.971   1.014  14.881  1.9602 -0.7544  1.5792
 8832TIP3    H247988   3.114   0.985  14.839  1.2923  0.0433 -1.4690
 8833TIP3   OH247989   0.800   4.592  11.506 -0.7025 -0.2228  0.3105
 8833TIP3    H147990   0.811   4.539  11.585 -1.7546  0.4792  0.9570
 8833TIP3    H247991   0.721   4.557  11.465 -1.0318  0.4186  0.3945
 8834TIP3   OH247992   6.247   1.352   6.297 -0.0372  0.1049 -0.2093
 8834TIP3    H147993   6.231   1.291   6.369 -2.1050  1.1160  0.2533
 8834TIP3    H247994   6.342   1.351   6.285  0.0937 -2.4035  0.4587
 8835TIP3   OH247995   5.664   4.583   3.081 -1.1915 -0.3222 -0.5637
 8835TIP3    H147996   5.732   4.628   3.130 -0.9512 -0.6040 -0.6317
 8835TIP3    H247997   5.662   4.626   2.996 -1.7372  0.2908 -0.2513
 8836TIP3   OH247998   6.647   4.165  15.034  0.7508  0.1205  0.2350
 8836TIP3    H147999   6.590   4.094  15.064 -1.1116  1.5868  0.3331
 8836TIP3    H248000   6.591   4.242  15.033  1.6625  0.9206 -3.4964
 8837TIP3   OH248001   6.134   3.679  16.675 -0.5228 -0.4879  0.8017
 8837TIP3    H148002   6.154   3.650  16.764  2.9776 -1.1545 -0.0478
 8837TIP3    H248003   6.203   3.742  16.654 -2.0847  0.7586 -0.9972
 8838TIP3   OH248004   6.787   4.382  13.559  0.3465  0.5451 -0.2329
 8838TIP3    H148005   6.790   4.421  13.471  1.5964 -1.1120 -0.9797
 8838TIP3    H248006   6.874   4.344  13.571  0.3534  1.1596  1.9516
 8839TIP3   OH248007   1.072   2.557   5.938  0.1714 -0.1188 -0.7675
 8839TIP3    H148008   1.125   2.557   5.858 -0.8029 -0.1138 -1.4238
 8839TIP3    H248009   1.109   2.628   5.991 -0.3161  1.1094 -2.0081
 8840TIP3   OH248010   6.433   3.777  14.777 -0.4997  0.1427  0.2636
 8840TIP3    H148011   6.401   3.739  14.859 -0.8558 -0.0714  0.0318
 8840TIP3    H248012   6.357   3.823  14.741  0.0348  1.4108  0.7260
 8841TIP3   OH248013   5.182   5.471   1.111 -0.1848  0.2786  0.1471
 8841TIP3    H148014   5.189   5.558   1.151 -0.3092  1.1644 -1.6167
 8841TIP3    H248015   5.233   5.414   1.168  1.8258  1.9565  0.1748
 8842TIP3   OH248016   1.752   2.284  16.593 -0.1353  0.0308  0.5140
 8842TIP3    H148017   1.726   2.235  16.671 -0.9925  0.2078  0.3411
 8842TIP3    H248018   1.671   2.323  16.560  0.5363  1.7075  0.7411
 8843TIP3   OH248019   0.438   4.256   2.693  0.0934 -0.2265  1.2203
 8843TIP3    H148020   0.528   4.245   2.724  0.5134  0.3648  0.2255
 8843TIP3    H248021   0.411   4.342   2.726  0.1503 -0.0813  0.8867
 8844TIP3   OH248022   2.872   1.875  15.086 -0.2975 -0.2654  0.0841
 8844TIP3    H148023   2.896   1.899  14.997 -1.4266 -2.2137 -0.8140
 8844TIP3    H248024   2.875   1.957  15.135  0.3422  0.8439 -1.7334
 8845TIP3   OH248025   2.788   3.558  14.291  0.0526  0.0130 -0.0460
 8845TIP3    H148026   2.857   3.611  14.252  0.0135  1.3652  1.5977
 8845TIP3    H248027   2.722   3.622  14.319 -0.6214 -1.0231  0.8167
 8846TIP3   OH248028   4.133   2.400  11.960  0.6481  0.6194  0.0952
 8846TIP3    H148029   4.212   2.411  11.907  0.2117  2.4266 -0.2406
 8846TIP3    H248030   4.156   2.434  12.046  0.2900  1.0137  0.0402
 8847TIP3   OH248031   2.732   5.830  15.832 -0.2870  0.2181 -0.0770
 8847TIP3    H148032   2.697   5.917  15.814 -1.4283 -0.0395  0.8054
 8847TIP3    H248033   2.670   5.771  15.790  1.7367 -0.1763 -2.7914
 8848TIP3   OH248034   4.454   4.358  13.985 -0.1160 -0.1538 -0.1370
 8848TIP3    H148035   4.406   4.440  13.978  0.3828  0.2099  0.5409
 8848TIP3    H248036   4.545   4.382  13.968 -0.0582 -0.7058 -0.6756
 8849TIP3   OH248037   4.489   2.915   0.513  0.2056 -0.4314  0.0383
 8849TIP3    H148038   4.499   2.867   0.431  1.1612 -1.3568  0.6660
 8849TIP3    H248039   4.577   2.946   0.533 -0.0009 -0.2779  0.7403
 8850TIP3   OH248040   4.250   1.446   5.735  0.0635  0.1868 -0.6121
 8850TIP3    H148041   4.266   1.506   5.808  1.3229 -1.1510  0.2764
 8850TIP3    H248042   4.155   1.438   5.731 -0.0710  1.2038  0.1081
 8851TIP3   OH248043   4.396   1.737  15.935  0.0962  0.3446  0.0621
 8851TIP3    H148044   4.483   1.742  15.894  1.1006 -0.3634  1.9664
 8851TIP3    H248045   4.369   1.646  15.921  0.6013 -0.0020  1.1658
 8852TIP3   OH248046   5.427   1.901   4.733 -0.6700  0.2637  0.5865
 8852TIP3    H148047   5.383   1.817   4.743 -1.1537  0.6479  2.0257
 8852TIP3    H248048   5.362   1.965   4.762  0.6777  0.8720  2.4657
 8853TIP3   OH248049   5.039   1.767  14.703 -0.1768 -0.5838  0.1141
 8853TIP3    H148050   4.997   1.741  14.621 -0.0638 -0.8161  0.1260
 8853TIP3    H248051   5.121   1.717  14.703  1.1824  1.5079 -0.9729
 8854TIP3   OH248052   1.430   5.058  11.153  0.2110  0.3419 -0.9693
 8854TIP3    H148053   1.501   5.051  11.090 -0.1616  1.1336 -1.4907
 8854TIP3    H248054   1.437   4.978  11.206  0.0086 -0.7805 -2.5572
 8855TIP3   OH248055   1.422   6.481  11.168 -0.7710  0.4350 -0.0645
 8855TIP3    H148056   1.463   6.567  11.155 -1.1731  0.6798  0.2723
 8855TIP3    H248057   1.490   6.418  11.141 -0.4354  0.8515 -0.2087
 8856TIP3   OH248058   2.031   6.257   3.474  0.3839 -0.5603  0.0459
 8856TIP3    H148059   2.089   6.271   3.548  0.2972  0.7190 -0.1071
 8856TIP3    H248060   1.946   6.291   3.503 -0.0845 -1.6463 -0.0297
 8857TIP3   OH248061   1.470   6.797   1.501  0.1684  0.2672 -0.0621
 8857TIP3    H148062   1.399   6.773   1.441  1.0795  0.8251 -1.4233
 8857TIP3    H248063   1.521   6.717   1.512 -0.4568 -0.0414  0.6276
 8858TIP3   OH248064   1.516   1.937   5.038 -0.4275 -0.4446  0.1358
 8858TIP3    H148065   1.490   1.980   5.120 -2.4770 -0.4133 -0.4674
 8858TIP3    H248066   1.476   1.991   4.969  0.7203 -0.8236 -0.8572
 8859TIP3   OH248067   1.688   5.147  14.388  0.0289  0.2617  0.5889
 8859TIP3    H148068   1.644   5.091  14.452 -0.8614 -0.1748 -0.3932
 8859TIP3    H248069   1.741   5.087  14.336 -1.4153  0.1948 -0.8787
 8860TIP3   OH248070   0.347   4.295  15.097  0.2208 -0.1457 -0.1771
 8860TIP3    H148071   0.311   4.216  15.137 -1.0566 -0.4390 -1.8374
 8860TIP3    H248072   0.420   4.319  15.155  0.3862 -2.2842  0.5872
 8861TIP3   OH248073   1.217   1.064   5.825 -0.7036  0.0669  0.2658
 8861TIP3    H148074   1.203   1.055   5.731 -2.1623 -0.1899  0.4736
 8861TIP3    H248075   1.261   0.983   5.851  0.8708  0.6918 -0.3774
 8862TIP3   OH248076   0.335   3.978  11.315  0.2866 -0.2459 -0.1181
 8862TIP3    H148077   0.288   3.906  11.272  0.2955  0.1823 -0.8505
 8862TIP3    H248078   0.289   3.989  11.398 -1.3319  0.5579 -1.0586
 8863TIP3   OH248079   1.938   2.653   4.732  0.1898  0.1519 -0.2045
 8863TIP3    H148080   1.901   2.587   4.791 -0.1752  0.8376  0.3376
 8863TIP3    H248081   1.862   2.703   4.702  0.6225  1.3057  0.5876
 8864TIP3   OH248082   6.056   1.387  15.644 -0.1105  0.3032 -0.6892
 8864TIP3    H148083   6.022   1.353  15.727  0.8988 -0.4950 -0.5717
 8864TIP3    H248084   6.048   1.313  15.583  0.4615  0.4233 -0.9136
 8865TIP3   OH248085   4.658   3.929   4.085  0.1080 -0.8383  0.6401
 8865TIP3    H148086   4.655   3.870   4.010 -0.5130 -1.2651  0.9879
 8865TIP3    H248087   4.701   3.877   4.154  1.4393 -0.1690  0.3538
 8866TIP3   OH248088   4.498   2.762   5.096 -0.0616  0.4131 -0.2206
 8866TIP3    H148089   4.448   2.694   5.050  1.5267 -2.4239  1.9188
 8866TIP3    H248090   4.570   2.714   5.137  1.0368  3.4250  1.6226
 8867TIP3   OH248091   4.087   2.488   2.265  0.0686  0.3990  0.2657
 8867TIP3    H148092   4.036   2.567   2.278  0.2241  0.2435  1.9881
 8867TIP3    H248093   4.148   2.485   2.339 -0.1252 -1.4673  0.4130
 8868TIP3   OH248094   6.410   3.192   5.379 -0.4861  0.0468  0.3794
 8868TIP3    H148095   6.494   3.229   5.353  0.1147 -1.2854  0.3496
 8868TIP3    H248096   6.401   3.112   5.327 -1.3834 -0.2697  0.9871
 8869TIP3   OH248097   5.307   3.588   4.996 -0.1730 -0.3161 -0.6790
 8869TIP3    H148098   5.342   3.560   4.912  1.0871 -1.4266  0.1828
 8869TIP3    H248099   5.212   3.583   4.986 -0.0467 -0.1134 -2.1256
 8870TIP3   OH248100   5.762   3.365  15.723 -0.3137  0.0634 -0.0425
 8870TIP3    H148101   5.743   3.355  15.817 -0.0841  0.3209  0.0315
 8870TIP3    H248102   5.835   3.304  15.708  1.7441  2.2367  0.6173
 8871TIP3   OH248103   4.665   5.741   3.466 -0.6346 -0.5187  0.1640
 8871TIP3    H148104   4.668   5.826   3.424 -3.1218  0.0866  1.0358
 8871TIP3    H248105   4.684   5.679   3.396 -0.2965  0.6711 -0.8295
 8872TIP3   OH248106   1.685   4.465   3.980 -0.1322  0.2557 -0.1484
 8872TIP3    H148107   1.592   4.487   3.973  0.0118  0.8520 -0.2562
 8872TIP3    H248108   1.709   4.435   3.893 -0.1634  0.3547 -0.1917
 8873TIP3   OH248109   5.208   6.523   5.915  0.1643  0.0831 -0.1811
 8873TIP3    H148110   5.202   6.431   5.888  0.7104 -0.9109  2.7886
 8873TIP3    H248111   5.301   6.545   5.906 -0.0624  0.6380 -1.5382
 8874TIP3   OH248112   1.502   4.834  12.463 -0.2335 -0.2306  0.2519
 8874TIP3    H148113   1.459   4.760  12.419  0.7683 -0.4390 -0.4225
 8874TIP3    H248114   1.518   4.803  12.552  0.0287 -0.7793  0.0224
 8875TIP3   OH248115   3.470   6.727   2.344  0.4665  0.0492  0.2438
 8875TIP3    H148116   3.488   6.641   2.307  0.6789 -0.1404  0.7833
 8875TIP3    H248117   3.556   6.760   2.371  0.3932  0.4500  0.0008
 8876TIP3   OH248118   2.109   0.355   1.696  0.2797 -0.4496  0.6830
 8876TIP3    H148119   2.198   0.392   1.700 -0.6006  2.0313 -0.5882
 8876TIP3    H248120   2.080   0.352   1.787  1.7368 -1.6332  1.1573
 8877TIP3   OH248121   6.015   6.573   4.510  0.1866  0.0005 -0.1314
 8877TIP3    H148122   5.925   6.600   4.497  0.2416  0.9067  1.1955
 8877TIP3    H248123   6.013   6.477   4.502 -0.8036  0.0472 -0.4952
 8878TIP3   OH248124   6.108   5.965  11.107 -0.9257  0.3132  0.7615
 8878TIP3    H148125   6.154   6.003  11.032  0.0711 -1.0180  0.6682
 8878TIP3    H248126   6.147   6.007  11.183 -1.0350  0.7143  0.6010
 8879TIP3   OH248127   0.785   5.907   5.412  1.0179  0.1410  0.1130
 8879TIP3    H148128   0.813   5.977   5.470  0.0865  0.4172  0.2583
 8879TIP3    H248129   0.704   5.941   5.372  0.2844 -1.0269  0.5449
 8880TIP3   OH248130   5.800   0.036  14.186 -0.3622  0.1676 -0.4411
 8880TIP3    H148131   5.729  -0.017  14.221 -0.8643  1.3879  0.4367
 8880TIP3    H248132   5.774   0.126  14.203  1.3928  0.6434 -0.0998
 8881TIP3   OH248133   0.151   0.812  15.770  0.5945 -0.4309  0.0771
 8881TIP3    H148134   0.240   0.812  15.736  1.0789 -0.8493  1.2600
 8881TIP3    H248135   0.135   0.902  15.799  1.0996 -0.6079  0.9547
 8882TIP3   OH248136   3.142   0.869  12.028  0.0843 -0.6144  0.0515
 8882TIP3    H148137   3.112   0.911  11.947  0.8324 -0.6813 -0.2648
 8882TIP3    H248138   3.160   0.779  12.002  0.0877 -0.7010  0.3539
 8883TIP3   OH248139   1.462   0.745   3.433 -0.1785 -0.4624 -0.0924
 8883TIP3    H148140   1.379   0.715   3.471 -0.3146 -1.1277 -0.8650
 8883TIP3    H248141   1.527   0.684   3.467  0.0838  0.3390  0.8792
 8884TIP3   OH248142   5.612   5.559  11.531 -0.1194  0.0658  0.3935
 8884TIP3    H148143   5.626   5.488  11.469 -1.5626  0.7498 -0.7848
 8884TIP3    H248144   5.575   5.517  11.609 -1.3532 -0.4539 -0.4412
 8885TIP3   OH248145   5.956   2.104  16.464 -0.0413 -0.5621  0.6031
 8885TIP3    H148146   5.886   2.169  16.452 -0.9050 -1.7126 -0.9964
 8885TIP3    H248147   6.028   2.154  16.502 -0.0272  1.8026 -2.1420
 8886TIP3   OH248148   1.877   6.285   1.212  0.2761 -0.5963  0.4303
 8886TIP3    H148149   1.959   6.235   1.205  1.3049  1.0305  0.5261
 8886TIP3    H248150   1.904   6.375   1.228 -1.4827  0.3582 -1.5058
 8887TIP3   OH248151   0.823   6.723   3.631 -0.0756  0.3024 -0.0798
 8887TIP3    H148152   0.802   6.791   3.567  0.2171 -0.7414 -1.3103
 8887TIP3    H248153   0.892   6.762   3.685  0.2038  0.9296 -0.8682
 8888TIP3   OH248154   3.973   0.805   0.145  0.0137 -0.0604 -0.4088
 8888TIP3    H148155   3.965   0.737   0.212 -0.3709 -1.9091 -2.2264
 8888TIP3    H248156   3.884   0.816   0.112 -0.0997  2.0761  0.4800
 8889TIP3   OH248157   4.056   4.491   0.560  0.1303 -0.6853 -0.5335
 8889TIP3    H148158   3.997   4.563   0.542  1.5652  0.3198 -1.3762
 8889TIP3    H248159   4.039   4.427   0.490 -0.9571 -1.0712  0.0673
 8890TIP3   OH248160   3.986   3.308  10.574 -0.0499  0.0998  0.2950
 8890TIP3    H148161   3.896   3.276  10.574  0.3849 -1.2302  0.8038
 8890TIP3    H248162   4.010   3.313  10.666  0.4962  0.1263  0.1559
 8891TIP3   OH248163   3.899   6.520  12.772 -0.0318 -0.3811 -0.0067
 8891TIP3    H148164   3.806   6.543  12.768 -0.0443 -0.5312 -0.8704
 8891TIP3    H248165   3.944   6.604  12.779 -0.2742 -0.3687  2.0424
 8892TIP3   OH248166   3.436   6.315  15.698  0.3670  0.3318 -0.0120
 8892TIP3    H148167   3.507   6.323  15.762 -1.1515 -0.0180  1.7885
 8892TIP3    H248168   3.427   6.220  15.685 -0.3409  0.3326  0.4506
 8893TIP3   OH248169   6.240   2.722   1.369 -0.4299  0.1561 -0.4709
 8893TIP3    H148170   6.330   2.692   1.380 -0.9379 -1.9440 -1.5438
 8893TIP3    H248171   6.216   2.759   1.454  0.6466 -1.5423  0.6241
 8894TIP3   OH248172   0.483   5.535  16.936 -0.1922 -0.2770 -0.1957
 8894TIP3    H148173   0.557   5.572  16.888  0.1682 -1.0831 -0.2733
 8894TIP3    H248174   0.461   5.601  17.001  1.0325 -0.3179  0.2751
 8895TIP3   OH248175   6.772   6.115  11.072  0.0581 -0.3101  0.8152
 8895TIP3    H148176   6.850   6.148  11.027 -0.7052  0.5082  0.0540
 8895TIP3    H248177   6.798   6.029  11.105  1.2292 -0.1232  0.4325
 8896TIP3   OH248178   3.622   3.816   3.011  0.1567  0.1158  0.6451
 8896TIP3    H148179   3.666   3.804   3.095 -0.0765  0.6413  0.8466
 8896TIP3    H248180   3.667   3.890   2.970  1.1295 -0.9436 -0.2822
 8897TIP3   OH248181   2.658   1.940  11.239 -0.2478 -0.0138 -0.1290
 8897TIP3    H148182   2.709   1.960  11.318 -1.8569 -0.8711  1.1773
 8897TIP3    H248183   2.577   1.989  11.250 -1.1350 -1.3596 -0.4796
 8898TIP3   OH248184   5.792   4.287   4.445  0.2978  0.2178  0.5025
 8898TIP3    H148185   5.776   4.230   4.519 -0.5647 -1.4744 -0.9099
 8898TIP3    H248186   5.705   4.305   4.409  0.6469  1.5555  0.2785
 8899TIP3   OH248187   2.116   4.761  15.804 -0.0407 -0.4128 -0.2093
 8899TIP3    H148188   2.118   4.671  15.834  0.0847  0.1800  1.6594
 8899TIP3    H248189   2.207   4.787  15.798 -0.0811 -0.3475 -0.5491
 8900TIP3   OH248190   4.991   6.393   2.670 -0.4008  0.5782 -0.1175
 8900TIP3    H148191   5.084   6.412   2.660 -0.3134  0.3421  0.2209
 8900TIP3    H248192   4.952   6.476   2.698 -0.1401  0.4583  0.6377
 8901TIP3   OH248193   0.371   5.147  14.267  0.0511  0.0752 -0.0908
 8901TIP3    H148194   0.349   5.225  14.215  1.8190  0.4426 -0.3499
 8901TIP3    H248195   0.433   5.179  14.332 -0.7353 -0.7617  1.0946
 8902TIP3   OH248196   4.992   2.178   2.356  0.0313  0.3353 -0.0261
 8902TIP3    H148197   5.003   2.246   2.423  0.4807  0.1085  0.1322
 8902TIP3    H248198   4.915   2.129   2.385  1.0079 -0.6142  1.0919
 8903TIP3   OH248199   1.588   6.486   4.974  0.2012  0.4267 -0.1417
 8903TIP3    H148200   1.678   6.505   5.001  0.5950 -1.8353  0.3898
 8903TIP3    H248201   1.534   6.513   5.049  0.5195  0.9357 -0.0894
 8904TIP3   OH248202   3.451   0.096  11.266  0.0118  0.0685 -0.2398
 8904TIP3    H148203   3.468   0.062  11.178 -0.0886 -0.2365 -0.1432
 8904TIP3    H248204   3.403   0.177  11.252  1.4285  0.8866 -0.5132
 8905TIP3   OH248205   2.706   4.442  14.722 -0.1038  0.2427 -0.3497
 8905TIP3    H148206   2.785   4.488  14.694  0.3641  0.9287  1.8708
 8905TIP3    H248207   2.637   4.508  14.715  0.0995  0.5574  0.4711
 8906TIP3   OH248208   3.236   4.807   1.152 -0.0341  0.0963 -0.7249
 8906TIP3    H148209   3.155   4.820   1.102  0.4287  0.0808 -1.4984
 8906TIP3    H248210   3.290   4.882   1.129 -0.1333  0.5480  0.4353
 8907TIP3   OH248211   4.546   5.412   1.235 -0.6775 -0.4464 -0.4129
 8907TIP3    H148212   4.457   5.391   1.261 -0.5791  1.6914  2.0247
 8907TIP3    H248213   4.551   5.507   1.240  1.3219 -0.3949 -2.0886
 8908TIP3   OH248214   1.018   6.531   5.268 -0.1513 -0.5609 -0.0141
 8908TIP3    H148215   0.936   6.541   5.317 -0.0171 -2.4975  0.7080
 8908TIP3    H248216   1.078   6.595   5.306 -0.5048 -1.0351  1.3732
 8909TIP3   OH248217   1.330   6.437  14.680 -0.0702  0.6203  0.8219
 8909TIP3    H148218   1.306   6.500  14.748  0.7919  2.0025 -0.0947
 8909TIP3    H248219   1.424   6.447  14.670 -0.3190  1.3518 -1.3766
 8910TIP3   OH248220   1.507   2.032  11.273  0.1153  0.0527  0.1764
 8910TIP3    H148221   1.422   2.057  11.311  0.0640 -0.9986  0.7888
 8910TIP3    H248222   1.566   2.104  11.298 -0.1590 -0.1185  1.3856
 8911TIP3   OH248223   2.135   1.708  16.749 -0.5377 -0.2347 -0.6395
 8911TIP3    H148224   2.190   1.770  16.797 -0.1700 -0.4156 -0.8170
 8911TIP3    H248225   2.046   1.739  16.762 -0.5584 -0.9454  1.1432
 8912TIP3   OH248226   6.052   4.354   5.836  0.1585 -0.6558 -0.1064
 8912TIP3    H148227   6.026   4.263   5.824  2.7395 -1.5741  0.7241
 8912TIP3    H248228   6.062   4.364   5.931 -2.1566  1.1822  0.0334
 8913TIP3   OH248229   3.571   1.871   4.603 -0.5597  0.8203 -0.5483
 8913TIP3    H148230   3.570   1.786   4.558  0.0531  1.8004 -2.5474
 8913TIP3    H248231   3.644   1.864   4.665  0.3594  0.3056 -1.6417
 8914TIP3   OH248232   2.969   0.285   4.046  0.1291  0.2503  0.2267
 8914TIP3    H148233   3.017   0.345   3.988  1.6910 -1.3845 -0.2638
 8914TIP3    H248234   2.878   0.313   4.039  0.6422  1.8013 -0.9072
 8915TIP3   OH248235   6.678   0.328   3.765  0.0580 -0.3959 -0.0482
 8915TIP3    H148236   6.730   0.404   3.792  0.7606 -0.5685 -0.8980
 8915TIP3    H248237   6.593   0.365   3.741  0.5969  0.2206 -1.0694
 8916TIP3   OH248238   0.197   3.803   6.243 -0.0632  0.0031  0.1139
 8916TIP3    H148239   0.158   3.885   6.275  0.4205  0.3151 -0.0876
 8916TIP3    H248240   0.291   3.816   6.252  0.0838  0.0197 -1.2434
 8917TIP3   OH248241   0.850   6.344   1.844  0.3041  0.6857  0.5836
 8917TIP3    H148242   0.891   6.284   1.781 -0.6322 -1.0967  1.6044
 8917TIP3    H248243   0.882   6.315   1.929 -2.8671 -0.7452  1.4274
 8918TIP3   OH248244   1.131   3.923   1.881 -0.5758 -0.7902 -0.0516
 8918TIP3    H148245   1.225   3.937   1.894 -0.3120  3.2285 -3.9568
 8918TIP3    H248246   1.092   4.010   1.894 -2.9813 -1.2804 -3.0365
 8919TIP3   OH248247   0.474   4.788  13.114 -0.1010 -0.1513  0.3621
 8919TIP3    H148248   0.514   4.875  13.111  0.7975 -0.5629 -2.0821
 8919TIP3    H248249   0.382   4.804  13.133 -0.1961  1.4634 -1.2418
 8920TIP3   OH248250   6.503   0.987  12.735  0.0710  0.2454  0.3210
 8920TIP3    H148251   6.483   0.894  12.738 -0.5462  0.3373 -0.3664
 8920TIP3    H248252   6.571   0.995  12.668 -0.3909  0.3542 -0.1481
 8921TIP3   OH248253   0.149   0.759   0.900 -0.2294 -0.3539 -0.0501
 8921TIP3    H148254   0.109   0.672   0.910 -0.0118 -0.4441  0.0457
 8921TIP3    H248255   0.220   0.745   0.837 -0.8457 -0.0311 -0.8276
 8922TIP3   OH248256   6.082   6.793  14.232 -0.2572  0.4765  0.0727
 8922TIP3    H148257   6.090   6.729  14.302 -0.7658  2.3356  1.9391
 8922TIP3    H248258   5.988   6.801  14.218 -0.1435 -0.7847 -1.7878
 8923TIP3   OH248259   6.580   5.770   3.307  0.4579 -0.3709 -0.3129
 8923TIP3    H148260   6.561   5.797   3.397  1.7882 -0.2141 -0.0568
 8923TIP3    H248261   6.517   5.819   3.254  1.1212  1.2805  0.3625
 8924TIP3   OH248262   0.304   3.399  12.163  0.1063  0.5800 -0.1955
 8924TIP3    H148263   0.222   3.359  12.191 -0.5094  0.5575 -1.9429
 8924TIP3    H248264   0.346   3.427  12.245 -0.1675 -2.1411  1.0025
 8925TIP3   OH248265   3.795   4.617  14.613  0.3810  0.1384  0.1878
 8925TIP3    H148266   3.730   4.549  14.593  0.4162  0.2074 -0.1780
 8925TIP3    H248267   3.845   4.626  14.532  0.9956 -0.0712  0.5399
 8926TIP3   OH248268   3.748   5.184  11.270  0.1405  0.4307  0.9228
 8926TIP3    H148269   3.670   5.225  11.308  0.2666  0.7529  0.8386
 8926TIP3    H248270   3.811   5.183  11.342 -0.5720 -1.6196  1.5836
 8927TIP3   OH248271   6.094   5.438   2.026  0.4366  0.2069 -0.3335
 8927TIP3    H148272   6.118   5.517   1.976 -0.7071 -0.8547 -2.7578
 8927TIP3    H248273   6.001   5.451   2.046  1.0642  0.9790  2.3827
 8928TIP3   OH248274   3.651   4.211   2.691 -0.1123 -0.4155 -0.4078
 8928TIP3    H148275   3.718   4.268   2.653 -0.1763 -0.7038 -0.9617
 8928TIP3    H248276   3.622   4.156   2.619  1.4788 -2.6364  0.5225
 8929TIP3   OH248277   2.475   4.799  12.532 -0.3914 -0.0175 -0.4042
 8929TIP3    H148278   2.445   4.824  12.444 -0.4342  1.3718 -0.0276
 8929TIP3    H248279   2.481   4.704  12.530 -1.5087 -0.0860 -1.5602
 8930TIP3   OH248280   4.807   1.247  15.127  0.6136 -0.3623 -0.0355
 8930TIP3    H148281   4.777   1.332  15.157  0.5813 -0.1423 -0.6678
 8930TIP3    H248282   4.843   1.205  15.205  0.0713 -0.0195  0.4101
 8931TIP3   OH248283   6.720   5.484  15.894  0.4915 -0.1078 -0.0718
 8931TIP3    H148284   6.712   5.567  15.941  0.0139  0.8481 -1.7504
 8931TIP3    H248285   6.630   5.452  15.885  0.6879 -0.9092  0.7128
 8932TIP3   OH248286   1.741   0.029   4.366 -0.0697  0.1477 -0.1095
 8932TIP3    H148287   1.682  -0.016   4.305 -0.2210 -2.5391  1.8178
 8932TIP3    H248288   1.683   0.079   4.424 -0.3335 -0.8140  0.4833
 8933TIP3   OH248289   5.943   2.433  13.183 -0.7388 -0.3981 -1.1073
 8933TIP3    H148290   5.979   2.515  13.217  0.0981 -0.6931 -1.2680
 8933TIP3    H248291   6.020   2.382  13.157 -1.1981 -1.6222 -0.1293
 8934TIP3   OH248292   6.329   4.719  14.356  0.0727 -0.3963  0.2208
 8934TIP3    H148293   6.352   4.652  14.291  3.4620 -1.2932  2.1098
 8934TIP3    H248294   6.337   4.802  14.308 -0.5910 -1.1360 -1.2497
 8935TIP3   OH248295   4.675   5.329  14.616  0.2765 -0.9532 -0.2507
 8935TIP3    H148296   4.692   5.411  14.569  0.2688 -0.3536  0.7672
 8935TIP3    H248297   4.760   5.305  14.653  0.2849 -1.4253 -0.5695
 8936TIP3   OH248298   0.650   6.622   3.313 -0.3150 -0.2750 -0.3908
 8936TIP3    H148299   0.714   6.643   3.381 -0.5571 -0.5798 -0.0648
 8936TIP3    H248300   0.587   6.694   3.316 -1.3595 -1.1895  0.9883
 8937TIP3   OH248301   5.935   1.011   0.813  0.0498  0.0063 -0.0219
 8937TIP3    H148302   5.857   0.966   0.844  0.8394 -0.4245  1.4522
 8937TIP3    H248303   5.999   0.998   0.883  1.5119  0.1719 -1.2835
 8938TIP3   OH248304   5.510   4.866   2.715  0.6695  0.4866  0.2618
 8938TIP3    H148305   5.528   4.922   2.639  0.3036  0.3348  0.0637
 8938TIP3    H248306   5.476   4.926   2.781 -0.1948  0.4299 -0.1174
 8939TIP3   OH248307   2.050   6.265  15.085  0.1911  0.0916 -0.3393
 8939TIP3    H148308   2.117   6.298  15.144  1.0186  0.2824 -1.3508
 8939TIP3    H248309   1.968   6.279  15.131  0.7273  1.1869  0.3271
 8940TIP3   OH248310   6.732   6.722  12.024  0.4317 -0.0638 -0.3811
 8940TIP3    H148311   6.639   6.739  12.007  0.3658  0.7886  0.7092
 8940TIP3    H248312   6.737   6.627  12.030 -0.6090 -0.0830  0.6776
 8941TIP3   OH248313   4.907   4.511  12.984 -0.0078 -0.5608 -0.3890
 8941TIP3    H148314   4.898   4.418  12.967  0.4352 -0.8286  0.7654
 8941TIP3    H248315   4.868   4.553  12.908  0.5605 -1.6799 -1.3359
 8942TIP3   OH248316   4.990   2.354  17.011  0.5058 -0.0455  0.3271
 8942TIP3    H148317   5.046   2.277  17.012  0.5023 -0.0480  0.5031
 8942TIP3    H248318   5.006   2.396  16.927 -0.4669 -0.9470 -0.3265
 8943TIP3   OH248319   3.756   2.984   2.101  0.0835  0.0901  0.4166
 8943TIP3    H148320   3.775   2.992   2.008  2.0473  2.2476  0.8915
 8943TIP3    H248321   3.662   3.001   2.108  0.3221  2.5501 -1.0096
 8944TIP3   OH248322   2.718   4.482   1.414  0.3888  0.0211  0.1290
 8944TIP3    H148323   2.680   4.548   1.356  1.6789 -0.4377 -1.3000
 8944TIP3    H248324   2.766   4.534   1.480 -1.3737  0.5525  1.0486
 8945TIP3   OH248325   1.313   2.602  11.637  0.4307 -0.1780  0.0617
 8945TIP3    H148326   1.262   2.682  11.648  0.6069 -0.0862  0.2222
 8945TIP3    H248327   1.403   2.628  11.657  0.4331 -0.5023  0.4956
 8946TIP3   OH248328   5.273   4.175   3.126  0.1211  0.1117  0.1782
 8946TIP3    H148329   5.247   4.200   3.214 -1.4114 -0.3972 -0.1102
 8946TIP3    H248330   5.368   4.162   3.132 -0.3777 -4.7586  3.0512
 8947TIP3   OH248331   0.144   1.616   3.822  0.4235  0.0397  0.0584
 8947TIP3    H148332   0.077   1.548   3.830 -1.7301  1.8076 -1.6115
 8947TIP3    H248333   0.189   1.597   3.740  0.2363  0.2593 -0.0976
 8948TIP3   OH248334   4.679   0.871   0.713  0.2780 -0.7887  0.0493
 8948TIP3    H148335   4.631   0.895   0.634 -0.5344 -0.6923  0.5638
 8948TIP3    H248336   4.661   0.777   0.724  0.2203 -0.7576  0.2268
 8949TIP3   OH248337   2.200   3.497  15.689 -0.0084  0.4249  0.3694
 8949TIP3    H148338   2.250   3.469  15.766 -0.1273  1.1811  0.7349
 8949TIP3    H248339   2.177   3.416  15.644 -0.1800 -0.0449  1.2853
 8950TIP3   OH248340   5.657   3.447   2.694 -0.2482  0.0811 -0.2519
 8950TIP3    H148341   5.621   3.395   2.766 -0.7366 -0.4000 -0.8307
 8950TIP3    H248342   5.721   3.504   2.736  0.6617 -1.3181  0.3382
 8951TIP3   OH248343   2.627   5.885  14.391  0.2377 -0.3087  0.4485
 8951TIP3    H148344   2.668   5.958  14.438 -1.8879  0.9208  0.5469
 8951TIP3    H248345   2.578   5.838  14.458  1.0296 -1.4596  0.2550
 8952TIP3   OH248346   6.538   4.143   2.133  0.6463 -0.1220 -0.7604
 8952TIP3    H148347   6.535   4.191   2.050  0.4712 -1.2569 -1.4265
 8952TIP3    H248348   6.613   4.084   2.123 -1.6902 -3.1104 -1.7494
 8953TIP3   OH248349   4.855   0.922  10.960  0.4834 -0.1513 -0.3034
 8953TIP3    H148350   4.908   0.842  10.953  0.8311  0.0664 -0.1745
 8953TIP3    H248351   4.849   0.955  10.871  3.0315  1.4080  0.0189
 8954TIP3   OH248352   6.021   0.337  10.660 -0.6203  0.3086  0.2857
 8954TIP3    H148353   5.944   0.293  10.626  0.0649 -4.0131  3.4382
 8954TIP3    H248354   6.095   0.299  10.612 -0.1541  0.2674  1.0136
 8955TIP3   OH248355   2.278   5.089  12.877  0.0349  0.1808  0.0741
 8955TIP3    H148356   2.325   5.005  12.873  1.1880  0.5955  2.5738
 8955TIP3    H248357   2.346   5.155  12.863  0.2235  0.7750  3.0498
 8956TIP3   OH248358   1.752   4.997   0.241  0.4400 -0.1956 -0.0963
 8956TIP3    H148359   1.692   4.942   0.293  1.1145 -0.4946  0.3776
 8956TIP3    H248360   1.703   5.078   0.227 -0.2108 -0.5649 -0.0124
 8957TIP3   OH248361   5.666   5.341   2.342 -0.3674  0.2556  0.0175
 8957TIP3    H148362   5.736   5.278   2.359 -2.1705 -1.7325  0.5000
 8957TIP3    H248363   5.679   5.410   2.407 -0.9345 -1.9137  2.6016
 8958TIP3   OH248364   5.641   5.627  16.348  0.2232  0.1196 -0.0380
 8958TIP3    H148365   5.724   5.579  16.351  0.4195  0.4441 -0.2487
 8958TIP3    H248366   5.638   5.673  16.432  0.0949 -0.1489  0.1097
 8959TIP3   OH248367   5.536   1.046  14.137 -0.7998 -0.1064  0.2408
 8959TIP3    H148368   5.449   1.019  14.166 -1.2355 -0.5291 -1.3986
 8959TIP3    H248369   5.572   0.969  14.092  1.2060 -0.5904  2.4312
 8960TIP3   OH248370   4.687   1.087  12.396  0.2147 -0.1399  0.3777
 8960TIP3    H148371   4.606   1.082  12.446  0.9181  0.6547  1.6499
 8960TIP3    H248372   4.661   1.123  12.311 -0.7321  0.3266  0.8569
 8961TIP3   OH248373   6.592   0.658  11.688 -0.5882 -0.0214 -0.0648
 8961TIP3    H148374   6.553   0.704  11.614  0.4186 -0.2941 -0.7948
 8961TIP3    H248375   6.667   0.611  11.651 -1.6890 -2.4691  0.5943
 8962TIP3   OH248376   6.478   0.571  10.998 -0.1525 -0.1301 -0.2716
 8962TIP3    H148377   6.482   0.619  10.915 -0.3315 -0.2206 -0.3320
 8962TIP3    H248378   6.534   0.495  10.984 -0.3619 -0.2638 -0.3859
 8963TIP3   OH248379   5.304   5.450   4.876 -0.3674 -0.1998  0.6169
 8963TIP3    H148380   5.370   5.422   4.813 -0.3845 -2.4756  1.5177
 8963TIP3    H248381   5.351   5.502   4.940 -0.0926  0.9283 -0.4626
 8964TIP3   OH248382   6.172   0.273   0.420 -0.1885 -0.1292  0.1804
 8964TIP3    H148383   6.243   0.317   0.466  0.2948 -1.3041  0.6133
 8964TIP3    H248384   6.104   0.262   0.486 -0.3813  0.1355  0.0254
 8965TIP3   OH248385   4.699   4.591  12.113 -0.0545  0.3657 -0.3149
 8965TIP3    H148386   4.739   4.642  12.184  0.0342 -0.3650  0.1637
 8965TIP3    H248387   4.613   4.566  12.147 -0.1926  0.3949 -0.6413
 8966TIP3   OH248388   4.223   3.069   4.426 -0.0705 -0.0716 -0.2008
 8966TIP3    H148389   4.211   3.161   4.401 -0.6154 -0.2323 -0.5341
 8966TIP3    H248390   4.257   3.027   4.347 -0.1785 -0.2369 -0.1590
 8967TIP3   OH248391   0.145   2.551   1.273 -0.0309  0.4675  0.0567
 8967TIP3    H148392   0.118   2.472   1.226  0.3457  1.7794 -2.5299
 8967TIP3    H248393   0.063   2.597   1.292 -0.0991  1.8538 -3.0386
 8968TIP3   OH248394   5.946   3.207  13.340  0.1175 -0.3882  0.0544
 8968TIP3    H148395   5.975   3.143  13.405 -0.9762 -2.0184 -0.9860
 8968TIP3    H248396   6.021   3.218  13.282  1.4808  1.8661  2.0541
 8969TIP3   OH248397   1.248   4.529   1.561 -0.6378  0.6075  0.2260
 8969TIP3    H148398   1.340   4.532   1.535 -0.8839  2.0782 -0.5704
 8969TIP3    H248399   1.214   4.451   1.517  0.2425 -0.0551  0.6732
 8970TIP3   OH248400   2.747   5.646  12.998 -0.4262  0.0517  0.1641
 8970TIP3    H148401   2.740   5.740  12.982 -0.7906  0.1922  1.0901
 8970TIP3    H248402   2.658   5.613  12.991 -0.5024  0.0111  1.1689
 8971TIP3   OH248403   3.167   5.281  16.083  0.4436  0.2853 -0.0114
 8971TIP3    H148404   3.132   5.288  15.994  1.2259  0.5166 -0.3063
 8971TIP3    H248405   3.112   5.341  16.134 -0.4675 -0.3725 -0.1785
 8972TIP3   OH248406   4.470   1.132  13.761  0.4052  0.0276 -0.6103
 8972TIP3    H148407   4.485   1.148  13.668 -0.0544  0.5862 -0.5966
 8972TIP3    H248408   4.423   1.210  13.791  1.0854  0.1368  0.2239
 8973TIP3   OH248409   4.962   1.342   1.426  0.0017  0.3211  0.2969
 8973TIP3    H148410   5.026   1.380   1.487  0.6122  0.7025 -0.5505
 8973TIP3    H248411   5.000   1.357   1.340  0.8418 -3.2560 -0.0872
 8974TIP3   OH248412   3.267   2.164   4.534  0.3070 -0.1803  0.4711
 8974TIP3    H148413   3.335   2.208   4.482  0.9794 -0.0668  1.4193
 8974TIP3    H248414   3.308   2.151   4.619 -0.7099 -0.5535  0.9067
 8975TIP3   OH248415   0.174   1.588   4.568 -0.2813  0.3173 -0.1454
 8975TIP3    H148416   0.139   1.664   4.521  1.2861  0.6740 -0.7791
 8975TIP3    H248417   0.097   1.532   4.582 -1.0288  0.8019 -2.0037
 8976TIP3   OH248418   0.033   5.004  14.587  0.0550 -0.2477  0.2931
 8976TIP3    H148419  -0.045   4.966  14.546  0.8470 -0.1873 -1.3193
 8976TIP3    H248420   0.097   4.933  14.586  0.8622  0.4766 -0.8103
 8977TIP3   OH248421   1.070   6.617   2.355  0.2118  0.3023 -0.5690
 8977TIP3    H148422   1.003   6.565   2.309  0.5979  0.4806 -1.3444
 8977TIP3    H248423   1.023   6.655   2.429 -0.5712  0.4694 -1.1342
 8978TIP3   OH248424   3.114   6.436  16.419  0.5289  0.4799  0.1232
 8978TIP3    H148425   3.118   6.527  16.450 -0.0664  0.2039  1.0678
 8978TIP3    H248426   3.202   6.401  16.434  0.2482  0.3409  1.6248
 8979TIP3   OH248427   4.240   1.191   4.034  0.6618  0.2707  0.0800
 8979TIP3    H148428   4.154   1.233   4.025  0.4057  0.2340  1.8656
 8979TIP3    H248429   4.263   1.205   4.126  0.5242 -3.5132  0.8393
 8980TIP3   OH248430   2.878   6.817  14.866  0.1354  0.3764 -0.0692
 8980TIP3    H148431   2.860   6.818  14.960 -0.4849  1.3618 -0.1810
 8980TIP3    H248432   2.932   6.895  14.852 -1.5083  1.4410 -0.8201
 8981TIP3   OH248433   1.114   1.244   1.994  0.5048 -0.2327 -0.3458
 8981TIP3    H148434   1.025   1.245   2.029  1.4478 -0.7740  2.2773
 8981TIP3    H248435   1.132   1.152   1.974  0.8001 -0.2639  0.0519
 8982TIP3   OH248436   5.904   5.756   3.163  0.4844  0.1134  0.6402
 8982TIP3    H148437   5.839   5.826   3.153  0.8670  0.5011  0.8430
 8982TIP3    H248438   5.987   5.802   3.179  1.0730 -0.3258 -0.9629
 8983TIP3   OH248439   0.494   1.451   5.196 -0.0154 -0.5795  0.0562
 8983TIP3    H148440   0.478   1.541   5.167  1.0048 -0.4246 -0.0682
 8983TIP3    H248441   0.444   1.397   5.135 -1.8169 -0.0563  1.0104
 8984TIP3   OH248442   4.150   3.090  11.283  0.0538  0.0004  0.7714
 8984TIP3    H148443   4.087   3.076  11.354 -1.4861  0.7763 -0.3927
 8984TIP3    H248444   4.184   3.178  11.299 -1.2228  0.6731 -0.1243
 8985TIP3   OH248445   4.647   3.007   1.948 -0.2772  0.6288  0.5809
 8985TIP3    H148446   4.740   3.024   1.958 -0.2600 -0.6224  3.5052
 8985TIP3    H248447   4.642   2.922   1.904  0.0213  0.1495  1.4522
 8986TIP3   OH248448   1.018   5.899   1.288 -0.6015 -0.3832  0.6735
 8986TIP3    H148449   1.038   5.908   1.381 -0.7425 -1.6607  0.8487
 8986TIP3    H248450   0.976   5.981   1.264 -0.5631 -0.0412  1.7426
 8987TIP3   OH248451   1.623   0.216   3.573  0.0829 -0.5937  0.4590
 8987TIP3    H148452   1.608   0.122   3.567  2.3248 -0.9215 -1.8407
 8987TIP3    H248453   1.706   0.224   3.621  0.7681  0.0585 -0.7840
 8988TIP3   OH248454   2.090   3.610   3.951 -0.2801  0.0324 -0.1653
 8988TIP3    H148455   2.123   3.696   3.974 -0.3933  0.3462 -1.1485
 8988TIP3    H248456   2.028   3.589   4.021 -0.5812  0.9364 -0.1487
 8989TIP3   OH248457   1.061   1.188  17.051 -0.1979 -0.4093  0.1450
 8989TIP3    H148458   1.155   1.174  17.060  0.2843  1.6346 -1.0066
 8989TIP3    H248459   1.021   1.126  17.112  1.8495 -1.7124  0.2636
 8990TIP3   OH248460   6.167   4.591  13.955 -0.4713  0.6296 -0.5530
 8990TIP3    H148461   6.184   4.577  13.862 -0.3313  0.9481 -0.5766
 8990TIP3    H248462   6.218   4.523  13.999 -1.1117  0.0189 -0.7404
 8991TIP3   OH248463   1.942   4.950  15.867 -0.3505  0.1285  0.4534
 8991TIP3    H148464   1.885   4.893  15.917 -0.1139 -1.5856 -1.1358
 8991TIP3    H248465   2.018   4.896  15.845  0.3844  1.3714 -0.2176
 8992TIP3   OH248466   3.560   2.363   3.656 -0.6059 -0.4717  0.2477
 8992TIP3    H148467   3.482   2.342   3.604 -1.5015 -0.3007  1.4598
 8992TIP3    H248468   3.533   2.348   3.746  0.9155 -0.8046  0.6745
 8993TIP3   OH248469   1.698   5.495  12.748 -1.0101  0.0958 -0.0216
 8993TIP3    H148470   1.760   5.552  12.702  1.2814 -0.7162  1.9019
 8993TIP3    H248471   1.666   5.435  12.680  0.1374  0.6838 -1.1218
 8994TIP3   OH248472   0.714   6.639   4.144  0.3364  0.3595 -0.7164
 8994TIP3    H148473   0.701   6.724   4.187  0.3373 -0.3471  0.7384
 8994TIP3    H248474   0.809   6.630   4.136  0.3443  0.3850 -0.6477
 8995TIP3   OH248475   3.954   3.996   4.968  0.1832 -0.1119 -0.4513
 8995TIP3    H148476   3.996   3.916   4.937 -0.9716 -0.1198 -2.1303
 8995TIP3    H248477   3.862   3.972   4.979  0.3579  0.1317  2.3243
 8996TIP3   OH248478   3.350   1.420  14.200 -0.0932  0.9105  0.0220
 8996TIP3    H148479   3.314   1.331  14.201  1.0082  0.4544  0.0478
 8996TIP3    H248480   3.353   1.446  14.292 -0.0608  0.8268  0.0448
 8997TIP3   OH248481   5.377   0.699  14.386 -0.0173 -0.7089  0.0697
 8997TIP3    H148482   5.452   0.670  14.334  1.1302  1.5473  0.3476
 8997TIP3    H248483   5.347   0.779  14.343 -0.6755 -0.2093  1.3864
 8998TIP3   OH248484   2.567   5.341  16.129 -0.3029 -0.7705  0.6980
 8998TIP3    H148485   2.565   5.432  16.100 -0.2153 -1.0687 -0.2943
 8998TIP3    H248486   2.501   5.298  16.075  1.4434 -1.8100 -0.7198
 8999TIP3   OH248487   0.200   4.092  15.231 -0.4177  0.2305 -0.1301
 8999TIP3    H148488   0.111   4.078  15.263 -0.4625  0.3997 -0.1816
 8999TIP3    H248489   0.243   4.007  15.245 -0.7853 -0.0669 -0.7516
 9000TIP3   OH248490   1.946   2.223  14.189 -0.0982  0.4327  0.1470
 9000TIP3    H148491   2.035   2.190  14.176 -0.2137 -0.6307  1.7934
 9000TIP3    H248492   1.917   2.247  14.101  1.9194  1.1549 -0.3887
 9001TIP3   OH248493   6.527   6.587   6.243  0.2826  0.0290  0.4037
 9001TIP3    H148494   6.437   6.617   6.255  0.2025 -0.4800  1.1306
 9001TIP3    H248495   6.565   6.588   6.331  0.1131 -2.5068  0.5695
 9002TIP3   OH248496   5.789   1.902   0.544 -0.4147 -0.3952  0.1386
 9002TIP3    H148497   5.782   1.807   0.554 -0.5392 -0.4359 -0.3216
 9002TIP3    H248498   5.737   1.922   0.467 -0.7738  0.1081  0.5052
 9003TIP3   OH248499   4.827   1.309  13.852  0.0562  0.5496  0.0002
 9003TIP3    H148500   4.827   1.394  13.897 -0.6638  0.9744 -0.7857
 9003TIP3    H248501   4.793   1.328  13.765  0.2427 -0.4908 -0.3085
 9004TIP3   OH248502   0.612   0.790   5.443  0.0110  0.4362 -0.3042
 9004TIP3    H148503   0.668   0.841   5.502  0.4573 -0.6937  0.2916
 9004TIP3    H248504   0.668   0.717   5.415 -0.7926 -0.0492 -0.6765
 9005TIP3   OH248505   0.328   6.548   0.316  0.1135 -0.4420 -0.4573
 9005TIP3    H148506   0.418   6.580   0.305  0.5026 -1.5461 -0.5416
 9005TIP3    H248507   0.303   6.518   0.229 -0.4301  0.0519 -0.4811
 9006TIP3   OH248508   2.715   3.514  12.670 -0.2654 -0.4897 -0.9339
 9006TIP3    H148509   2.693   3.582  12.607 -0.8835  0.3934  0.2069
 9006TIP3    H248510   2.711   3.557  12.756 -1.1127 -2.0436 -0.1344
 9007TIP3   OH248511   5.040   3.006   1.202 -0.3641  0.7676  0.1261
 9007TIP3    H148512   5.024   2.950   1.126  2.6034 -0.6276  0.3989
 9007TIP3    H248513   5.052   3.093   1.164 -2.2287  0.7621 -0.5910
 9008TIP3   OH248514   5.986   2.563  12.520 -0.4231  0.3815 -0.0630
 9008TIP3    H148515   5.995   2.646  12.566  1.3411 -0.1051  0.5678
 9008TIP3    H248516   5.913   2.520  12.563 -0.3170  0.9449  0.7060
 9009TIP3   OH248517   5.988   0.129  11.795 -0.6462  0.1932 -0.6803
 9009TIP3    H148518   5.915   0.082  11.754 -0.2467 -2.0400  0.9575
 9009TIP3    H248519   5.948   0.207  11.832 -2.0639 -0.5691 -0.5174
 9010TIP3   OH248520   4.470   0.880   1.449  0.7339 -0.1250 -0.9532
 9010TIP3    H148521   4.393   0.937   1.454 -0.5695 -1.7484 -1.7338
 9010TIP3    H248522   4.463   0.837   1.364  3.6078  1.1228 -1.9604
 9011TIP3   OH248523   1.553   4.730   2.100 -0.1601  0.3984  0.1184
 9011TIP3    H148524   1.488   4.682   2.150 -0.0815  0.6697  0.4845
 9011TIP3    H248525   1.622   4.751   2.163  0.4995 -0.2673 -0.3555
 9012TIP3   OH248526   5.457   5.070   2.902 -0.1015 -0.4245  0.0467
 9012TIP3    H148527   5.511   5.037   2.974  1.3265  1.1914 -0.2234
 9012TIP3    H248528   5.414   5.148   2.938 -0.3611 -0.3190 -0.4775
 9013TIP3   OH248529   4.779   5.033   2.290 -0.5959 -0.4146  0.1008
 9013TIP3    H148530   4.794   5.063   2.380 -0.1822  1.4272 -0.5284
 9013TIP3    H248531   4.690   4.998   2.291 -1.0502  0.6750  0.9834
 9014TIP3   OH248532   5.284   1.768  14.002 -0.4972 -0.4837 -0.0738
 9014TIP3    H148533   5.336   1.811  13.934 -1.1806  0.7776  0.1593
 9014TIP3    H248534   5.195   1.769  13.968 -0.3092 -3.3772 -0.8386
 9015TIP3   OH248535   4.520   4.172  12.162  0.3862 -0.4643 -0.2464
 9015TIP3    H148536   4.574   4.094  12.172  0.3688 -0.6411 -1.3664
 9015TIP3    H248537   4.566   4.225  12.097  1.0946  1.1193  1.4618
 9016TIP3   OH248538   2.726   6.171  11.474 -0.2330  0.5577 -0.2823
 9016TIP3    H148539   2.681   6.191  11.392 -0.1123  1.1484 -0.2063
 9016TIP3    H248540   2.692   6.235  11.537 -1.1561 -0.5807  0.4254
 9017TIP3   OH248541   1.139   0.884  15.208  0.1337 -0.8032 -0.0554
 9017TIP3    H148542   1.104   0.910  15.123 -0.1305 -0.5596  0.1272
 9017TIP3    H248543   1.172   0.795  15.194  2.4304  0.1297 -1.1074
 9018TIP3   OH248544   6.144   2.115   1.527  0.7372 -0.2497  0.1362
 9018TIP3    H148545   6.208   2.066   1.579  2.5815 -0.2789 -2.0145
 9018TIP3    H248546   6.177   2.205   1.528  0.5583 -0.1707 -0.5917
 9019TIP3   OH248547   6.193   6.450   5.896  0.5191 -0.5068  0.2124
 9019TIP3    H148548   6.250   6.515   5.935  0.9728 -1.6604  1.5606
 9019TIP3    H248549   6.118   6.500   5.864  1.7168  0.8830 -0.5474
 9020TIP3   OH248550   1.289   4.540  14.798 -0.2757 -0.3902 -0.5241
 9020TIP3    H148551   1.310   4.507  14.886  2.0779 -1.8438 -1.5450
 9020TIP3    H248552   1.220   4.483  14.766  0.3070 -1.1795 -0.3860
 9021TIP3   OH248553   3.324   4.532   2.042 -0.3959 -0.4466  1.0765
 9021TIP3    H148554   3.316   4.564   2.132  1.5162  1.5591  0.6373
 9021TIP3    H248555   3.385   4.594   2.000 -1.4737 -1.1043 -1.6966
 9022TIP3   OH248556   1.302   4.893   3.971  0.3251  0.4302  0.5256
 9022TIP3    H148557   1.378   4.868   4.025  0.5521  0.4547  0.2186
 9022TIP3    H248558   1.230   4.897   4.033  0.6812  0.9332  0.9163
 9023TIP3   OH248559   1.386   3.853  14.954 -0.1296  0.4826  0.4591
 9023TIP3    H148560   1.315   3.898  15.000 -2.7881 -1.6234 -1.2384
 9023TIP3    H248561   1.428   3.799  15.021 -1.0801  0.6919  1.2464
 9024TIP3   OH248562   1.723   0.155   2.585  0.6393  0.0653  0.4832
 9024TIP3    H148563   1.702   0.237   2.540 -0.5306 -0.8143 -0.6337
 9024TIP3    H248564   1.670   0.158   2.665  0.8865  0.5665  0.6293
 9025TIP3   OH248565   5.337   4.835   0.829  0.1540 -0.5037  0.0677
 9025TIP3    H148566   5.343   4.928   0.851  2.0984 -0.5349 -0.1162
 9025TIP3    H248567   5.270   4.831   0.761 -1.7035  0.3905  1.7564
 9026TIP3   OH248568   2.010   4.841  10.693 -0.4263 -0.1519  0.7807
 9026TIP3    H148569   2.051   4.916  10.650  0.0818 -0.7109  0.2656
 9026TIP3    H248570   2.075   4.771  10.687 -1.1445 -0.8244  0.6621
 9027TIP3   OH248571   1.245   4.890  14.640  0.6275  0.0541  0.2948
 9027TIP3    H148572   1.251   4.903  14.546 -0.6813  1.9982  0.4304
 9027TIP3    H248573   1.229   4.977  14.676 -1.2217 -0.9252  2.0877
 9028TIP3   OH248574   1.491   4.693   1.442 -0.0086  0.0676 -0.0052
 9028TIP3    H148575   1.468   4.748   1.516  1.0663 -1.3442  1.4327
 9028TIP3    H248576   1.582   4.715   1.422  0.2659 -0.7648  0.2493
 9029TIP3   OH248577   2.029   2.610  16.461  0.5548 -0.2870  0.3291
 9029TIP3    H148578   1.937   2.600  16.482  0.4982 -0.7649 -0.1146
 9029TIP3    H248579   2.064   2.669  16.528  0.0947 -0.7130  0.9417
 9030TIP3   OH248580   4.093   0.488   5.981  0.3110 -0.0541  0.3172
 9030TIP3    H148581   4.038   0.559   6.012  1.3675  1.4202 -1.0655
 9030TIP3    H248582   4.160   0.479   6.049  2.0547  2.5194 -0.8901
 9031TIP3   OH248583   6.404   5.020   5.262 -0.4629 -0.4296  0.0880
 9031TIP3    H148584   6.425   5.015   5.355 -0.7315  0.3160  0.1903
 9031TIP3    H248585   6.355   4.940   5.244  0.7737 -1.2651  0.2762
 9032TIP3   OH248586   0.390   0.428   5.981 -0.4324  0.0440 -0.2430
 9032TIP3    H148587   0.465   0.445   6.039 -1.5900  2.8482  0.5550
 9032TIP3    H248588   0.360   0.341   6.007  2.1041 -0.8941 -0.1439
 9033TIP3   OH248589   1.311   3.951  15.283  0.1501 -0.2329  0.0664
 9033TIP3    H148590   1.356   3.923  15.362 -0.2643 -2.1896 -0.3246
 9033TIP3    H248591   1.222   3.970  15.311  0.7170  2.0155  0.5444
 9034TIP3   OH248592   1.593   5.221  15.318 -0.0283 -0.3961 -0.1821
 9034TIP3    H148593   1.575   5.128  15.331  0.7000 -0.4329  0.6582
 9034TIP3    H248594   1.612   5.254  15.406 -0.1180  0.5079 -0.4951
 9035TIP3   OH248595   6.818   0.963  16.898 -0.5202 -0.7923 -0.0752
 9035TIP3    H148596   6.865   1.041  16.868 -0.3378 -0.4840  0.9383
 9035TIP3    H248597   6.886   0.905  16.932 -0.8914  0.3163  2.8722
 9036TIP3   OH248598   6.586   5.194   0.739 -0.6439  0.0122  0.0098
 9036TIP3    H148599   6.600   5.101   0.757 -0.7176 -0.1283 -0.6332
 9036TIP3    H248600   6.491   5.203   0.734 -0.7964  0.6603  2.7917
 9037TIP3   OH248601   4.201   5.179  10.124 -0.1689  0.4002 -0.0410
 9037TIP3    H148602   4.268   5.212  10.183  1.8135 -1.6203 -1.0052
 9037TIP3    H248603   4.126   5.161  10.180  0.3503  1.8984  1.2162
 9038TIP3   OH248604   1.505   4.005  12.728  0.4470 -0.3931  0.6105
 9038TIP3    H148605   1.518   3.915  12.698 -1.6395 -0.8237  0.8387
 9038TIP3    H248606   1.498   3.998  12.823  1.7777  0.2530  0.7840
 9039TIP3   OH248607   3.143   3.661  12.519 -0.6386 -0.0898  0.4248
 9039TIP3    H148608   3.229   3.656  12.477  0.1558 -0.8811  2.0522
 9039TIP3    H248609   3.082   3.630  12.453  0.4145 -0.2269 -0.5160
 9040TIP3   OH248610   3.241   3.204  16.060  0.4434  0.1106 -0.1088
 9040TIP3    H148611   3.201   3.141  16.001 -1.1872  0.4151  0.6162
 9040TIP3    H248612   3.330   3.217  16.025  0.9115 -2.7024 -0.1406
 9041TIP3   OH248613   0.624   3.409   4.505 -0.1921  0.1086 -0.1914
 9041TIP3    H148614   0.552   3.469   4.490  0.2133  0.4486 -0.8255
 9041TIP3    H248615   0.648   3.422   4.597 -0.9435 -0.0315  0.0339
 9042TIP3   OH248616   4.858   3.714  12.755 -0.2576  0.6374 -0.1656
 9042TIP3    H148617   4.864   3.699  12.849 -0.8935  1.3736 -0.0026
 9042TIP3    H248618   4.867   3.808  12.745 -1.5250  0.7177 -0.7219
 9043TIP3   OH248619   5.549   0.262  17.118 -0.2918  0.1861 -0.0315
 9043TIP3    H148620   5.472   0.262  17.175  0.8146 -1.0334  1.5390
 9043TIP3    H248621   5.618   0.220  17.170  1.4357  1.1813 -1.4120
 9044TIP3   OH248622   1.351   5.983  17.209  0.5310 -0.2541  0.1575
 9044TIP3    H148623   1.413   5.930  17.159 -0.3380 -1.3515  0.1888
 9044TIP3    H248624   1.274   5.927  17.217 -1.0575  1.6242 -1.1963
 9045TIP3   OH248625   6.608   1.940   4.618 -0.0406 -0.0938 -0.1946
 9045TIP3    H148626   6.630   1.853   4.584  0.2153  0.4399 -1.4603
 9045TIP3    H248627   6.648   2.001   4.556  0.6157  0.9506  1.1982
 9046TIP3   OH248628   4.492   5.513  15.088  0.4524 -0.8896  0.3180
 9046TIP3    H148629   4.587   5.520  15.098  0.3302  0.2582  0.8237
 9046TIP3    H248630   4.478   5.507  14.994  0.9121  1.5949  0.0217
 9047TIP3   OH248631   2.169   4.050   0.264 -0.1157 -0.4885 -0.0086
 9047TIP3    H148632   2.103   4.025   0.200 -0.3929 -0.5564  0.3051
 9047TIP3    H248633   2.214   4.125   0.224 -0.0248 -0.7762 -0.4538
 9048TIP3   OH248634   1.740   3.927  16.115  0.0346 -0.1416 -0.1309
 9048TIP3    H148635   1.717   3.958  16.027 -1.6111 -1.1578 -0.1124
 9048TIP3    H248636   1.659   3.888  16.148  0.9180 -0.7503  1.4258
 9049TIP3   OH248637   2.153   1.754   5.529  0.6848 -0.0223  0.1771
 9049TIP3    H148638   2.107   1.743   5.445  1.4940 -0.1808 -0.2520
 9049TIP3    H248639   2.101   1.703   5.591  0.5587 -0.6161 -0.4064
 9050TIP3   OH248640   0.487   5.597   1.413 -0.2221  0.8044  0.1865
 9050TIP3    H148641   0.559   5.660   1.403  0.0574  0.3763 -0.5772
 9050TIP3    H248642   0.530   5.512   1.419 -0.4890  0.7693  2.8577
 9051TIP3   OH248643   6.023   0.843  15.248  0.3417  0.5092  0.3928
 9051TIP3    H148644   6.114   0.845  15.219  0.7575  2.7461  1.6693
 9051TIP3    H248645   6.027   0.821  15.341 -0.6303 -1.5786 -0.0031
 9052TIP3   OH248646   1.671   2.495  11.358 -0.2781  0.2755  0.0874
 9052TIP3    H148647   1.684   2.521  11.267  0.5559  2.8816  0.8501
 9052TIP3    H248648   1.576   2.492  11.369 -0.4170  1.5143 -0.5296
 9053TIP3   OH248649   6.558   6.312   2.813  0.1689  0.1128  0.1570
 9053TIP3    H148650   6.493   6.242   2.804  0.0767  0.4233 -2.0646
 9053TIP3    H248651   6.631   6.283   2.758  0.8784  0.9465  0.6356
 9054TIP3   OH248652   3.051   3.116  17.097 -0.1395 -0.2727 -0.0569
 9054TIP3    H148653   3.055   3.031  17.053 -1.0859 -0.1791 -0.3523
 9054TIP3    H248654   2.965   3.152  17.072 -1.0117 -0.4836  2.3665
 9055TIP3   OH248655   1.693   1.539   5.502 -0.0235 -0.2025 -0.1811
 9055TIP3    H148656   1.756   1.467   5.493 -0.8482 -0.7038 -3.5924
 9055TIP3    H248657   1.745   1.618   5.490  0.3368 -0.4837 -0.5199
 9056TIP3   OH248658   6.568   0.221  16.176  0.7613  0.1575 -0.3419
 9056TIP3    H148659   6.600   0.140  16.137 -0.9379  0.1444 -1.8439
 9056TIP3    H248660   6.589   0.288  16.111 -0.1566  0.4926 -0.2993
 9057TIP3   OH248661   0.452   3.406  11.423 -0.5400  0.3146 -0.6878
 9057TIP3    H148662   0.459   3.321  11.465 -0.8706  0.1039 -1.0496
 9057TIP3    H248663   0.401   3.459  11.483 -2.2649 -0.4155 -1.4460
 9058TIP3   OH248664   6.329   1.679   4.887  0.2290  0.0977  0.1502
 9058TIP3    H148665   6.256   1.737   4.909  1.5198  2.0761 -0.5503
 9058TIP3    H248666   6.402   1.710   4.941  1.1825 -0.3255 -0.8459
 9059TIP3   OH248667   2.021   2.291  13.256 -0.3105  0.7149 -0.2768
 9059TIP3    H148668   2.011   2.352  13.183  1.2944  0.8043 -0.4664
 9059TIP3    H248669   1.968   2.215  13.232 -0.6783  1.1916 -1.0042
 9060TIP3   OH248670   2.974   3.263   4.758  0.2142 -0.4661  0.0002
 9060TIP3    H148671   2.929   3.181   4.739  0.1448 -0.5752  0.6053
 9060TIP3    H248672   3.037   3.274   4.687 -1.3074  0.0883 -1.3170
 9061TIP3   OH248673   5.856   6.139   4.752 -0.3438  0.2946  0.0017
 9061TIP3    H148674   5.878   6.219   4.800 -0.5565  0.9400 -0.9657
 9061TIP3    H248675   5.855   6.071   4.820  0.0756  1.0572  0.7984
 9062TIP3   OH248676   6.089   4.631   1.891  0.2897  0.1002  0.1260
 9062TIP3    H148677   6.182   4.621   1.908  0.4439  2.3580  1.0812
 9062TIP3    H248678   6.047   4.564   1.944  1.3176 -0.2672  0.4968
 9063TIP3   OH248679   5.559   1.968   0.724  0.3502  0.0452  0.0031
 9063TIP3    H148680   5.479   2.011   0.754  0.9385  1.3278 -0.1849
 9063TIP3    H248681   5.545   1.955   0.630 -0.4740 -1.6792  0.3315
 9064TIP3   OH248682   5.184   1.420  12.457  0.1435 -0.0352  0.1475
 9064TIP3    H148683   5.261   1.477  12.462  0.5114 -0.5634  0.5846
 9064TIP3    H248684   5.219   1.332  12.443 -0.4581 -0.0721 -1.2196
 9065TIP3   OH248685   6.196   5.717  16.175 -0.6935 -0.1567  0.0390
 9065TIP3    H148686   6.219   5.637  16.222 -1.4993  0.0054  0.7445
 9065TIP3    H248687   6.146   5.686  16.099  0.2752 -0.3985 -0.5112
 9066TIP3   OH248688   3.288   2.649  12.148  0.3336 -0.2109  0.0812
 9066TIP3    H148689   3.320   2.723  12.200  1.1311  0.1140 -0.8488
 9066TIP3    H248690   3.301   2.675  12.057  0.0014 -1.2274 -0.2810
 9067TIP3   OH248691   4.123   3.185  13.940  0.4653 -0.3133 -0.1663
 9067TIP3    H148692   4.110   3.106  13.886  1.7514  0.8326 -2.3395
 9067TIP3    H248693   4.192   3.160  14.002  0.4888 -1.0595 -0.4789
 9068TIP3   OH248694   3.508   3.079   2.244  0.7194 -0.2335  0.7761
 9068TIP3    H148695   3.438   3.140   2.267 -0.9741 -1.5016 -0.6766
 9068TIP3    H248696   3.462   3.004   2.205  2.9436 -0.5594 -1.4758
 9069TIP3   OH248697   5.277   5.771  11.733 -0.0118 -0.0983 -0.0480
 9069TIP3    H148698   5.242   5.684  11.716  1.6604 -1.5337  2.9408
 9069TIP3    H248699   5.233   5.800  11.813  1.0371  0.7849  0.2505
 9070TIP3   OH248700   2.097   2.875  10.992  0.4229  0.5517 -0.0125
 9070TIP3    H148701   2.077   2.930  10.917  0.9879 -0.4570 -0.9230
 9070TIP3    H248702   2.191   2.858  10.986  0.9461  2.1880  2.1375
 9071TIP3   OH248703   2.421   0.983   3.116  0.1273  0.2881 -0.3680
 9071TIP3    H148704   2.481   1.052   3.089  1.4752 -0.8518 -0.3877
 9071TIP3    H248705   2.358   0.977   3.044 -0.2061  1.6992 -0.2092
 9072TIP3   OH248706   0.259   5.492   4.516  1.0625  0.1275  0.4594
 9072TIP3    H148707   0.250   5.516   4.609  1.1852  0.0531  0.4909
 9072TIP3    H248708   0.352   5.505   4.497  1.1391 -0.3742  0.4897
 9073TIP3   OH248709   2.369   6.808  14.038 -0.5960 -0.5223 -0.3792
 9073TIP3    H148710   2.405   6.788  13.951 -0.5543  1.2563 -0.8104
 9073TIP3    H248711   2.352   6.902  14.035 -1.3988 -0.5936  1.2640
 9074TIP3   OH248712   2.767   2.242  11.651 -0.1918  0.0385 -0.5649
 9074TIP3    H148713   2.690   2.215  11.702  1.3871 -0.6690  1.6141
 9074TIP3    H248714   2.829   2.272  11.717  1.3510  0.7849 -2.2822
 9075TIP3   OH248715   3.491   2.874  16.867 -0.1016 -0.3726  0.1843
 9075TIP3    H148716   3.460   2.795  16.912  0.6155  0.3585  2.0710
 9075TIP3    H248717   3.462   2.863  16.777 -1.2643 -2.1240  0.7159
 9076TIP3   OH248718   0.539   2.005  14.951 -0.2849  0.5213  0.0290
 9076TIP3    H148719   0.603   2.074  14.969  0.3173 -0.0637  0.1357
 9076TIP3    H248720   0.590   1.933  14.913 -0.7287 -0.3185  0.9875
 9077TIP3   OH248721   1.517   4.041  14.327 -0.0114  0.4462 -0.2935
 9077TIP3    H148722   1.570   3.976  14.373  0.3190 -0.9837 -2.5211
 9077TIP3    H248723   1.451   3.990  14.280 -1.5295  1.9769  0.0587
 9078TIP3   OH248724   5.374   2.853   2.558  0.1545 -0.5230  0.4711
 9078TIP3    H148725   5.378   2.917   2.487 -0.2873  0.9372  1.6954
 9078TIP3    H248726   5.422   2.777   2.526 -0.3451 -0.0491 -1.5106
 9079TIP3   OH248727   6.354   6.696  16.981  0.3619  0.1778 -0.4282
 9079TIP3    H148728   6.395   6.781  17.000  1.0797 -0.7396  2.7791
 9079TIP3    H248729   6.291   6.715  16.912 -0.2725  3.5577  0.8671
 9080TIP3   OH248730   6.041   5.586   3.995  0.0757 -0.3817  0.5052
 9080TIP3    H148731   6.082   5.614   4.077  0.2661  0.2008  0.2201
 9080TIP3    H248732   5.979   5.657   3.974 -0.6716 -0.9849  0.6411
 9081TIP3   OH248733   1.655   5.064  10.950  0.0355  0.8559  0.5073
 9081TIP3    H148734   1.717   4.999  10.917  0.5918  0.3936  2.3606
 9081TIP3    H248735   1.651   5.130  10.880  4.0204  1.8626  0.9589
 9082TIP3   OH248736   5.866   1.397  14.092  0.3724  0.4743  0.8786
 9082TIP3    H148737   5.795   1.346  14.052 -0.9801  2.3324  0.7822
 9082TIP3    H248738   5.834   1.487  14.092  3.7004  1.8271 -1.3607
 9083TIP3   OH248739   3.668   0.285   2.688  0.0648 -0.2098  0.5253
 9083TIP3    H148740   3.698   0.363   2.642  0.3625 -0.9058 -0.4883
 9083TIP3    H248741   3.715   0.288   2.772  0.3258  0.5164  0.3616
 9084TIP3   OH248742   0.610   0.205  16.925  0.1299 -0.4617 -0.4709
 9084TIP3    H148743   0.531   0.255  16.903 -0.9937 -2.0640 -0.2900
 9084TIP3    H248744   0.617   0.140  16.854  1.4773 -0.1601 -0.6386
 9085TIP3   OH248745   1.816   3.416   0.741  0.2235  0.1817  0.1657
 9085TIP3    H148746   1.780   3.410   0.653  2.2578 -0.4139 -0.6765
 9085TIP3    H248747   1.797   3.331   0.781  0.3624  0.0174 -0.1203
 9086TIP3   OH248748   4.361   6.336  15.251  0.2229  0.6311 -0.2905
 9086TIP3    H148749   4.391   6.246  15.251 -1.4494  0.0364 -1.3077
 9086TIP3    H248750   4.408   6.377  15.324  0.8775 -1.0883  0.2934
 9087TIP3   OH248751   4.597   3.712  11.746 -0.0183 -0.5020 -0.1291
 9087TIP3    H148752   4.592   3.803  11.777  0.3830 -0.6434  0.3713
 9087TIP3    H248753   4.573   3.659  11.822 -0.6214 -0.8077 -0.5288
 9088TIP3   OH248754   1.718   6.214  14.469 -0.1445 -0.1424 -0.0053
 9088TIP3    H148755   1.746   6.248  14.384 -2.5116 -0.2114 -0.8775
 9088TIP3    H248756   1.795   6.224  14.525  1.1294  0.9589 -1.8412
 9089TIP3   OH248757   3.946   4.046  13.652  0.0003  0.1483  0.4630
 9089TIP3    H148758   4.004   4.070  13.580  1.0011  0.9672  1.4873
 9089TIP3    H248759   3.942   3.950  13.648 -0.2550  0.1979 -0.8735
 9090TIP3   OH248760   0.808   4.673   2.185 -0.0691 -0.2753 -0.0048
 9090TIP3    H148761   0.771   4.737   2.124 -1.0203  0.5707  1.3997
 9090TIP3    H248762   0.752   4.596   2.176  0.5612 -0.6376 -1.0760
 9091TIP3   OH248763   1.319   6.459   5.229  0.0801  0.3694  0.2632
 9091TIP3    H148764   1.319   6.515   5.151 -1.0438  1.5360  1.0590
 9091TIP3    H248765   1.264   6.384   5.205 -1.1957  1.2755  0.2777
 9092TIP3   OH248766   6.412   1.406   3.478 -0.0124 -1.1257 -0.3879
 9092TIP3    H148767   6.388   1.354   3.554  0.3612  0.4571  0.8836
 9092TIP3    H248768   6.494   1.449   3.504 -0.5022  0.3701 -1.2020
 9093TIP3   OH248769   6.613   5.526  14.126 -0.6158 -0.0771  0.2273
 9093TIP3    H148770   6.587   5.617  14.143  1.6710  0.4753  1.1557
 9093TIP3    H248771   6.652   5.529  14.038  0.2293  0.0517  0.5956
 9094TIP3   OH248772   1.927   5.386  16.262 -0.1185 -0.1858  0.3659
 9094TIP3    H148773   1.856   5.341  16.215  1.3126 -0.4382 -1.6875
 9094TIP3    H248774   1.994   5.319  16.274  0.2652  0.3369  1.2527
 9095TIP3   OH248775   1.907   4.491   3.581 -0.1747  0.0637 -0.0050
 9095TIP3    H148776   1.964   4.442   3.641 -0.3415 -0.2197 -0.0757
 9095TIP3    H248777   1.958   4.568   3.557 -0.0288  0.0769  0.3464
 9096TIP3   OH248778   0.228   0.404   5.523  0.3350 -0.0592  0.0075
 9096TIP3    H148779   0.241   0.388   5.430 -0.4302  2.4131 -0.6231
 9096TIP3    H248780   0.296   0.467   5.547  0.8186 -1.0214  1.2585
 9097TIP3   OH248781   4.185   5.796   3.877  0.1941 -0.0365  0.6306
 9097TIP3    H148782   4.092   5.794   3.854 -0.0750  0.4671  1.6054
 9097TIP3    H248783   4.229   5.753   3.803 -0.5950  1.5125 -0.7990
 9098TIP3   OH248784   2.074   2.593   4.492 -0.2666 -0.0129 -0.1688
 9098TIP3    H148785   2.036   2.602   4.579  1.9186 -0.5660  0.9081
 9098TIP3    H248786   2.024   2.523   4.450 -1.2548  0.1746  0.6828
 9099TIP3   OH248787   4.156   6.225   0.350  0.0094  0.2918 -0.7640
 9099TIP3    H148788   4.192   6.142   0.380  0.1747  0.0714 -1.5346
 9099TIP3    H248789   4.216   6.291   0.386  0.0806  0.0556 -0.4427
 9100TIP3   OH248790   5.806   1.178   5.187 -0.1650  0.4385  0.1241
 9100TIP3    H148791   5.773   1.089   5.182 -1.3373  0.9266 -1.4120
 9100TIP3    H248792   5.889   1.176   5.138 -0.9987  0.5054 -1.3531
 9101TIP3   OH248793   5.887   3.662  12.088  0.0569 -0.5814 -0.4438
 9101TIP3    H148794   5.975   3.699  12.085  0.4573 -1.5742 -1.8188
 9101TIP3    H248795   5.901   3.567  12.085 -1.0711 -0.7309 -1.6345
 9102TIP3   OH248796   4.886   4.633  12.730 -0.4088  0.3804 -0.0836
 9102TIP3    H148797   4.919   4.683  12.655 -0.4813  1.1083  0.3698
 9102TIP3    H248798   4.820   4.575  12.691 -0.1787  0.4791 -0.6427
 9103TIP3   OH248799   0.713   6.180   6.475 -0.4232  0.2849 -0.6849
 9103TIP3    H148800   0.664   6.133   6.408  1.7858 -1.9333 -0.8629
 9103TIP3    H248801   0.686   6.139   6.557  0.2078 -0.0740 -0.6595
 9104TIP3   OH248802   5.760   0.606   4.192  0.1411 -0.0335 -0.1953
 9104TIP3    H148803   5.683   0.609   4.250  1.1729 -0.0261  1.2091
 9104TIP3    H248804   5.806   0.688   4.209  0.8101 -0.3269 -0.5450
 9105TIP3   OH248805   4.092   6.481  14.512 -0.4902 -0.2692 -0.1097
 9105TIP3    H148806   4.076   6.461  14.604 -1.6776 -1.6453 -0.5684
 9105TIP3    H248807   4.178   6.444  14.494 -0.0486  0.4266  0.5600
 9106TIP3   OH248808   6.736   4.041   3.629 -0.2653 -0.2048  0.0147
 9106TIP3    H148809   6.662   4.101   3.623 -2.6708 -2.9413  0.1690
 9106TIP3    H248810   6.744   4.004   3.541  0.3946 -0.5356  0.2081
 9107TIP3   OH248811   1.925   4.739  13.591  0.3645 -0.5608 -0.3213
 9107TIP3    H148812   2.010   4.697  13.603  0.9163  0.6354  0.2118
 9107TIP3    H248813   1.940   4.830  13.617 -1.0396 -0.2850 -0.3942
 9108TIP3   OH248814   2.650   2.370   5.592 -0.2135  0.1406  0.2326
 9108TIP3    H148815   2.719   2.418   5.639  1.5346 -1.9943  0.0090
 9108TIP3    H248816   2.674   2.377   5.500 -1.3118  0.8392 -0.0138
 9109TIP3   OH248817   4.380   0.923  12.164  0.0870  0.4218 -0.5380
 9109TIP3    H148818   4.349   0.899  12.077 -0.2086  1.3880 -0.7094
 9109TIP3    H248819   4.457   0.977  12.148  0.7467 -0.3833 -0.1586
 9110TIP3   OH248820   6.444   2.382  13.652 -0.3754  0.8179 -0.5105
 9110TIP3    H148821   6.478   2.358  13.566  1.3756  0.4206  0.2391
 9110TIP3    H248822   6.442   2.300  13.702 -0.0582  1.2493  0.2363
 9111TIP3   OH248823   4.081   0.777   1.611  0.0111 -0.1944 -0.9149
 9111TIP3    H148824   4.086   0.834   1.687  0.6826 -0.4583 -0.7522
 9111TIP3    H248825   3.996   0.796   1.571  0.0371  0.5796 -0.6016
 9112TIP3   OH248826   2.683   6.058   4.560 -0.3628 -0.0157 -0.0612
 9112TIP3    H148827   2.691   6.118   4.485  1.1452  1.6182  1.3308
 9112TIP3    H248828   2.628   6.105   4.623  1.6001  0.3796  1.4365
 9113TIP3   OH248829   3.512   2.876  12.062 -0.3825 -0.2232 -0.5071
 9113TIP3    H148830   3.596   2.921  12.067 -0.6445  0.3164 -0.8763
 9113TIP3    H248831   3.474   2.906  11.980 -0.8010 -0.7076 -0.4947
 9114TIP3   OH248832   6.515   3.085  12.671 -0.5707 -0.1290 -0.0580
 9114TIP3    H148833   6.533   3.119  12.584  0.1826 -0.1288  0.0882
 9114TIP3    H248834   6.466   3.004  12.655 -0.1837 -0.2834 -0.4942
 9115TIP3   OH248835   3.377   5.517   5.687  0.0051 -0.6017  0.2138
 9115TIP3    H148836   3.353   5.431   5.652 -0.7122 -0.3777  0.1454
 9115TIP3    H248837   3.385   5.574   5.611  0.6000 -0.6325  0.2492
 9116TIP3   OH248838   1.209   3.934   2.816 -0.3651  0.1663  0.3222
 9116TIP3    H148839   1.163   3.912   2.735  0.0153 -0.6330  0.3123
 9116TIP3    H248840   1.144   3.981   2.868 -0.4955  1.0191 -0.5939
 9117TIP3   OH248841   5.753   6.679  12.859 -0.3299  0.6785 -0.0478
 9117TIP3    H148842   5.756   6.740  12.932  0.8054 -0.1308  0.6105
 9117TIP3    H248843   5.842   6.677  12.826 -0.2616 -0.8663  0.1638
 9118TIP3   OH248844   5.089   3.079   0.744 -0.9291 -0.1495 -0.6197
 9118TIP3    H148845   5.163   3.053   0.799 -1.1206  0.0497 -0.2613
 9118TIP3    H248846   5.048   2.996   0.718 -3.2617 -0.3015  2.8580
 9119TIP3   OH248847   4.362   5.945   3.425  0.1263 -0.0362  0.5253
 9119TIP3    H148848   4.411   5.924   3.505 -0.0773 -0.8240  0.4523
 9119TIP3    H248849   4.273   5.914   3.442 -0.2135  0.8789  0.4416
 9120TIP3   OH248850   2.450   0.695  15.129  0.3472 -0.1154  0.0115
 9120TIP3    H148851   2.397   0.623  15.165  0.9335 -0.2519  0.6190
 9120TIP3    H248852   2.386   0.760  15.100 -0.1786 -0.6914 -0.1419
 9121TIP3   OH248853   1.748   3.280   5.855  0.1868  1.0894  0.6133
 9121TIP3    H148854   1.701   3.279   5.939  0.7590 -0.0984  0.9408
 9121TIP3    H248855   1.742   3.190   5.824 -2.0433  1.9564 -1.8111
 9122TIP3   OH248856   4.525   3.632   0.711 -0.2582 -0.4972 -0.6463
 9122TIP3    H148857   4.574   3.579   0.648 -1.2105 -0.8726 -1.1025
 9122TIP3    H248858   4.459   3.678   0.658  0.7494  1.4321 -0.3024
 9123TIP3   OH248859   2.563   2.080  13.005  0.6541 -0.7537  0.1742
 9123TIP3    H148860   2.500   2.099  12.936  0.3162  0.7411  0.8548
 9123TIP3    H248861   2.539   1.992  13.035 -0.6122 -0.5252 -0.1152
 9124TIP3   OH248862   2.879   6.582   6.257  0.2824 -0.8269  0.0630
 9124TIP3    H148863   2.827   6.510   6.293  1.5785 -1.8392  0.0049
 9124TIP3    H248864   2.919   6.623   6.333 -0.8861  0.2241  0.1446
 9125TIP3   OH248865   4.892   4.977  15.436  0.2421  0.3633  0.7281
 9125TIP3    H148866   4.891   4.894  15.388 -2.3914  0.2259  0.8632
 9125TIP3    H248867   4.872   4.952  15.527 -0.4571  1.1126  0.7924
 9126TIP3   OH248868   3.626   0.988  14.359 -0.4626 -0.6519  0.2812
 9126TIP3    H148869   3.648   0.927  14.289 -1.0903 -1.3130  0.6488
 9126TIP3    H248870   3.643   0.940  14.440 -0.4804 -0.1629  0.5835
 9127TIP3   OH248871   4.058   6.298   5.206  0.0379  0.2746 -0.2928
 9127TIP3    H148872   4.022   6.243   5.275  1.3880 -1.0923 -0.6150
 9127TIP3    H248873   4.122   6.354   5.250  1.1444 -0.8315 -0.4440
 9128TIP3   OH248874   3.903   0.056  11.444 -0.1145 -0.2647 -0.2549
 9128TIP3    H148875   3.908   0.133  11.500 -2.3398  0.0594 -0.3883
 9128TIP3    H248876   3.856  -0.009  11.497  0.8944 -1.2200 -0.4902
 9129TIP3   OH248877   3.334   6.824   4.064 -0.0731 -0.0046  0.0017
 9129TIP3    H148878   3.274   6.755   4.091  2.1443 -2.1651 -0.1970
 9129TIP3    H248879   3.351   6.874   4.143 -1.0790 -0.2110  0.3525
 9130TIP3   OH248880   4.497   5.949  10.705  0.0780  0.4169 -0.7040
 9130TIP3    H148881   4.462   6.031  10.669 -0.3545  0.5855  0.0685
 9130TIP3    H248882   4.450   5.880  10.658  0.8353  0.5802 -1.7538
 9131TIP3   OH248883   5.168   0.927  12.833 -0.8158 -0.7735 -0.3488
 9131TIP3    H148884   5.222   0.996  12.870 -1.5527  0.8390 -2.1106
 9131TIP3    H248885   5.197   0.847  12.878  0.3062  0.5850  1.5011
 9132TIP3   OH248886   3.075   2.021   1.089  0.0310  0.4722 -0.2744
 9132TIP3    H148887   3.170   2.013   1.085  0.0797  1.5593 -2.4210
 9132TIP3    H248888   3.060   2.112   1.116 -0.5214 -0.7307  4.5517
 9133TIP3   OH248889   6.085   1.222   2.460 -0.1356  0.5459 -0.3756
 9133TIP3    H148890   6.107   1.308   2.425 -1.7216  0.7609 -0.9250
 9133TIP3    H248891   6.043   1.240   2.544 -2.0314  0.4747 -1.2495
 9134TIP3   OH248892   3.810   0.636  16.113  0.9769 -0.0293 -0.6986
 9134TIP3    H148893   3.823   0.729  16.095 -0.8781  0.5722  0.7088
 9134TIP3    H248894   3.718   0.621  16.093  1.3238 -1.6725 -1.2052
 9135TIP3   OH248895   2.251   4.775  16.322 -0.2882  0.2875 -0.1919
 9135TIP3    H148896   2.268   4.857  16.368 -2.4964 -0.6377  2.5234
 9135TIP3    H248897   2.312   4.713  16.361 -3.3356 -0.9265  3.0950
 9136TIP3   OH248898   1.230   2.415  10.271 -0.9464 -0.2752 -0.0061
 9136TIP3    H148899   1.291   2.485  10.294 -0.9431 -0.4209  0.4254
 9136TIP3    H248900   1.145   2.458  10.265 -0.7188  0.0512 -1.2280
 9137TIP3   OH248901   5.308   6.358   3.041  0.2744  0.1362 -0.4573
 9137TIP3    H148902   5.320   6.339   3.134  0.3780  0.1235 -0.4730
 9137TIP3    H248903   5.271   6.446   3.039  0.9676  0.4365 -0.4294
 9138TIP3   OH248904   6.428   5.100   3.590 -0.5012 -0.0392  0.2516
 9138TIP3    H148905   6.358   5.117   3.528  0.4165  0.8786 -0.5627
 9138TIP3    H248906   6.508   5.103   3.538  0.2895  0.6942  1.4543
 9139TIP3   OH248907   3.226   2.625  12.963 -0.1034  0.0188 -0.5217
 9139TIP3    H148908   3.216   2.569  13.040  0.6389  1.9201  1.0395
 9139TIP3    H248909   3.295   2.584  12.912  0.5097 -0.4313  0.6399
 9140TIP3   OH248910   5.763   3.366  10.378 -0.1790 -0.0447  0.1596
 9140TIP3    H148911   5.845   3.334  10.416 -0.8828 -0.3419  1.4612
 9140TIP3    H248912   5.777   3.461  10.367  1.6432 -0.5352 -3.0355
 9141TIP3   OH248913   2.167   2.311  12.387 -0.0235  0.0909  0.4217
 9141TIP3    H148914   2.199   2.220  12.383 -0.8938 -0.2070 -0.2362
 9141TIP3    H248915   2.074   2.302  12.405 -0.2527  0.8284 -0.3602
 9142TIP3   OH248916   2.733   3.539  13.473  0.8024 -0.3673  0.3248
 9142TIP3    H148917   2.642   3.514  13.456  0.3804 -0.0428  1.9463
 9142TIP3    H248918   2.772   3.547  13.386 -0.8294 -0.0886 -0.4249
 9143TIP3   OH248919   5.201   6.380   0.428  0.4049 -0.4412 -0.5604
 9143TIP3    H148920   5.139   6.448   0.402  0.1035 -0.4677  0.0946
 9143TIP3    H248921   5.158   6.298   0.405  1.2700 -0.4130 -2.4950
 9144TIP3   OH248922   0.763   6.048   2.945  0.1496 -0.1209 -0.0253
 9144TIP3    H148923   0.702   6.103   2.896  0.3757  0.8114  0.7179
 9144TIP3    H248924   0.717   6.028   3.027 -0.2944 -1.8103 -0.6333
 9145TIP3   OH248925   2.244   0.349   3.142 -0.0533 -0.3460  0.2226
 9145TIP3    H148926   2.239   0.430   3.194  0.1949 -0.3365  0.2327
 9145TIP3    H248927   2.168   0.354   3.083  1.2783  1.0949 -1.5066
 9146TIP3   OH248928   3.200   6.274  14.130 -0.3013 -0.0429  0.3078
 9146TIP3    H148929   3.210   6.191  14.177  1.0282  0.1114  0.3105
 9146TIP3    H248930   3.125   6.316  14.174  0.7668  0.0017  2.1876
 9147TIP3   OH248931   1.447   6.554  17.100 -0.1373  0.4195  0.3932
 9147TIP3    H148932   1.352   6.553  17.116 -0.0597  1.4695  0.9842
 9147TIP3    H248933   1.455   6.551  17.005 -0.8228  1.8062  0.2656
 9148TIP3   OH248934   5.517   5.887   3.038 -0.5134  0.7621 -0.0076
 9148TIP3    H148935   5.465   5.963   3.065  1.1025  2.1577 -0.6159
 9148TIP3    H248936   5.562   5.859   3.118 -1.6391 -0.0275  0.3710
 9149TIP3   OH248937   3.751   5.015   0.639 -0.5004 -0.6432 -0.7347
 9149TIP3    H148938   3.691   4.944   0.661 -0.4560 -0.7345 -0.9022
 9149TIP3    H248939   3.730   5.036   0.547  0.0980 -1.0479 -0.9700
 9150TIP3   OH248940   0.936   5.693   1.101 -0.3343 -0.5634  0.2882
 9150TIP3    H148941   0.996   5.705   1.026  0.3960 -0.0119  0.9403
 9150TIP3    H248942   0.963   5.760   1.164 -2.1721  0.2293  0.2929
 9151TIP3   OH248943   0.530   4.322   3.091 -1.1039  0.3602  0.3240
 9151TIP3    H148944   0.476   4.251   3.127 -0.6137  0.6709  1.6953
 9151TIP3    H248945   0.559   4.372   3.167  0.0004  1.0072 -0.4969
 9152TIP3   OH248946   6.153   1.741   1.085  0.0522  0.4745  0.0542
 9152TIP3    H148947   6.133   1.828   1.050  1.0859  0.4354 -0.6765
 9152TIP3    H248948   6.075   1.689   1.066  0.0935  0.7998 -1.0525
 9153TIP3   OH248949   3.026   0.992   1.022  0.2353  0.7406  0.1548
 9153TIP3    H148950   2.949   1.004   0.968  1.1078  2.0346 -0.8716
 9153TIP3    H248951   2.992   0.961   1.106 -1.2059 -0.6800 -0.8825
 9154TIP3   OH248952   0.251   3.387  16.651 -0.5128 -0.1297  0.4636
 9154TIP3    H148953   0.206   3.314  16.693  1.3753 -2.8914 -1.9529
 9154TIP3    H248954   0.339   3.386  16.689 -0.2379  0.4030 -0.1404
 9155TIP3   OH248955   1.594   0.291   3.314  0.3256 -0.0363  0.4266
 9155TIP3    H148956   1.659   0.257   3.376  0.7419  2.2291  1.3277
 9155TIP3    H248957   1.536   0.346   3.367  0.8644  2.2197 -1.1530
 9156TIP3   OH248958   1.335   2.168   0.100 -0.3982 -0.2062 -0.3016
 9156TIP3    H148959   1.343   2.198   0.191 -0.4724 -1.1548  0.0310
 9156TIP3    H248960   1.425   2.162   0.069 -0.2963 -1.1064  0.1340
 9157TIP3   OH248961   0.632   2.184   1.758 -0.0616  0.4399  0.1056
 9157TIP3    H148962   0.707   2.240   1.737 -0.1267  0.7181  0.5936
 9157TIP3    H248963   0.663   2.095   1.741 -0.1021  0.6356 -1.1031
 9158TIP3   OH248964   2.017   5.079   2.734  0.4058  0.7173 -0.3849
 9158TIP3    H148965   2.058   5.104   2.651 -0.5612  2.3348 -0.4197
 9158TIP3    H248966   2.034   5.153   2.793  0.9761 -0.3531  0.8498
 9159TIP3   OH248967   2.940   0.669  14.632 -0.6020  0.4080 -0.4946
 9159TIP3    H148968   2.893   0.662  14.549 -2.3397 -0.8270  0.5109
 9159TIP3    H248969   2.908   0.750  14.671 -0.7960  0.3095 -0.4489
 9160TIP3   OH248970   6.676   2.809  14.783 -0.6167 -0.3063  0.1891
 9160TIP3    H148971   6.583   2.810  14.809 -0.2695 -0.4929  1.5020
 9160TIP3    H248972   6.679   2.754  14.706 -1.6262 -0.1827  0.0478
 9161TIP3   OH248973   4.658   0.786  11.105 -0.0378  0.0873  0.2011
 9161TIP3    H148974   4.699   0.860  11.060 -0.2010  0.2370  0.2974
 9161TIP3    H248975   4.623   0.732  11.035 -0.0290  0.1652  0.1360
 9162TIP3   OH248976   3.053   4.686   3.348  0.2249 -0.0971 -0.4761
 9162TIP3    H148977   3.009   4.770   3.363 -0.6335 -0.4694 -0.8530
 9162TIP3    H248978   3.010   4.650   3.270  1.5984 -0.2075 -1.2229
 9163TIP3   OH248979   2.570   3.108  12.511  1.0829  0.7969  0.0048
 9163TIP3    H148980   2.650   3.160  12.514  1.4911  0.1497  0.6628
 9163TIP3    H248981   2.540   3.105  12.602  0.8655  0.2050 -0.0828
 9164TIP3   OH248982   2.919   6.471  13.377 -0.0096 -0.0979 -0.2654
 9164TIP3    H148983   2.960   6.452  13.461 -1.0135  1.7400  0.7160
 9164TIP3    H248984   2.865   6.394  13.358 -0.1277 -0.3503  1.0271
 9165TIP3   OH248985   6.366   4.238  15.187  0.2686  0.3875  0.1776
 9165TIP3    H148986   6.299   4.189  15.234  0.6289 -0.3258 -0.0338
 9165TIP3    H248987   6.436   4.251  15.251  0.7905 -0.6463 -0.1429
 9166TIP3   OH248988   5.462   4.326  12.279 -0.1969 -0.2210  0.0907
 9166TIP3    H148989   5.391   4.263  12.268  0.6201 -0.9454 -1.4852
 9166TIP3    H248990   5.419   4.411  12.276 -1.0075 -0.6410 -1.0962
 9167TIP3   OH248991   0.790   0.069   1.294 -0.0623  0.2865 -0.3738
 9167TIP3    H148992   0.799  -0.026   1.297  1.3232  0.3927  2.6522
 9167TIP3    H248993   0.711   0.088   1.344  2.3896  0.7824  3.7527
 9168TIP3   OH248994   5.602   0.847   2.744  0.0529  0.1177  0.8989
 9168TIP3    H148995   5.598   0.902   2.666 -0.6278  0.6272  1.2859
 9168TIP3    H248996   5.678   0.880   2.792 -1.7058  2.3709  2.3124
 9169TIP3   OH248997   2.454   5.543  11.050 -0.2527 -0.1460  0.0304
 9169TIP3    H148998   2.418   5.629  11.071  1.1597  0.3908  0.3991
 9169TIP3    H248999   2.445   5.492  11.130  0.8926  0.3945  0.5297
 9170TIP3   OH249000   5.893   3.656   4.524  0.3656 -0.6091 -0.0597
 9170TIP3    H149001   5.986   3.667   4.501  0.1083  1.6815 -0.2180
 9170TIP3    H249002   5.886   3.696   4.611 -0.8211  1.2056 -0.9249
 9171TIP3   OH249003   0.292   6.087  11.255  0.4651  0.0914  0.1455
 9171TIP3    H149004   0.226   6.095  11.324 -0.4421  1.4171 -0.8263
 9171TIP3    H249005   0.247   6.041  11.184  1.1959 -0.7028  0.1844
 9172TIP3   OH249006   0.405   4.944   3.354  0.2313  0.2142 -0.3239
 9172TIP3    H149007   0.359   4.905   3.280 -0.7958 -0.1261  0.4834
 9172TIP3    H249008   0.473   4.880   3.377  1.1924  0.7427 -1.5444
 9173TIP3   OH249009   0.296   4.603  13.387  0.0336  0.0628 -0.3655
 9173TIP3    H149010   0.387   4.595  13.415  0.6278  0.1176 -2.1694
 9173TIP3    H249011   0.247   4.608  13.469  1.4980 -1.3440  0.6842
 9174TIP3   OH249012   6.541   6.650   1.160  0.5982 -0.6912 -0.5955
 9174TIP3    H149013   6.629   6.639   1.195  0.8023  0.0999 -0.8331
 9174TIP3    H249014   6.497   6.567   1.178  0.2167  0.0988  2.8200
 9175TIP3   OH249015   3.232   0.072  14.622  0.0200  0.1299  0.3779
 9175TIP3    H149016   3.149   0.120  14.629  0.2706  0.2991  2.8035
 9175TIP3    H249017   3.296   0.127  14.666  0.8536 -1.2319  0.9458
 9176TIP3   OH249018   4.310   6.400   4.136 -0.3143 -0.1195 -0.0108
 9176TIP3    H149019   4.248   6.359   4.075 -0.4991  0.7848 -0.4528
 9176TIP3    H249020   4.287   6.493   4.134 -1.5769 -0.2788  2.9239
 9177TIP3   OH249021   5.176   4.812   0.570  0.1825  0.4890 -0.1557
 9177TIP3    H149022   5.178   4.720   0.544 -2.6809  0.3546 -0.1896
 9177TIP3    H249023   5.194   4.861   0.489  0.1426 -0.0190 -0.4745
 9178TIP3   OH249024   5.312   0.198   3.933 -0.2653  0.6077  0.1434
 9178TIP3    H149025   5.346   0.253   4.004  1.8502  0.6420 -0.8056
 9178TIP3    H249026   5.365   0.119   3.938 -0.9650  0.0862 -0.6093
 9179TIP3   OH249027   1.734   5.767  13.500 -0.7239 -0.0587 -0.3097
 9179TIP3    H149028   1.751   5.823  13.424 -0.1132  0.6472  0.3231
 9179TIP3    H249029   1.650   5.799  13.534  0.2152  1.3944  0.7951
 9180TIP3   OH249030   0.458   1.621  11.466 -0.2490  0.0485  0.3495
 9180TIP3    H149031   0.497   1.562  11.531  0.9683 -0.7441 -1.0371
 9180TIP3    H249032   0.511   1.700  11.470 -0.4695  0.1880  0.6184
 9181TIP3   OH249033   6.680   2.269  17.142  0.0427 -0.1012  0.3554
 9181TIP3    H149034   6.769   2.290  17.115  0.1722 -1.3855 -0.2708
 9181TIP3    H249035   6.639   2.232  17.063 -1.0301  0.4198  0.6486
 9182TIP3   OH249036   3.270   0.938   1.907  0.3796 -0.1445 -0.1236
 9182TIP3    H149037   3.303   0.850   1.923  1.2737  0.4264  1.4002
 9182TIP3    H249038   3.187   0.941   1.956  1.1328  0.3331  1.1676
 9183TIP3   OH249039   4.714   0.341   2.943  0.1043  0.1209  0.9584
 9183TIP3    H149040   4.731   0.435   2.949 -1.2742  0.4161  0.7837
 9183TIP3    H249041   4.688   0.316   3.031  2.0838 -0.4728  1.3998
 9184TIP3   OH249042   6.249   2.984   4.032 -0.6928 -0.0939 -0.3838
 9184TIP3    H149043   6.262   2.989   3.938  3.0666 -1.6274 -0.1010
 9184TIP3    H249044   6.207   2.899   4.046 -0.8119 -0.0710 -0.5934
 9185TIP3   OH249045   3.829   2.303   5.527 -0.1967  0.8728 -0.3761
 9185TIP3    H149046   3.839   2.212   5.553 -1.6893  1.0139  0.8364
 9185TIP3    H249047   3.868   2.308   5.440 -1.7656 -1.3388 -1.2770
 9186TIP3   OH249048   3.098   2.680  10.508  0.3935 -0.1264  0.5004
 9186TIP3    H149049   3.099   2.632  10.591  2.6841 -1.8601 -0.4492
 9186TIP3    H249050   3.005   2.681  10.482 -0.1202 -1.1899  2.1497
 9187TIP3   OH249051   2.730   5.856   1.443  0.1084 -0.3909  0.6769
 9187TIP3    H149052   2.794   5.816   1.502  0.0826  1.7104  2.2374
 9187TIP3    H249053   2.651   5.803   1.456  0.4194 -0.6300  1.7449
 9188TIP3   OH249054   5.323   2.498  14.122 -0.4313 -0.0309  0.1405
 9188TIP3    H149055   5.329   2.529  14.031 -0.7912  3.6311  1.2365
 9188TIP3    H249056   5.404   2.527  14.163 -0.6091 -0.9619  1.2059
 9189TIP3   OH249057   5.640   2.202   3.833  0.1240  0.9024  0.1474
 9189TIP3    H149058   5.604   2.120   3.800 -0.0997  0.4904  1.3437
 9189TIP3    H249059   5.633   2.263   3.760  0.2153 -0.1201 -0.7294
 9190TIP3   OH249060   0.787   1.038   1.520  0.0925  0.1938  0.4685
 9190TIP3    H149061   0.740   1.003   1.596  0.0847  1.4087  1.0306
 9190TIP3    H249062   0.736   1.114   1.492  0.4061  0.0986 -0.4149
 9191TIP3   OH249063   2.466   5.827  15.082  0.2245 -0.1441  0.3814
 9191TIP3    H149064   2.510   5.776  15.150  0.2090  0.7969  1.1307
 9191TIP3    H249065   2.412   5.764  15.035 -0.1934 -0.7341  1.6040
 9192TIP3   OH249066   4.022   4.255  14.914  0.4150  0.1062 -0.1440
 9192TIP3    H149067   3.967   4.263  14.992  0.1675  2.1297 -0.4839
 9192TIP3    H249068   4.109   4.285  14.943  0.1723  1.4979 -0.7555
 9193TIP3   OH249069   1.366   1.754  11.760 -0.0310  0.0741 -0.8431
 9193TIP3    H149070   1.314   1.701  11.821 -1.5993  1.9532 -0.4402
 9193TIP3    H249071   1.321   1.744  11.676  0.2847 -0.0292 -1.0009
 9194TIP3   OH249072   6.492   2.231   1.511  0.0606 -0.0705  0.5651
 9194TIP3    H149073   6.460   2.183   1.435  0.1675 -3.2308  2.3142
 9194TIP3    H249074   6.514   2.163   1.575  0.2707  2.3695  3.3337
 9195TIP3   OH249075   3.396   5.957  13.048  0.0318 -0.0292 -0.1931
 9195TIP3    H149076   3.344   5.896  13.101  1.4822 -0.2563  1.0387
 9195TIP3    H249077   3.484   5.952  13.085  0.2366  2.7781 -0.0611
 9196TIP3   OH249078   5.713   5.696  14.780  0.1085  0.4968 -0.0953
 9196TIP3    H149079   5.663   5.744  14.846  1.4085  1.1638  0.4328
 9196TIP3    H249080   5.780   5.757  14.750 -0.8812  0.4747 -2.6195
 9197TIP3   OH249081   5.514   1.715  13.294 -0.3050 -0.7475 -0.1027
 9197TIP3    H149082   5.572   1.639  13.288  0.3812 -0.4084  1.5312
 9197TIP3    H249083   5.464   1.714  13.213 -0.0647 -2.7326 -0.2740
 9198TIP3   OH249084   2.621   4.795   1.321  0.2929  0.4027 -0.0491
 9198TIP3    H149085   2.666   4.866   1.368  1.0225  1.9965 -2.9117
 9198TIP3    H249086   2.676   4.778   1.245 -0.5113 -2.4846 -0.1005
 9199TIP3   OH249087   0.380   0.648   2.322  0.0071  0.6325 -0.5427
 9199TIP3    H149088   0.355   0.730   2.364 -0.4235  0.3428 -0.2248
 9199TIP3    H249089   0.435   0.604   2.386 -0.7863  0.1147 -0.2063
 9200TIP3   OH249090   4.770   4.509   3.279 -0.1163 -0.2831 -0.0570
 9200TIP3    H149091   4.737   4.503   3.368  1.1429  1.6112  0.6061
 9200TIP3    H249092   4.864   4.526   3.289 -0.1085  0.9466 -1.6727
 9201TIP3   OH249093   0.850   2.055  16.977 -0.0987 -0.2322  0.2682
 9201TIP3    H149094   0.905   2.035  17.053  0.7748 -0.0354 -0.3022
 9201TIP3    H249095   0.813   2.141  16.996 -0.3414 -0.4328  0.7244
 9202TIP3   OH249096   3.228   1.239  15.140  0.4281 -0.8211 -0.0404
 9202TIP3    H149097   3.197   1.280  15.059 -0.4938  1.1555  1.2140
 9202TIP3    H249098   3.314   1.278  15.155 -0.0218 -0.0570  0.6429
 9203TIP3   OH249099   4.507   2.846  14.507 -0.1041  0.3484  0.2591
 9203TIP3    H149100   4.466   2.770  14.548  1.1546 -0.8204 -0.5548
 9203TIP3    H249101   4.568   2.809  14.444 -0.0901  2.0705 -0.7959
 9204TIP3   OH249102   3.321   0.787  12.488  0.6386 -0.0227  0.1679
 9204TIP3    H149103   3.302   0.857  12.425  0.2731 -0.2682  0.0031
 9204TIP3    H249104   3.257   0.719  12.467  0.6769 -0.2044  0.6461
 9205TIP3   OH249105   4.529   2.645  13.624  0.1318  0.4390 -0.1767
 9205TIP3    H149106   4.622   2.625  13.611  0.3296  1.6701 -0.7326
 9205TIP3    H249107   4.524   2.686  13.711  0.0544  0.0936 -0.0145
 9206TIP3   OH249108   1.264   5.608  11.162  0.4029  0.0846  0.4328
 9206TIP3    H149109   1.174   5.604  11.133  0.8749 -0.9886 -0.9988
 9206TIP3    H249110   1.304   5.676  11.108  0.9173 -0.8458 -0.3833
 9207TIP3   OH249111   5.038   2.207  14.431  0.3243  0.1269 -0.0703
 9207TIP3    H149112   5.049   2.223  14.525  0.6402  1.6508 -0.3217
 9207TIP3    H249113   4.958   2.254  14.408  0.1035 -0.4638 -0.5223
 9208TIP3   OH249114   4.748   3.211   2.478  0.5268  0.2670 -0.4564
 9208TIP3    H149115   4.745   3.143   2.546 -0.2852 -0.5737 -1.2944
 9208TIP3    H249116   4.703   3.285   2.517  0.8286  0.0932  0.2366
 9209TIP3   OH249117   0.334   6.278   4.237  0.5535  0.0689  0.1193
 9209TIP3    H149118   0.281   6.283   4.157  1.0884  1.9027 -0.1729
 9209TIP3    H249119   0.271   6.260   4.306 -0.1001 -0.2990 -0.5513
 9210TIP3   OH249120   0.220   2.788  13.417 -0.2325  0.6648 -0.0072
 9210TIP3    H149121   0.211   2.864  13.473  2.0111  1.0823 -0.1001
 9210TIP3    H249122   0.256   2.823  13.335 -1.0880 -0.2482 -0.7987
 9211TIP3   OH249123   6.125   3.158   1.188 -0.6647 -1.0534 -0.0990
 9211TIP3    H149124   6.051   3.200   1.232 -0.0311 -1.6756  1.6678
 9211TIP3    H249125   6.102   3.159   1.095 -1.5998  1.2770  0.1048
 9212TIP3   OH249126   3.726   1.829  15.256 -0.7787  0.1011  0.1737
 9212TIP3    H149127   3.644   1.816  15.304 -2.1955  1.1587 -1.8010
 9212TIP3    H249128   3.698   1.853  15.168  1.6903  0.0442 -0.6938
 9213TIP3   OH249129   4.416   0.159  12.494  0.1234 -0.3484 -0.4985
 9213TIP3    H149130   4.492   0.175  12.550  0.6450 -1.0128 -0.9947
 9213TIP3    H249131   4.453   0.151  12.406 -0.6563  0.4589 -0.9073
 9214TIP3   OH249132   3.653   6.361  10.574 -0.1550 -0.3968  0.2591
 9214TIP3    H149133   3.717   6.424  10.540 -0.4292 -0.3387 -0.1578
 9214TIP3    H249134   3.603   6.334  10.497 -0.5312 -0.5603  0.5580
 9215TIP3   OH249135   0.369   1.378   1.184  0.0024 -0.2987  0.0498
 9215TIP3    H149136   0.356   1.420   1.099 -0.1783 -0.2195  0.1154
 9215TIP3    H249137   0.316   1.430   1.244  0.6936  0.0936  0.3443
 9216TIP3   OH249138   4.625   2.373  13.183  0.6050 -0.9779  0.4000
 9216TIP3    H149139   4.702   2.350  13.131 -1.1191 -1.1034 -2.3527
 9216TIP3    H249140   4.614   2.467  13.169 -0.3008 -1.1482 -0.1448
 9217TIP3   OH249141   3.736   3.003   0.549 -0.3884 -0.2194  0.0098
 9217TIP3    H149142   3.771   3.074   0.495  0.4412 -0.6417 -0.0227
 9217TIP3    H249143   3.717   2.932   0.487 -0.3329 -0.3623  0.1533
 9218TIP3   OH249144   4.567   1.708  14.730 -0.0240 -0.0934 -0.5384
 9218TIP3    H149145   4.612   1.791  14.747  1.9948 -1.1811 -0.1866
 9218TIP3    H249146   4.509   1.726  14.656 -0.1182  1.7736 -0.0484
 9219TIP3   OH249147   5.391   0.642   1.781 -0.6172  0.5749 -0.7230
 9219TIP3    H149148   5.446   0.685   1.716 -1.7809  1.7903 -0.9311
 9219TIP3    H249149   5.412   0.549   1.773  3.7990  1.1123  1.3671
 9220TIP3   OH249150   2.544   3.598   3.122  0.3931  0.6219 -0.0624
 9220TIP3    H149151   2.492   3.676   3.136 -2.0686 -0.8095 -0.5766
 9220TIP3    H249152   2.606   3.622   3.054 -1.2775  1.7398 -1.2554
 9221TIP3   OH249153   5.652   0.601   2.012 -0.1075  0.1772 -0.0659
 9221TIP3    H149154   5.564   0.568   2.026  0.1230 -0.1477  0.6625
 9221TIP3    H249155   5.674   0.574   1.923 -0.8746  0.5870 -0.3930
 9222TIP3   OH249156   1.559   3.312   6.047  0.4853 -0.1287 -0.4369
 9222TIP3    H149157   1.616   3.338   6.119  1.7310 -0.4020 -1.2865
 9222TIP3    H249158   1.482   3.274   6.089  0.5863  0.9192  0.7555
 9223TIP3   OH249159   3.498   4.356   2.389 -0.0479  0.2133 -0.3237
 9223TIP3    H149160   3.591   4.379   2.388  0.2397 -0.6619  1.4574
 9223TIP3    H249161   3.494   4.269   2.351 -0.2718  0.5708 -1.1437
 9224TIP3   OH249162   4.775   6.044   2.001 -0.2109  0.4208  0.1092
 9224TIP3    H149163   4.792   6.044   2.095  3.9228  0.6095 -0.4576
 9224TIP3    H249164   4.781   6.136   1.975  0.5081  0.2029 -0.5527
 9225TIP3   OH249165   5.430   1.570  17.055 -0.6154  0.0073  0.7077
 9225TIP3    H149166   5.443   1.659  17.021  0.0957 -0.6913 -0.9120
 9225TIP3    H249167   5.493   1.563  17.127  0.3628  0.3514 -0.0843
 9226TIP3   OH249168   1.886   5.127   1.914  0.8254 -0.4644  0.0009
 9226TIP3    H149169   1.900   5.173   1.832  3.4388  0.5695  0.9278
 9226TIP3    H249170   1.828   5.183   1.964  3.0686  1.4421  0.6691
 9227TIP3   OH249171   6.099   5.828   2.316  0.5877 -0.2980 -0.0568
 9227TIP3    H149172   6.023   5.855   2.366  0.4001  1.3406 -1.1477
 9227TIP3    H249173   6.131   5.750   2.361 -1.0367 -0.3524  1.0958
 9228TIP3   OH249174   2.335   6.117   3.982 -0.0111  0.4491 -0.4306
 9228TIP3    H149175   2.246   6.136   3.954 -0.5030 -0.2078  0.6300
 9228TIP3    H249176   2.332   6.028   4.016  1.1359  0.2853 -0.7050
 9229TIP3   OH249177   4.275   1.731  13.663  0.3246 -1.0472  0.1839
 9229TIP3    H149178   4.299   1.787  13.589  0.6801 -2.5342 -0.8943
 9229TIP3    H249179   4.320   1.648  13.644 -1.0572 -2.0398  1.1296
 9230TIP3   OH249180   2.909   1.833  16.577  0.8397  0.2485  0.5609
 9230TIP3    H149181   2.883   1.925  16.572 -1.2093 -0.3580 -0.8126
 9230TIP3    H249182   2.949   1.814  16.492  0.3308 -0.3794  0.4507
 9231TIP3   OH249183   1.298   3.173  16.008 -0.0565 -0.4694 -0.2607
 9231TIP3    H149184   1.249   3.186  15.926 -1.5904  0.8938  0.7912
 9231TIP3    H249185   1.389   3.185  15.983 -0.3861 -1.0967 -1.9502
 9232TIP3   OH249186   5.928   4.974   1.480 -0.2169 -0.5248 -0.0593
 9232TIP3    H149187   6.007   4.965   1.533 -1.1084 -0.4517  1.3437
 9232TIP3    H249188   5.901   5.066   1.492 -1.7191 -1.1056  1.3056
 9233TIP3   OH249189   2.694   4.814  14.522 -0.3789  0.1898  0.4333
 9233TIP3    H149190   2.748   4.846  14.449 -0.6910 -1.1439 -0.4274
 9233TIP3    H249191   2.742   4.839  14.601 -0.5052  2.5219 -0.1781
 9234TIP3   OH249192   5.192   2.088  13.751 -0.1056  0.4007 -0.7480
 9234TIP3    H149193   5.259   2.127  13.696 -0.8166  3.8883  0.5812
 9234TIP3    H249194   5.237   2.071  13.834 -0.4816  1.4202 -0.3167
 9235TIP3   OH249195   2.220   2.786  15.792 -0.5255  0.3429  0.1878
 9235TIP3    H149196   2.264   2.807  15.710 -0.2870  3.3523  0.9899
 9235TIP3    H249197   2.288   2.747  15.848 -0.1996  0.1553 -0.3360
 9236TIP3   OH249198   2.657   4.662  15.483 -0.1593 -0.2444 -0.0141
 9236TIP3    H149199   2.695   4.679  15.397 -1.3508  1.3930 -0.2641
 9236TIP3    H249200   2.640   4.749  15.519 -3.2272 -0.8636  0.2562
 9237TIP3   OH249201   2.471   0.202  17.091  0.3108  0.2993 -0.4386
 9237TIP3    H149202   2.558   0.195  17.050  0.3532  1.0393 -0.4936
 9237TIP3    H249203   2.478   0.152  17.171  0.8368  0.4535 -0.3812
 9238TIP3   OH249204   1.807   0.452   4.784 -0.2172 -0.4817  0.3703
 9238TIP3    H149205   1.888   0.496   4.811 -1.1954  0.4504  1.9776
 9238TIP3    H249206   1.808   0.369   4.831  0.4414 -1.1038 -0.7070
 9239TIP3   OH249207   5.221   0.062   1.669  0.0612 -0.1467  0.2582
 9239TIP3    H149208   5.171   0.096   1.743 -0.0620  0.6441 -0.1852
 9239TIP3    H249209   5.263  -0.017   1.704  0.3193  0.4170  1.2904
 9240TIP3   OH249210   4.497   1.446  12.993 -0.0724 -0.2610  0.2469
 9240TIP3    H149211   4.548   1.440  12.912 -1.4477 -0.2769 -0.6517
 9240TIP3    H249212   4.472   1.538  12.998 -1.0438 -0.5018 -0.0306
 9241TIP3   OH249213   5.396   0.237   5.439  0.0822  0.8121  0.0502
 9241TIP3    H149214   5.364   0.150   5.415  1.2000  0.4554 -0.1956
 9241TIP3    H249215   5.491   0.229   5.436  0.2024  1.8542  0.7217
 9242TIP3   OH249216   6.359   1.785  16.323 -0.2734 -0.3798 -0.3731
 9242TIP3    H149217   6.375   1.701  16.367 -0.9196 -0.1971  0.2346
 9242TIP3    H249218   6.359   1.849  16.394 -1.4564 -0.0901 -0.6066
 9243TIP3   OH249219   5.370   3.526   2.764 -0.3776 -0.5281  0.2567
 9243TIP3    H149220   5.460   3.493   2.753 -0.2408  0.0594 -0.4433
 9243TIP3    H249221   5.366   3.603   2.708 -1.4943 -0.8629 -0.1420
 9244TIP3   OH249222   4.117   4.730  11.365 -0.1548  0.2069 -0.2428
 9244TIP3    H149223   4.034   4.721  11.317 -0.2087 -0.2174 -0.0729
 9244TIP3    H249224   4.175   4.775  11.303  0.2931 -1.7832 -1.3507
 9245TIP3   OH249225   1.680   2.217   0.554  0.1200  0.0068  0.0089
 9245TIP3    H149226   1.593   2.177   0.558  1.0765 -2.4215 -1.3692
 9245TIP3    H249227   1.669   2.294   0.497 -1.6052  1.4311  2.0895
 9246TIP3   OH249228   1.548   0.100  16.586  0.3123 -0.0470  0.0799
 9246TIP3    H149229   1.570   0.051  16.665 -0.3000  2.0207  1.6216
 9246TIP3    H249230   1.455   0.121  16.596 -0.2538 -1.2370 -2.0878
 9247TIP3   OH249231   6.262   6.485   1.788  0.0221  0.5725  0.3213
 9247TIP3    H149232   6.340   6.475   1.842  0.9122 -1.0144 -1.1551
 9247TIP3    H249233   6.289   6.541   1.715 -0.4346  0.6331  0.1923
 9248TIP3   OH249234   4.273   1.690   1.242 -0.1677  0.4533 -0.1239
 9248TIP3    H149235   4.305   1.655   1.159 -1.6966  0.7817 -0.8909
 9248TIP3    H249236   4.325   1.646   1.309  0.6143 -0.3461 -1.2300
 9249TIP3   OH249237   4.559   0.395   3.629  0.4730 -0.0929 -0.8418
 9249TIP3    H149238   4.621   0.324   3.642  0.5554 -0.2457 -1.9548
 9249TIP3    H249239   4.607   0.461   3.579  0.5854  1.0349  0.6748
 9250TIP3   OH249240   4.776   5.002  14.146  0.4676 -0.0407  0.4985
 9250TIP3    H149241   4.823   4.980  14.066  0.5228  3.5387 -0.6234
 9250TIP3    H249242   4.814   4.946  14.213  1.8386 -1.7272 -1.5775
 9251TIP3   OH249243   1.027   1.898  16.523 -0.2739  0.1972  0.1610
 9251TIP3    H149244   1.054   1.824  16.577  1.5434  0.1154 -0.7833
 9251TIP3    H249245   0.994   1.963  16.585  1.1218 -0.1623  1.3224
 9252TIP3   OH249246   4.851   4.747  11.280  0.4499  0.8841  0.1510
 9252TIP3    H149247   4.944   4.725  11.272  0.2836  0.6909 -1.8145
 9252TIP3    H249248   4.849   4.842  11.288  0.7944  1.0273 -1.2082
 9253TIP3   OH249249   2.978   2.108  10.885  0.1253 -0.5748 -0.1285
 9253TIP3    H149250   2.959   2.201  10.874 -0.8542 -0.9407 -1.9402
 9253TIP3    H249251   3.047   2.105  10.952 -0.5741  1.3585  0.7422
 9254TIP3   OH249252   0.078   3.499   2.597  0.5385 -0.1001 -0.2421
 9254TIP3    H149253  -0.005   3.486   2.644 -0.0601 -1.8910 -1.6786
 9254TIP3    H249254   0.106   3.587   2.622 -2.3763  1.0331 -0.5824
 9255TIP3   OH249255   5.104   1.292  13.892 -0.1407 -0.2246  0.2433
 9255TIP3    H149256   5.016   1.313  13.924 -0.6163 -1.4746 -0.1684
 9255TIP3    H249257   5.105   1.323  13.802 -0.1289 -0.1147  0.2816
 9256TIP3   OH249258   4.660   5.643   6.155 -0.9276 -1.0344  0.0718
 9256TIP3    H149259   4.602   5.579   6.196  1.2496 -2.0229  1.8543
 9256TIP3    H249260   4.741   5.594   6.140  0.5494  1.0707  0.7703
 9257TIP3   OH249261   6.107   1.447   0.544  0.1134 -0.8180 -0.0064
 9257TIP3    H149262   6.062   1.367   0.573  0.8067 -1.2315 -0.0371
 9257TIP3    H249263   6.081   1.513   0.607  0.3779 -1.3330  0.6563
 9258TIP3   OH249264   5.286   3.321   3.564 -0.2045 -0.5593 -0.3137
 9258TIP3    H149265   5.344   3.319   3.488  0.3024 -0.8218  0.0757
 9258TIP3    H249266   5.249   3.409   3.564  2.2549  0.5443  0.9620
 9259TIP3   OH249267   4.224   5.682  14.751  0.1812 -0.7153  0.0900
 9259TIP3    H149268   4.260   5.761  14.712 -0.3229 -0.3875  0.2739
 9259TIP3    H249269   4.141   5.667  14.706 -0.2043 -0.5706  0.7281
 9260TIP3   OH249270   4.992   5.174  15.865  0.1980 -0.2277 -0.0741
 9260TIP3    H149271   4.929   5.176  15.792  1.4421  0.5591 -1.1686
 9260TIP3    H249272   5.042   5.094  15.852  1.4423  0.6611 -1.0290
 9261TIP3   OH249273   5.899   1.941  11.573 -0.5342 -0.0104 -0.0818
 9261TIP3    H149274   5.839   1.871  11.597 -0.6260  0.0636 -0.0949
 9261TIP3    H249275   5.985   1.911  11.603 -0.3459 -0.7412 -1.3156
 9262TIP3   OH249276   3.862   0.299  15.768 -0.4044  0.8248 -0.4927
 9262TIP3    H149277   3.836   0.215  15.731 -0.7378  0.5352  0.3514
 9262TIP3    H249278   3.860   0.360  15.695 -0.4963  0.1649 -1.0471
 9263TIP3   OH249279   3.940   5.915   1.029  0.3244 -0.3699  0.3904
 9263TIP3    H149280   4.016   5.947   1.077 -0.4330 -0.3386  1.6076
 9263TIP3    H249281   3.958   5.821   1.016  1.2850 -0.0562 -0.7629
 9264TIP3   OH249282   0.754   6.193  11.050  0.0355  0.2896 -0.1318
 9264TIP3    H149283   0.719   6.276  11.082 -0.7559 -0.3897  0.7807
 9264TIP3    H249284   0.752   6.202  10.954 -1.7004  0.6403 -0.0849
 9265TIP3   OH249285   4.293   4.494   0.350  0.2076 -0.0038 -0.0495
 9265TIP3    H149286   4.256   4.415   0.312  0.5859  0.1429 -0.7343
 9265TIP3    H249287   4.229   4.521   0.415 -0.1939 -0.5553 -0.2058
 9266TIP3   OH249288   0.004   3.387   0.764 -0.0121  0.1433  0.0321
 9266TIP3    H149289   0.031   3.479   0.768  0.6791 -0.0717  0.6977
 9266TIP3    H249290   0.075   3.340   0.808 -0.9508 -0.5830  0.8221
 9267TIP3   OH249291   6.280   3.691  16.912  0.0541 -0.2184  0.5159
 9267TIP3    H149292   6.337   3.617  16.890  1.1357  0.8272 -0.2902
 9267TIP3    H249293   6.322   3.731  16.988  0.3201  0.4797  0.0018
 9268TIP3   OH249294   0.736   4.424  11.739  0.4396 -0.5834  0.4504
 9268TIP3    H149295   0.737   4.351  11.677 -0.0428  0.0874 -0.3588
 9268TIP3    H249296   0.655   4.470  11.721  0.3523 -0.3028  1.5113
 9269TIP3   OH249297   5.844   3.087  12.063 -0.1118 -0.3313 -0.3416
 9269TIP3    H149298   5.752   3.112  12.066 -0.0951 -0.3750  0.9344
 9269TIP3    H249299   5.881   3.120  12.145  0.7569 -1.2626 -0.3405
 9270TIP3   OH249300   2.400   1.142  16.013 -0.7374  0.1626  0.5972
 9270TIP3    H149301   2.405   1.111  15.923 -1.7188  0.7469  0.3339
 9270TIP3    H249302   2.475   1.200  16.022 -0.7127  0.2129  0.1132
 9271TIP3   OH249303   0.035   4.185  14.127 -0.3326 -0.0454 -0.6773
 9271TIP3    H149304   0.002   4.097  14.144 -0.1917  0.0985  0.4119
 9271TIP3    H249305   0.046   4.188  14.032  0.1331 -1.3723 -0.6902
 9272TIP3   OH249306   1.810   3.443   0.453  0.6142  0.1325 -0.8112
 9272TIP3    H149307   1.779   3.476   0.368  1.0305  1.4997 -0.4640
 9272TIP3    H249308   1.879   3.381   0.430 -0.5485 -0.9312 -1.5068
 9273TIP3   OH249309   6.292   4.527  12.820 -0.3977  0.1597  0.4574
 9273TIP3    H149310   6.325   4.550  12.907  1.5060 -0.9445  0.0896
 9273TIP3    H249311   6.284   4.610  12.774  2.9303  0.4955  0.2626
 9274TIP3   OH249312   5.145   4.144  11.898 -0.1283  0.7649  0.1306
 9274TIP3    H149313   5.051   4.129  11.900 -0.0821  0.5302  1.9504
 9274TIP3    H249314   5.165   4.160  11.806 -2.0949  1.8049 -0.1565
 9275TIP3   OH249315   6.566   6.525  11.161  0.5081  0.6197  0.3399
 9275TIP3    H149316   6.604   6.488  11.241  1.2903  1.4390  0.3638
 9275TIP3    H249317   6.634   6.584  11.128 -0.1724  0.9798 -0.4409
 9276TIP3   OH249318   3.128   2.356  11.635  0.7083 -0.7349  0.3226
 9276TIP3    H149319   3.051   2.412  11.628  1.1667  0.0883  1.5101
 9276TIP3    H249320   3.094   2.267  11.627 -0.1481 -0.3224 -0.7158
 9277TIP3   OH249321   3.369   0.772  12.818  0.3948  0.1124  0.0172
 9277TIP3    H149322   3.419   0.787  12.737 -0.3628  0.6504 -0.3652
 9277TIP3    H249323   3.413   0.826  12.883  1.2978 -0.6887  0.0911
 9278TIP3   OH249324   6.781   5.132   5.440  0.2216 -0.0307 -0.0780
 9278TIP3    H149325   6.742   5.220   5.444 -2.2991 -1.0950  1.1732
 9278TIP3    H249326   6.778   5.100   5.530  1.7644 -1.1797 -0.3893
 9279TIP3   OH249327   3.859   2.286  11.379 -0.4836 -0.4513  0.1517
 9279TIP3    H149328   3.814   2.334  11.448  1.6885 -0.1582  1.4831
 9279TIP3    H249329   3.826   2.324  11.298 -2.1011  0.1653  1.0621
 9280TIP3   OH249330   3.258   2.596  11.192  0.1413  0.2697 -0.3439
 9280TIP3    H149331   3.239   2.533  11.123  0.5618  0.7610 -0.9138
 9280TIP3    H249332   3.176   2.605  11.240 -0.1847  0.0241 -0.8552
 9281TIP3   OH249333   3.520   6.453  15.133  0.6038 -0.1014  0.0385
 9281TIP3    H149334   3.428   6.433  15.148  0.5159  0.5038  0.3608
 9281TIP3    H249335   3.568   6.393  15.190  0.5149 -1.8481 -1.6276
 9282TIP3   OH249336   0.619   5.897   4.668  0.5439  0.6181 -0.5341
 9282TIP3    H149337   0.527   5.872   4.671  0.6670  0.0785 -1.0929
 9282TIP3    H249338   0.627   5.968   4.732 -0.0630  0.0433  0.1926
 9283TIP3   OH249339   5.625   5.648   1.076  0.5987  0.2250  0.7096
 9283TIP3    H149340   5.612   5.707   1.151 -0.5492  0.6709  0.1739
 9283TIP3    H249341   5.703   5.683   1.032  1.1893  0.0589  1.5743
 9284TIP3   OH249342   4.325   1.966   4.286  0.1960 -0.2437  0.6894
 9284TIP3    H149343   4.358   1.947   4.374 -2.0165 -0.9980  1.4178
 9284TIP3    H249344   4.342   1.886   4.236  1.6634  0.2668  0.3157
 9285TIP3   OH249345   3.963   2.233  14.687  0.6230  0.8730 -0.0811
 9285TIP3    H149346   4.016   2.210  14.610  1.0310  1.2932  0.0662
 9285TIP3    H249347   4.026   2.235  14.759  0.3022  0.8197  0.2016
 9286TIP3   OH249348   1.201   3.625   0.323 -0.1521 -0.4123 -0.1339
 9286TIP3    H149349   1.172   3.534   0.330  0.1589 -0.4772  0.3509
 9286TIP3    H249350   1.221   3.651   0.413  0.7808 -0.2029 -0.3911
 9287TIP3   OH249351   5.120   2.782  13.243 -0.5122  0.5046 -0.2112
 9287TIP3    H149352   5.034   2.769  13.283  0.6924 -0.8078  2.1585
 9287TIP3    H249353   5.139   2.699  13.199 -0.5167  0.8693 -0.9213
 9288TIP3   OH249354   5.644   3.385  14.296 -0.1295 -0.5736  0.5626
 9288TIP3    H149355   5.594   3.437  14.359  1.3567 -0.5720  1.8248
 9288TIP3    H249356   5.578   3.343  14.241 -1.5137  4.3473 -2.1401
 9289TIP3   OH249357   1.178   4.464   3.932  0.1887  0.5626 -0.0979
 9289TIP3    H149358   1.250   4.453   3.870  0.9036 -0.0343  0.8156
 9289TIP3    H249359   1.219   4.456   4.018 -0.9898  0.1245  0.4364
 9290TIP3   OH249360   6.129   3.052   5.004 -0.3530  0.4725 -0.2562
 9290TIP3    H149361   6.101   2.972   5.047  1.3618 -0.8692 -1.4426
 9290TIP3    H249362   6.068   3.063   4.931 -0.3181 -0.0456 -0.3685
 9291TIP3   OH249363   4.503   1.416   2.635 -0.0067  0.3906  0.1681
 9291TIP3    H149364   4.433   1.352   2.634 -0.5406  0.9129  1.8825
 9291TIP3    H249365   4.500   1.457   2.548 -1.9252  0.5138  0.2675
 9292TIP3   OH249366   5.093   2.513  15.409 -0.2400 -0.5401 -0.6244
 9292TIP3    H149367   5.171   2.462  15.430  0.1050  0.9993  2.4347
 9292TIP3    H249368   5.118   2.568  15.335  0.6634 -1.8787 -1.3582
 9293TIP3   OH249369   5.496   1.455   5.906 -0.4798 -0.0341 -0.1665
 9293TIP3    H149370   5.418   1.494   5.865 -1.6742 -1.3070  0.8179
 9293TIP3    H249371   5.467   1.369   5.935  2.1779 -1.9684 -2.7033
 9294TIP3   OH249372   1.037   0.009   5.122  0.1340 -0.0828  0.1560
 9294TIP3    H149373   1.099  -0.015   5.190  0.1484  1.8178  0.8858
 9294TIP3    H249374   0.956  -0.035   5.147  0.8989 -1.7924 -0.2680
 9295TIP3   OH249375   5.487   1.072  14.564  0.1424 -0.0278  0.3390
 9295TIP3    H149376   5.534   1.024  14.632  2.1793  0.2531 -0.7905
 9295TIP3    H249377   5.395   1.060  14.586  0.6611 -1.9584  1.7669
 9296TIP3   OH249378   0.428   1.907   2.813  0.1351  0.0009  0.3501
 9296TIP3    H149379   0.373   1.863   2.878 -0.5255  1.2227  0.6550
 9296TIP3    H249380   0.497   1.949   2.865  1.9596 -2.2190 -0.0861
 9297TIP3   OH249381   1.856   1.471   2.675  0.2979 -0.5365 -0.4251
 9297TIP3    H149382   1.845   1.557   2.716  1.0887 -0.0723 -1.1396
 9297TIP3    H249383   1.858   1.409   2.747  1.0368  0.1939  0.2005
 9298TIP3   OH249384   2.404   2.307  13.680  0.1765  0.6672 -0.1853
 9298TIP3    H149385   2.315   2.303  13.713 -0.2212 -0.3195 -1.3239
 9298TIP3    H249386   2.396   2.343  13.591  0.9530  0.9744 -0.1407
 9299TIP3   OH249387   0.303   3.207  14.670 -0.2853  0.2946 -0.0351
 9299TIP3    H149388   0.278   3.248  14.586 -0.0246  0.1467 -0.1858
 9299TIP3    H249389   0.282   3.115  14.659  0.5163  0.1293 -0.2435
 9300TIP3   OH249390   2.371   0.535  13.939  0.0913 -0.2399 -0.1570
 9300TIP3    H149391   2.321   0.519  14.019 -0.0529 -4.6651 -0.9169
 9300TIP3    H249392   2.385   0.630  13.939 -2.8259  0.4245  3.2974
 9301TIP3   OH249393   4.759   2.711  12.874  0.7357  0.1868  0.0952
 9301TIP3    H149394   4.839   2.745  12.833  0.6913 -0.6769 -0.7607
 9301TIP3    H249395   4.790   2.641  12.932  0.5858 -0.4584 -0.5822
 9302TIP3   OH249396   4.885   0.908   1.966 -0.0824 -0.5013  0.0091
 9302TIP3    H149397   4.819   0.877   2.029 -0.8515  0.0666 -0.4973
 9302TIP3    H249398   4.836   0.923   1.886  0.4050  1.2326 -0.0060
 9303TIP3   OH249399   4.814   5.404   1.748  0.3731  0.3835  0.5133
 9303TIP3    H149400   4.739   5.456   1.718  0.7461 -0.0467 -1.2635
 9303TIP3    H249401   4.887   5.435   1.695  1.0634 -0.4777  0.9419
 9304TIP3   OH249402   0.094   4.406  14.697 -0.3560 -0.0184  0.6766
 9304TIP3    H149403   0.113   4.312  14.698  0.0839  0.0801  1.2987
 9304TIP3    H249404   0.062   4.425  14.785  0.4544  0.6025  0.8453
 9305TIP3   OH249405   3.807   2.392  14.955  0.1854  0.0953  0.2909
 9305TIP3    H149406   3.731   2.426  15.002 -0.4476 -1.6915  0.6441
 9305TIP3    H249407   3.772   2.319  14.904  1.1470  1.0338 -1.8268
 9306TIP3   OH249408   1.628   3.215  10.690  0.4460  0.1044 -0.2494
 9306TIP3    H149409   1.612   3.287  10.751 -3.0465  0.6367 -1.5712
 9306TIP3    H249410   1.626   3.137  10.744 -0.1935  0.7208  0.6426
 9307TIP3   OH249411   1.167   2.945  15.884 -0.5223  0.3594 -0.1966
 9307TIP3    H149412   1.081   2.921  15.849 -0.7127  0.0974  0.4386
 9307TIP3    H249413   1.178   2.889  15.961  1.3445 -1.5330 -1.7108
 9308TIP3   OH249414   6.819   5.752   6.463  0.2567  0.3605 -0.1793
 9308TIP3    H149415   6.840   5.722   6.374  2.3859 -0.8202  0.6479
 9308TIP3    H249416   6.866   5.692   6.520 -0.0276  1.8648  1.7387
 9309TIP3   OH249417   4.269   3.850  13.588  0.5292 -0.7401 -0.2205
 9309TIP3    H149418   4.358   3.829  13.614  0.5450 -0.5499 -0.1208
 9309TIP3    H249419   4.217   3.776  13.618  0.4281 -0.1890  1.0169
 9310TIP3   OH249420   0.902   2.134   0.113 -0.2056 -0.3962  0.3242
 9310TIP3    H149421   0.958   2.058   0.093  1.0269  0.8341 -1.1744
 9310TIP3    H249422   0.948   2.179   0.184 -0.6802 -0.7648  0.8744
 9311TIP3   OH249423   6.248   2.619   4.602  0.0165 -0.6936 -0.0897
 9311TIP3    H149424   6.327   2.571   4.625  1.2090  0.3567 -1.7140
 9311TIP3    H249425   6.198   2.625   4.683  2.0262 -0.6605  1.2039
 9312TIP3   OH249426   3.566   2.212   0.110 -0.3147 -0.0329 -0.3877
 9312TIP3    H149427   3.528   2.190   0.024 -1.3237  0.1758 -0.0123
 9312TIP3    H249428   3.529   2.147   0.169  0.4239 -0.2081 -0.1166
 9313TIP3   OH249429   6.693   5.078  15.241  0.6220  0.0208 -0.4672
 9313TIP3    H149430   6.773   5.130  15.248 -0.2016  1.1497  1.0011
 9313TIP3    H249431   6.627   5.141  15.210 -0.2772 -0.2455  0.8524
 9314TIP3   OH249432   2.165   1.319  16.579 -0.5068 -0.1791  0.1288
 9314TIP3    H149433   2.154   1.248  16.643 -2.0328  0.8686  1.1135
 9314TIP3    H249434   2.117   1.289  16.502 -1.7791  0.0289  0.7984
 9315TIP3   OH249435   6.026   6.781  16.224 -0.0374  0.5816 -0.7510
 9315TIP3    H149436   6.087   6.758  16.294 -0.9601  0.7319  0.1250
 9315TIP3    H249437   6.066   6.746  16.144  1.0254  0.4008 -0.1480
 9316TIP3   OH249438   6.446   6.447   4.493 -0.2848  0.3896  0.0127
 9316TIP3    H149439   6.530   6.487   4.468  0.5203 -0.4577  1.2156
 9316TIP3    H249440   6.385   6.474   4.424  1.5337 -0.9596 -2.2783
 9317TIP3   OH249441   3.501   5.405   3.103 -0.0672  0.5955  0.1000
 9317TIP3    H149442   3.519   5.446   3.018 -0.2816 -1.1051 -0.8111
 9317TIP3    H249443   3.424   5.350   3.087  0.5869 -0.6545  1.0792
 9318TIP3   OH249444   0.542   5.473  14.433 -0.1612 -0.2337  0.5024
 9318TIP3    H149445   0.582   5.492  14.349 -0.3788  0.3897  0.5310
 9318TIP3    H249446   0.448   5.470  14.415 -0.3538  1.6653  1.0171
 9319TIP3   OH249447   3.638   2.509   2.121  0.3695  0.5356  0.1450
 9319TIP3    H149448   3.686   2.434   2.086  1.1875  0.8465  0.5709
 9319TIP3    H249449   3.630   2.491   2.215 -0.0451  0.6478  0.1303
 9320TIP3   OH249450   1.637   6.137  15.047 -0.4176 -0.1979  0.2712
 9320TIP3    H149451   1.704   6.191  15.007 -1.5398  1.0499  0.0035
 9320TIP3    H249452   1.556   6.188  15.038 -0.9776 -0.4639  2.8747
 9321TIP3   OH249453   0.953   3.006   1.104  0.5621 -0.6994  0.2009
 9321TIP3    H149454   0.993   2.921   1.085  2.3965 -0.2520  1.6334
 9321TIP3    H249455   0.994   3.066   1.042  0.3794 -0.6308  0.1482
 9322TIP3   OH249456   0.935   5.698  13.939  0.2321  0.4530 -0.0634
 9322TIP3    H149457   0.900   5.764  13.999  1.1543 -0.3559  1.4249
 9322TIP3    H249458   0.927   5.738  13.852 -0.2299  2.0677  0.6860
 9323TIP3   OH249459   3.706   3.575  10.991 -0.4145  0.1424  0.0127
 9323TIP3    H149460   3.788   3.554  10.945 -0.2063  1.1400 -0.0849
 9323TIP3    H249461   3.666   3.489  11.007  1.8325 -0.6082  2.2658
 9324TIP3   OH249462   2.236   1.554  13.149 -0.7553  0.4523 -0.2076
 9324TIP3    H149463   2.280   1.537  13.066 -0.1059 -0.5201  0.3129
 9324TIP3    H249464   2.249   1.473  13.200 -0.7441  1.1936  1.0047
 9325TIP3   OH249465   1.650   0.973  15.848 -0.2804  0.3049  0.0213
 9325TIP3    H149466   1.619   1.062  15.864  0.2408  0.5927 -0.4959
 9325TIP3    H249467   1.631   0.926  15.929  1.3986  1.4426  1.1456
 9326TIP3   OH249468   5.380   5.160  16.322 -0.1119 -0.3388  0.3538
 9326TIP3    H149469   5.403   5.243  16.363 -0.3535 -0.4825  0.7895
 9326TIP3    H249470   5.464   5.124  16.293 -0.0357  0.1815 -0.0861
 9327TIP3   OH249471   1.539   3.042  16.255 -0.2052  0.0995  0.6862
 9327TIP3    H149472   1.478   3.114  16.271 -1.6931 -1.0791  0.4814
 9327TIP3    H249473   1.513   2.973  16.316  0.1362 -0.8744 -0.2360
 9328TIP3   OH249474   5.629   6.221  13.528 -0.1363  0.1173 -0.1039
 9328TIP3    H149475   5.563   6.258  13.587 -0.4158  0.4150 -0.5966
 9328TIP3    H249476   5.584   6.150  13.483 -0.5537  1.1777 -1.4276
 9329TIP3   OH249477   0.346   0.921  16.221 -0.0037  0.0113  0.4578
 9329TIP3    H149478   0.391   0.839  16.200  1.9066  0.9085  0.8186
 9329TIP3    H249479   0.372   0.939  16.312 -0.4555  0.9834  0.4064
 9330TIP3   OH249480   0.776   2.340  11.652 -0.5128 -0.3660  0.1346
 9330TIP3    H149481   0.780   2.283  11.576  0.1984 -0.5465  0.2971
 9330TIP3    H249482   0.685   2.371  11.655 -0.8847 -1.4123 -0.0037
 9331TIP3   OH249483   4.893   2.427   4.927  0.4837 -0.7819 -0.6233
 9331TIP3    H149484   4.921   2.348   4.974  0.7833 -1.3579 -1.7450
 9331TIP3    H249485   4.801   2.410   4.905  0.2337 -0.3561  0.0438
 9332TIP3   OH249486   2.422   3.023  16.815 -0.4990 -0.0271 -0.4389
 9332TIP3    H149487   2.498   2.979  16.853  0.6924  1.8928 -0.4398
 9332TIP3    H249488   2.458   3.101  16.773 -2.4139  0.6224 -0.9913
 9333TIP3   OH249489   2.354   1.056   2.105 -0.7601 -0.9546  0.1532
 9333TIP3    H149490   2.381   1.121   2.040 -1.2945 -2.2812 -1.4731
 9333TIP3    H249491   2.276   1.015   2.067 -2.2421 -0.5271  2.5088
 9334TIP3   OH249492   3.494   0.093   1.407  0.2283  0.2395 -0.0436
 9334TIP3    H149493   3.558   0.028   1.438 -0.0336 -0.1641 -0.3405
 9334TIP3    H249494   3.490   0.157   1.478  0.4972 -0.0612  0.2518
 9335TIP3   OH249495   0.184   5.797   0.413 -0.1421 -0.1758 -0.3593
 9335TIP3    H149496   0.237   5.875   0.396 -1.3151  0.5504 -0.8180
 9335TIP3    H249497   0.104   5.831   0.451 -0.3889 -1.2331  0.0994
 9336TIP3   OH249498   5.534   0.383  12.345 -0.2697 -0.3090 -0.1452
 9336TIP3    H149499   5.539   0.293  12.375 -0.1180 -0.1500  0.3156
 9336TIP3    H249500   5.467   0.424  12.400  1.4179  0.5134  1.4075
 9337TIP3   OH249501   5.182   6.581   2.054  0.4213  0.1568  0.3399
 9337TIP3    H149502   5.140   6.646   2.109 -0.0543  0.0699  0.0872
 9337TIP3    H249503   5.212   6.513   2.115 -1.6049 -0.7881  0.3908
 9338TIP3   OH249504   6.517   0.337  15.906 -0.4754 -0.1819 -0.5376
 9338TIP3    H149505   6.565   0.419  15.898 -1.0025  0.6926  3.3465
 9338TIP3    H249506   6.432   0.355  15.866  0.1377  0.4044 -1.6173
 9339TIP3   OH249507   0.025   4.447  16.815 -0.5866 -0.4747  0.1257
 9339TIP3    H149508   0.062   4.408  16.894 -1.8043  0.1564  1.0423
 9339TIP3    H249509  -0.059   4.401  16.803 -0.2617 -0.8099 -1.0139
 9340TIP3   OH249510   1.170   2.537  16.597  0.0763  0.1574 -0.0823
 9340TIP3    H149511   1.156   2.618  16.646 -0.5098  0.5532 -0.8873
 9340TIP3    H249512   1.248   2.553  16.545 -0.4995  0.5201 -0.8562
 9341TIP3   OH249513   3.808   1.636   4.826  0.0452  0.2290 -0.1642
 9341TIP3    H149514   3.723   1.590   4.823 -0.1665  0.4477  1.4424
 9341TIP3    H249515   3.869   1.570   4.858  0.1258  0.5309  0.3134
 9342TIP3   OH249516   0.250   4.038  12.973 -0.2305 -0.0282  0.2838
 9342TIP3    H149517   0.325   4.023  13.030  0.7767  1.0364 -0.7115
 9342TIP3    H249518   0.224   4.129  12.991 -2.0745 -0.7321  1.4807
 9343TIP3   OH249519   1.522   2.647   6.562 -0.3810 -0.2472  0.2833
 9343TIP3    H149520   1.587   2.587   6.525 -1.1537 -0.8937 -0.0621
 9343TIP3    H249521   1.454   2.589   6.598  0.2593  0.3516  2.6038
 9344TIP3   OH249522   5.013   4.428   5.306 -0.6585  0.0190 -0.2864
 9344TIP3    H149523   4.984   4.509   5.265  0.9630  0.6661 -0.2260
 9344TIP3    H249524   5.071   4.387   5.241  1.2524  0.6310  0.9374
 9345TIP3   OH249525   3.259   2.513   0.070 -0.2565  0.3500 -0.2261
 9345TIP3    H149526   3.340   2.513   0.120  1.5805 -0.0588 -3.0019
 9345TIP3    H249527   3.229   2.422   0.073  1.5939 -0.4085 -2.3789
 9346TIP3   OH249528   3.392   0.834  13.980 -0.2496 -0.6778  0.1589
 9346TIP3    H149529   3.299   0.856  13.985 -0.0491  0.8498 -1.5787
 9346TIP3    H249530   3.398   0.770  13.909 -0.0589 -1.4494  0.8591
 9347TIP3   OH249531   2.119   4.284   3.457 -0.3006 -0.3534  0.0707
 9347TIP3    H149532   2.034   4.320   3.480 -1.2998 -2.1927 -0.5139
 9347TIP3    H249533   2.159   4.261   3.541 -1.6107 -2.0300  0.2946
 9348TIP3   OH249534   3.851   3.149   4.399 -0.0941 -0.7066 -0.1905
 9348TIP3    H149535   3.799   3.191   4.331  0.0352 -1.2338 -0.6199
 9348TIP3    H249536   3.925   3.110   4.352  0.5101 -0.2550  0.3664
 9349TIP3   OH249537   2.667   3.995  13.168 -0.0224 -0.0494 -0.1438
 9349TIP3    H149538   2.581   4.003  13.128 -0.9287 -0.6801  1.5972
 9349TIP3    H249539   2.667   4.056  13.241  1.9969  1.8707 -1.6114
 9350TIP3   OH249540   0.486   6.373   1.976  0.3981 -0.1123  0.1955
 9350TIP3    H149541   0.496   6.384   1.881  0.5878  1.7152  0.3750
 9350TIP3    H249542   0.535   6.447   2.013 -0.3001 -0.3693  1.6772
 9351TIP3   OH249543   4.901   0.773  15.489 -0.1544 -0.2432 -0.6243
 9351TIP3    H149544   4.934   0.818  15.566  0.2030 -1.4600 -0.0478
 9351TIP3    H249545   4.837   0.834  15.451  1.1988  1.2612 -0.5938
 9352TIP3   OH249546   1.965   0.594   0.700  0.2321  0.0444  0.6293
 9352TIP3    H149547   2.056   0.596   0.729  0.0182  1.4476  1.2387
 9352TIP3    H249548   1.967   0.634   0.613  0.2693 -0.5017  0.3695
 9353TIP3   OH249549   5.398   0.288  11.451 -0.1611  0.0681 -0.0538
 9353TIP3    H149550   5.336   0.228  11.492 -1.4067  1.1898 -0.1937
 9353TIP3    H249551   5.438   0.238  11.381 -2.5153 -0.1361 -1.3673
 9354TIP3   OH249552   3.605   6.774   0.570  0.2831 -0.2958 -0.4542
 9354TIP3    H149553   3.640   6.847   0.621  1.5916 -1.4940  0.4174
 9354TIP3    H249554   3.548   6.728   0.631  2.0655 -1.8948  0.1039
 9355TIP3   OH249555   1.767   3.221   1.838 -0.0327  0.4877  0.0301
 9355TIP3    H149556   1.835   3.224   1.905 -1.3596 -1.1811  1.5514
 9355TIP3    H249557   1.738   3.312   1.830  0.9766  0.9066  0.8413
 9356TIP3   OH249558   4.461   3.210   4.254 -0.1181  0.0451 -0.6102
 9356TIP3    H149559   4.534   3.158   4.287 -0.9427 -1.8803 -1.6654
 9356TIP3    H249560   4.406   3.147   4.207 -1.3733  1.8177 -1.6245
 9357TIP3   OH249561   4.567   4.145   0.284  0.2361 -0.3152  0.5407
 9357TIP3    H149562   4.631   4.080   0.257  0.8689  0.5489 -0.1276
 9357TIP3    H249563   4.542   4.189   0.202  1.1579  1.4418  1.1561
 9358TIP3   OH249564   4.362   4.497  13.253  0.2612 -0.2651 -0.4542
 9358TIP3    H149565   4.349   4.420  13.198 -1.7433 -0.0015 -0.4184
 9358TIP3    H249566   4.421   4.467  13.323  0.1794 -1.5134 -0.9016
 9359TIP3   OH249567   0.934   0.724   3.531  0.1166 -0.0198  0.2930
 9359TIP3    H149568   0.909   0.738   3.622 -1.8868  0.8451 -0.3351
 9359TIP3    H249569   0.926   0.810   3.490  0.7752 -0.4370 -0.7421
 9360TIP3   OH249570   1.518   2.414  16.461  0.7402  0.4809  0.1586
 9360TIP3    H149571   1.484   2.331  16.495  0.3624  0.7243  0.3798
 9360TIP3    H249572   1.484   2.418  16.371  1.5846 -0.0731 -0.1923
 9361TIP3   OH249573   1.783   0.803  12.613  0.1296  0.0346  0.5341
 9361TIP3    H149574   1.809   0.814  12.522 -0.6254 -0.5764  0.2370
 9361TIP3    H249575   1.816   0.717  12.637 -3.1353 -1.6226 -0.4367
 9362TIP3   OH249576   0.195   0.394   4.462 -0.0933 -0.2414  0.0658
 9362TIP3    H149577   0.140   0.471   4.451  0.3504 -0.0585 -1.0364
 9362TIP3    H249578   0.275   0.414   4.413 -0.0251 -1.4386 -0.3685
 9363TIP3   OH249579   0.677   2.698   5.204 -0.3882  0.0220 -0.2231
 9363TIP3    H149580   0.732   2.752   5.261  0.1240  0.2378 -0.9144
 9363TIP3    H249581   0.622   2.760   5.157 -0.3321 -0.1139 -0.4655
 9364TIP3   OH249582   2.446   5.676   4.611 -0.4065  0.0379 -0.0278
 9364TIP3    H149583   2.530   5.643   4.581 -0.9451 -0.5356 -0.9455
 9364TIP3    H249584   2.394   5.598   4.631 -0.6452  0.3863  0.7707
 9365TIP3   OH249585   1.501   5.322  10.468  0.0145 -0.2084  0.1279
 9365TIP3    H149586   1.412   5.291  10.482 -1.0434  2.1736 -0.8278
 9365TIP3    H249587   1.555   5.243  10.476 -2.2437 -1.8985 -0.1640
 9366TIP3   OH249588   0.592   3.320  11.048 -0.2692 -0.5216 -0.2062
 9366TIP3    H149589   0.522   3.382  11.069 -0.1354 -1.0164  1.8739
 9366TIP3    H249590   0.584   3.251  11.114  1.0997 -1.4985 -0.9972
 9367TIP3   OH249591   6.152   0.774  12.584 -0.0968  0.1258  0.0124
 9367TIP3    H149592   6.174   0.767  12.677  0.6615 -1.4729 -0.2659
 9367TIP3    H249593   6.069   0.822  12.583 -0.5489 -0.5473  1.5695
 9368TIP3   OH249594   2.961   3.419  15.409 -0.4917 -0.4828  0.6505
 9368TIP3    H149595   2.891   3.398  15.471 -0.4874 -1.2994  0.3975
 9368TIP3    H249596   3.041   3.416  15.461 -0.6592  0.7908  1.0144
 9369TIP3   OH249597   1.985   1.695   3.196 -0.1474 -0.2116  0.5184
 9369TIP3    H149598   1.988   1.630   3.126 -0.4779  0.7160 -0.3869
 9369TIP3    H249599   2.063   1.749   3.182 -1.2650  1.2394 -0.4268
 9370TIP3   OH249600   2.172   0.865  13.366 -0.1565  0.0477  0.2612
 9370TIP3    H149601   2.193   0.877  13.458  0.9562  0.9250 -0.0813
 9370TIP3    H249602   2.205   0.778  13.345  0.0894  0.0655  0.5652
 9371TIP3   OH249603   4.565   4.032   4.371 -0.0024 -0.0996  0.3190
 9371TIP3    H149604   4.620   4.012   4.447  0.9203  0.9937 -0.0262
 9371TIP3    H249605   4.619   4.090   4.318 -2.0007  2.2158  0.6593
 9372TIP3   OH249606   1.286   5.719  16.419  0.2852 -0.5377 -0.2237
 9372TIP3    H149607   1.307   5.764  16.337 -0.6731 -0.2359 -0.3223
 9372TIP3    H249608   1.205   5.671  16.401  0.2015 -0.6754  0.4668
 9373TIP3   OH249609   3.132   1.609  13.393  0.1420 -0.1625 -0.3468
 9373TIP3    H149610   3.148   1.555  13.316  1.3720 -0.0096 -0.2222
 9373TIP3    H249611   3.113   1.696  13.358  0.0882 -0.2324 -0.4916
 9374TIP3   OH249612   5.378   1.064  16.604 -0.8856 -0.2402 -0.0541
 9374TIP3    H149613   5.468   1.041  16.578 -0.6640  0.5587  0.0002
 9374TIP3    H249614   5.353   1.135  16.545 -0.3887  1.6019  1.8368
 9375TIP3   OH249615   6.778   3.892  16.614  0.3812 -0.3265  0.5926
 9375TIP3    H149616   6.853   3.929  16.568  0.3543 -0.2149  0.6392
 9375TIP3    H249617   6.723   3.855  16.545  1.0453 -1.4563  0.6329
 9376TIP3   OH249618   5.838   2.996   1.171 -0.1926 -0.1446  0.7457
 9376TIP3    H149619   5.892   2.947   1.233  1.9850  1.2661  0.0951
 9376TIP3    H249620   5.827   2.937   1.097  0.8092 -0.3237  0.7307
 9377TIP3   OH249621   5.114   4.842   5.980 -0.8557  0.0271  0.4014
 9377TIP3    H149622   5.043   4.827   6.042  0.1611 -1.8268  1.1743
 9377TIP3    H249623   5.151   4.756   5.964  0.4180  0.7860 -0.9777
 9378TIP3   OH249624   2.180   5.060  13.613  0.2655 -0.0551 -0.0216
 9378TIP3    H149625   2.244   5.083  13.681  0.3407 -1.2035  0.3175
 9378TIP3    H249626   2.195   5.125  13.543  0.6862  0.6849  0.7357
 9379TIP3   OH249627   1.190   3.860  16.515  0.4136  0.4892 -0.4301
 9379TIP3    H149628   1.238   3.937  16.485 -0.0496  0.1740 -2.0619
 9379TIP3    H249629   1.104   3.894  16.541  0.9037  0.7999  0.8942
 9380TIP3   OH249630   6.812   1.146   6.033  0.4245 -0.0004 -0.5890
 9380TIP3    H149631   6.844   1.225   5.989  0.0754 -0.1627 -1.1451
 9380TIP3    H249632   6.847   1.152   6.122 -1.3656  1.8756  0.0456
 9381TIP3   OH249633   6.386   4.353  13.483  0.2349  0.1282  0.1540
 9381TIP3    H149634   6.405   4.278  13.427  0.1099 -0.1110  0.4285
 9381TIP3    H249635   6.423   4.329  13.568 -0.1574  0.2042  0.3489
 9382TIP3   OH249636   5.901   4.270  16.154  0.4102  0.5188 -0.8321
 9382TIP3    H149637   5.932   4.242  16.068  0.8481 -1.2527 -0.1458
 9382TIP3    H249638   5.972   4.245  16.214  0.1773  1.8515  0.0417
 9383TIP3   OH249639   4.739   1.393  16.558 -0.4756 -0.5720  0.2097
 9383TIP3    H149640   4.686   1.467  16.529  1.9583  0.6809 -1.3820
 9383TIP3    H249641   4.785   1.424  16.635 -1.3620 -1.3799  1.0995
 9384TIP3   OH249642   4.356   3.123  11.830  0.3533 -0.2501  1.0984
 9384TIP3    H149643   4.351   3.029  11.814  0.3909 -0.0973  0.1528
 9384TIP3    H249644   4.341   3.163  11.745 -3.2012  0.7360  2.0145
 9385TIP3   OH249645   2.993   3.115  13.962  0.8193  0.2024  0.0793
 9385TIP3    H149646   2.912   3.086  14.003  0.5248 -1.5062 -1.5363
 9385TIP3    H249647   2.967   3.192  13.910  0.3712  0.0883  0.1278
 9386TIP3   OH249648   3.864   3.249   4.023  0.7483  0.2228  0.1369
 9386TIP3    H149649   3.927   3.189   4.062  0.3212 -0.1186  0.3154
 9386TIP3    H249650   3.807   3.275   4.095  0.7542  0.6217  0.0013
 9387TIP3   OH249651   5.931   5.878   2.080 -0.0932  0.1535 -0.1780
 9387TIP3    H149652   6.002   5.860   2.141  0.5135  1.4352 -0.4701
 9387TIP3    H249653   5.873   5.938   2.128 -0.7656 -0.5418 -0.0979
 9388TIP3   OH249654   5.389   4.324   3.808  0.1703 -0.3143 -0.1989
 9388TIP3    H149655   5.330   4.381   3.758  0.1856 -0.6826 -0.6338
 9388TIP3    H249656   5.475   4.336   3.767  0.6087  0.9153  0.9943
 9389TIP3   OH249657   0.986   5.716  16.940 -0.0759 -0.1184  0.0975
 9389TIP3    H149658   1.053   5.759  16.887  0.2891 -0.6586  0.0996
 9389TIP3    H249659   0.919   5.690  16.877 -0.1141  0.1130  0.0432
 9390TIP3   OH249660   4.856   5.524   3.119  0.1300 -0.7198  0.0070
 9390TIP3    H149661   4.885   5.604   3.163  0.2937 -0.7290 -0.0830
 9390TIP3    H249662   4.762   5.536   3.108  0.3605  0.0739 -1.2426
 9391TIP3   OH249663   1.823   0.773  13.802  0.0348 -0.1630 -0.2287
 9391TIP3    H149664   1.784   0.804  13.883  1.0392  1.2298 -0.2229
 9391TIP3    H249665   1.893   0.714  13.830 -1.1021 -1.5567 -0.1981
 9392TIP3   OH249666   5.846   1.938  12.489  0.3197 -0.3593 -0.2492
 9392TIP3    H149667   5.750   1.943  12.487  0.3781  2.4932  0.2284
 9392TIP3    H249668   5.870   1.980  12.572  2.0048 -0.7943 -0.4940
 9393TIP3   OH249669   0.104   6.103  14.376  0.6082  0.0121  0.0361
 9393TIP3    H149670   0.041   6.106  14.448 -0.7076  0.6565 -1.1072
 9393TIP3    H249671   0.115   6.009  14.358 -0.5153 -0.0882 -0.1688
 9394TIP3   OH249672   4.920   6.051   1.022 -0.1930  0.2249  0.6005
 9394TIP3    H149673   4.868   6.028   1.098 -1.1654 -0.0306 -0.1256
 9394TIP3    H249674   4.969   5.972   1.001 -2.6335 -0.9380 -1.1715
 9395TIP3   OH249675   6.790   0.227   4.438  0.2604 -0.4990  0.1635
 9395TIP3    H149676   6.708   0.276   4.446  0.3607 -0.3636  0.3865
 9395TIP3    H249677   6.858   0.294   4.435  0.3231 -0.5859 -0.6623
 9396TIP3   OH249678   1.369   2.359  12.695  0.2825 -0.3500 -0.1476
 9396TIP3    H149679   1.281   2.369  12.733  0.6741  0.8166  0.5177
 9396TIP3    H249680   1.356   2.304  12.618 -0.6826 -2.1467  1.2144
 9397TIP3   OH249681   4.430   1.739   0.450  0.0624  0.1050  0.2205
 9397TIP3    H149682   4.508   1.748   0.503  0.8519  0.1302 -0.9161
 9397TIP3    H249683   4.428   1.817   0.395 -0.2321 -0.3511 -0.4352
 9398TIP3   OH249684   5.519   1.062   4.437 -0.2836  0.1874 -0.0500
 9398TIP3    H149685   5.601   1.031   4.399  0.0659  0.6813  0.3020
 9398TIP3    H249686   5.479   1.115   4.368  0.1792  0.7844  0.1329
 9399TIP3   OH249687   0.286   5.705  15.912  0.0679 -0.5668  0.2039
 9399TIP3    H149688   0.266   5.707  15.818 -1.2938  0.8872  0.4879
 9399TIP3    H249689   0.204   5.729  15.954  0.6289 -1.3052  1.7976
 9400TIP3   OH249690   5.663   5.324   5.356  0.2272 -0.1381  0.0609
 9400TIP3    H149691   5.653   5.414   5.324  0.6014 -0.5777 -1.4017
 9400TIP3    H249692   5.661   5.271   5.276 -2.0449 -1.6336  1.0026
 9401TIP3   OH249693   0.920   6.177  12.189 -0.0248 -0.4625 -0.4652
 9401TIP3    H149694   0.894   6.180  12.097  0.9349  0.3626 -0.7153
 9401TIP3    H249695   0.842   6.205  12.237  0.2712  1.8143 -1.1958
 9402TIP3   OH249696   6.724   0.495  13.192 -0.2765 -0.2127 -0.0759
 9402TIP3    H149697   6.632   0.500  13.219 -0.8322 -2.1437 -1.4033
 9402TIP3    H249698   6.726   0.423  13.129  1.4140  2.3137 -3.1812
 9403TIP3   OH249699   4.447   0.818   4.240  0.2631 -0.0991 -0.2707
 9403TIP3    H149700   4.501   0.891   4.209  0.6984 -0.6579 -0.8862
 9403TIP3    H249701   4.435   0.763   4.162  0.2936 -0.8937  0.2733
 9404TIP3   OH249702   6.278   3.412  13.951 -0.2858 -0.7845 -0.0969
 9404TIP3    H149703   6.256   3.333  13.902 -0.3051 -0.1450 -1.1346
 9404TIP3    H249704   6.195   3.459  13.960 -0.2265 -0.7447  0.2808
 9405TIP3   OH249705   6.344   5.896   1.392 -0.4336 -0.0061  0.1377
 9405TIP3    H149706   6.296   5.816   1.411  0.2998 -0.1235  1.6141
 9405TIP3    H249707   6.281   5.951   1.345 -1.7501 -0.4661  1.3056
 9406TIP3   OH249708   2.018   2.764   6.491  0.0229 -0.0224 -0.6211
 9406TIP3    H149709   1.931   2.742   6.521  0.0919  0.4658 -0.0579
 9406TIP3    H249710   2.056   2.818   6.561  0.3482  0.7405 -1.3626
 9407TIP3   OH249711   2.875   4.266   1.577 -0.4705 -0.0835  0.4513
 9407TIP3    H149712   2.964   4.302   1.578 -0.7703  0.7817 -1.0347
 9407TIP3    H249713   2.833   4.309   1.502 -1.7156 -1.4985  0.3022
 9408TIP3   OH249714   2.427   5.416   1.546  0.0627 -0.0320  0.7281
 9408TIP3    H149715   2.486   5.343   1.565  1.7599  0.9534 -0.4240
 9408TIP3    H249716   2.440   5.477   1.619 -0.2606 -0.2373  0.9585
 9409TIP3   OH249717   4.532   3.298   5.701 -0.2994 -0.0466  0.6539
 9409TIP3    H149718   4.466   3.245   5.658 -0.3113 -2.6385  3.4791
 9409TIP3    H249719   4.483   3.357   5.757 -0.2364  0.6948 -0.0600
 9410TIP3   OH249720   2.570   0.948  13.150  0.5192 -0.4924 -0.5116
 9410TIP3    H149721   2.595   0.941  13.058  1.7474 -2.9162 -0.0817
 9410TIP3    H249722   2.573   1.041  13.168 -2.7759  0.4432 -3.6579
 9411TIP3   OH249723   4.809   5.028   2.567  0.1669 -0.1331  0.1236
 9411TIP3    H149724   4.794   4.937   2.543 -0.3827  0.3300 -1.4564
 9411TIP3    H249725   4.757   5.042   2.646 -1.2436 -0.7189 -0.6666
 9412TIP3   OH249726   2.580   3.737   0.987  0.0395  0.5372  0.7276
 9412TIP3    H149727   2.594   3.763   1.078  0.3117 -1.0040  1.1553
 9412TIP3    H249728   2.520   3.663   0.991 -1.1481  1.3873 -0.4754
 9413TIP3   OH249729   2.601   5.130  12.211  0.5108  0.5202 -0.0141
 9413TIP3    H149730   2.691   5.157  12.196  0.9291 -0.7510  0.0913
 9413TIP3    H249731   2.549   5.208  12.192  1.6105  1.2147 -0.2611
 9414TIP3   OH249732   1.764   4.638   0.317 -0.3742 -0.5128 -0.1249
 9414TIP3    H149733   1.708   4.683   0.254 -1.5285 -0.8865  0.6075
 9414TIP3    H249734   1.706   4.616   0.389  1.1989  1.2975  1.8381
 9415TIP3   OH249735   3.805   0.913   4.038 -0.3821  0.1002  0.3596
 9415TIP3    H149736   3.774   0.823   4.053  0.0555 -0.5291 -2.0222
 9415TIP3    H249737   3.766   0.937   3.954 -1.3451  2.5996  1.4324
 9416TIP3   OH249738   5.806   5.817  14.130  0.0861 -0.0229  0.5610
 9416TIP3    H149739   5.752   5.870  14.188 -0.1012  1.3807 -0.8045
 9416TIP3    H249740   5.869   5.879  14.093 -0.9757 -0.3919 -2.0916
 9417TIP3   OH249741   6.529   2.023  14.970 -0.1636 -0.5244  0.0577
 9417TIP3    H149742   6.573   2.086  14.914  0.1477 -0.0850  0.7836
 9417TIP3    H249743   6.599   1.966  15.002 -0.3015 -0.6167  0.1999
 9418TIP3   OH249744   4.788   1.417   5.341  0.1056  0.5128  1.1803
 9418TIP3    H149745   4.841   1.459   5.273 -0.3300 -0.3590  0.2716
 9418TIP3    H249746   4.796   1.474   5.417  0.6720  1.4730  0.4166
 9419TIP3   OH249747   0.518   1.304  10.773  0.4041 -0.5674 -0.1805
 9419TIP3    H149748   0.549   1.351  10.695  0.4738 -1.3418 -0.6277
 9419TIP3    H249749   0.424   1.296  10.759  0.3952 -0.5744 -0.1135
 9420TIP3   OH249750   1.085   1.480  17.138 -0.6591 -0.6913 -0.3211
 9420TIP3    H149751   1.025   1.529  17.081 -0.1865 -0.7060 -0.8456
 9420TIP3    H249752   1.172   1.512  17.113 -0.3192 -1.9944 -0.8729
 9421TIP3   OH249753   4.545   5.706   2.547 -0.0112 -0.2534  0.2731
 9421TIP3    H149754   4.596   5.753   2.613 -1.4129  0.2825  1.0037
 9421TIP3    H249755   4.533   5.618   2.584 -0.0614 -0.2218  0.3304
 9422TIP3   OH249756   5.779   6.516   2.577  0.4895 -0.4073 -0.1750
 9422TIP3    H149757   5.762   6.450   2.510  0.2389 -0.2708 -0.2437
 9422TIP3    H249758   5.864   6.490   2.615 -0.8211 -2.3751  1.6742
 9423TIP3   OH249759   5.377   3.335   1.883 -0.2813  0.0495 -0.4659
 9423TIP3    H149760   5.313   3.405   1.875 -1.3888 -0.7640  0.9177
 9423TIP3    H249761   5.338   3.260   1.837 -0.6098 -0.6095  0.8388
 9424TIP3   OH249762   5.129   6.578   5.445  0.5667  0.6048 -0.0575
 9424TIP3    H149763   5.062   6.604   5.382  1.8466  2.5162 -0.7012
 9424TIP3    H249764   5.127   6.647   5.512  2.4153  1.1442 -0.5153
 9425TIP3   OH249765   2.951   3.346  13.806  0.0911  0.2557  0.3977
 9425TIP3    H149766   2.929   3.418  13.748 -0.5168 -0.2017  0.0553
 9425TIP3    H249767   3.047   3.341  13.804  0.0496 -0.1653 -1.0643
 9426TIP3   OH249768   3.459   4.198  12.543  0.3157 -0.1336  0.0588
 9426TIP3    H149769   3.488   4.271  12.488  0.6897 -0.0604  0.3420
 9426TIP3    H249770   3.449   4.124  12.482 -2.3478  0.6948 -0.6363
 9427TIP3   OH249771   0.700   2.145   6.275  0.3509 -1.0053 -0.7392
 9427TIP3    H149772   0.708   2.081   6.346 -0.1958  0.7074  0.9538
 9427TIP3    H249773   0.607   2.145   6.253  0.2691 -0.4752 -0.4066
 9428TIP3   OH249774   5.938   1.408  12.334 -0.1513  0.0311 -0.2850
 9428TIP3    H149775   6.006   1.474  12.337 -1.5903  1.8689 -3.3030
 9428TIP3    H249776   5.980   1.331  12.296  0.6040  0.6036 -0.6165
 9429TIP3   OH249777   0.408   5.761  14.363  0.1230 -0.4562  0.0035
 9429TIP3    H149778   0.387   5.678  14.404  1.6731 -0.6521  0.4411
 9429TIP3    H249779   0.325   5.790  14.325 -0.5542 -1.9426  0.2757
 9430TIP3   OH249780   2.154   6.216  14.252  0.1477 -0.2071 -0.2487
 9430TIP3    H149781   2.192   6.302  14.269  0.0541 -0.2087 -0.0301
 9430TIP3    H249782   2.069   6.234  14.211 -0.4913 -0.1630  1.0411
 9431TIP3   OH249783   2.878   0.899  13.249  0.2692  0.4764  0.1411
 9431TIP3    H149784   2.831   0.981  13.231 -0.0946 -0.0151 -1.2725
 9431TIP3    H249785   2.886   0.857  13.163  0.0087 -1.2103  0.9066
 9432TIP3   OH249786   4.913   3.966   5.131  0.2992  0.0845 -0.2727
 9432TIP3    H149787   4.931   3.969   5.225 -2.1083  2.4553  0.2289
 9432TIP3    H249788   4.936   4.053   5.099 -2.4621  0.6314 -1.0380
 9433TIP3   OH249789   2.460   1.862  11.779  0.1660 -0.2380  0.2906
 9433TIP3    H149790   2.420   1.938  11.822 -0.0290  0.7191 -1.4802
 9433TIP3    H249791   2.545   1.894  11.748 -0.7933 -0.0257 -2.3601
 9434TIP3   OH249792   5.053   3.025  17.014 -0.4706  0.6651  0.0118
 9434TIP3    H149793   5.129   2.983  16.974 -1.5090  0.6011 -2.0561
 9434TIP3    H249794   4.988   3.030  16.943 -2.2586  1.0662  1.5819
 9435TIP3   OH249795   1.464   3.919   0.026  0.3210  0.1330  0.1860
 9435TIP3    H149796   1.475   3.830   0.062 -0.7588 -1.6069 -3.3071
 9435TIP3    H249797   1.379   3.948   0.059 -1.6705 -2.3083 -2.2505
 9436TIP3   OH249798   5.394   5.092  11.679  0.0025  0.4531 -0.4957
 9436TIP3    H149799   5.410   5.150  11.753  2.7181 -0.5559 -0.2043
 9436TIP3    H249800   5.466   5.108  11.618  0.4061 -1.9715 -0.7691
 9437TIP3   OH249801   0.474   6.132  12.744 -1.0533 -0.2259  0.0899
 9437TIP3    H149802   0.492   6.069  12.673 -0.7165  0.2476 -0.2512
 9437TIP3    H249803   0.535   6.108  12.813  0.4893  0.9444 -0.7991
 9438TIP3   OH249804   0.600   3.960  12.016 -0.4807  0.3068 -0.0989
 9438TIP3    H149805   0.507   3.978  12.028 -0.4214  0.3633  0.2692
 9438TIP3    H249806   0.628   3.921  12.099 -0.3115 -0.2696 -0.4198
 9439TIP3   OH249807   3.103   2.737   0.941  0.0787  0.1231 -0.1681
 9439TIP3    H149808   3.066   2.698   0.861 -0.9005 -0.7277  0.6584
 9439TIP3    H249809   3.159   2.668   0.977  0.3052  0.4049  0.0199
 9440TIP3   OH249810   0.788   0.721  16.148  0.3752 -0.5820  0.4026
 9440TIP3    H149811   0.750   0.736  16.235  0.9840 -1.6129  0.8687
 9440TIP3    H249812   0.762   0.797  16.097 -0.5021 -0.2427  1.3198
 9441TIP3   OH249813   0.039   3.031  11.994 -0.0563 -0.5343 -0.3956
 9441TIP3    H149814   0.071   3.057  12.081 -0.7572  0.8531 -0.5274
 9441TIP3    H249815   0.070   2.941  11.983  1.9491  0.0129  0.3607
 9442TIP3   OH249816   3.251   1.643  12.073 -0.2312  0.1246  0.6668
 9442TIP3    H149817   3.346   1.657  12.072 -0.2699  0.4006  0.9877
 9442TIP3    H249818   3.214   1.729  12.055 -0.3910 -0.4821 -2.4963
 9443TIP3   OH249819   2.861   3.528   4.677  0.2631 -0.3523  0.4345
 9443TIP3    H149820   2.776   3.556   4.711 -1.2563 -2.5406 -1.2108
 9443TIP3    H249821   2.880   3.448   4.726 -1.1493 -2.6128 -2.3791
 9444TIP3   OH249822   0.151   2.894  15.964  0.4518 -0.0905 -0.1834
 9444TIP3    H149823   0.097   2.960  15.920  0.1107 -0.7972 -0.8450
 9444TIP3    H249824   0.240   2.913  15.934  0.4889  0.6349  0.3541
 9445TIP3   OH249825   3.082   1.129  15.640 -0.4381  0.2795 -0.3835
 9445TIP3    H149826   3.020   1.157  15.573 -0.6824 -0.0414 -0.2948
 9445TIP3    H249827   3.031   1.072  15.697  0.1361 -0.6671 -0.7915
 9446TIP3   OH249828   1.378   2.578  14.475  0.0811  0.0319 -0.4724
 9446TIP3    H149829   1.465   2.539  14.472  0.5340  1.0574 -1.5252
 9446TIP3    H249830   1.339   2.545  14.556  0.6225 -2.1482 -1.0537
 9447TIP3   OH249831   1.859   4.711   5.888  0.4074 -0.7253  0.5997
 9447TIP3    H149832   1.922   4.711   5.960  1.5608  0.3767 -0.3709
 9447TIP3    H249833   1.911   4.723   5.809 -1.0231  1.1507 -0.1649
 9448TIP3   OH249834   2.755   1.126   3.018 -0.3081  0.2212 -0.1193
 9448TIP3    H149835   2.821   1.130   2.948  0.5087 -0.3947  0.6002
 9448TIP3    H249836   2.771   1.204   3.070 -1.1188  0.8450 -0.7708
 9449TIP3   OH249837   5.190   1.340   2.565 -0.0970 -0.0163 -0.0391
 9449TIP3    H149838   5.210   1.250   2.591  0.2654  0.5532  1.8261
 9449TIP3    H249839   5.269   1.370   2.520 -0.0225 -0.4582 -0.2066
 9450TIP3   OH249840   6.791   0.252  16.337 -0.3789  0.5356 -0.5295
 9450TIP3    H149841   6.754   0.176  16.383  0.5189 -0.2367 -1.0455
 9450TIP3    H249842   6.727   0.271  16.268 -0.9480  0.6952  0.0268
 9451TIP3   OH249843   0.316   4.337  13.303  0.1512 -0.4912  0.6469
 9451TIP3    H149844   0.410   4.349  13.290  0.6380 -1.5427  2.6587
 9451TIP3    H249845   0.287   4.418  13.344 -0.1953  0.4773 -1.4121
 9452TIP3   OH249846   6.537   5.679   2.496 -0.2706 -0.2167 -0.4628
 9452TIP3    H149847   6.459   5.643   2.539 -1.5117  2.3007 -0.4447
 9452TIP3    H249848   6.607   5.669   2.560 -0.8072 -1.4814 -0.0363
 9453TIP3   OH249849   2.606   5.321   0.487  0.1208 -0.3751  0.5180
 9453TIP3    H149850   2.534   5.307   0.549  0.6172  1.0836  1.4792
 9453TIP3    H249851   2.672   5.368   0.538  0.1603  1.7559 -1.3532
 9454TIP3   OH249852   5.996   1.931  16.685  0.0300 -0.5047 -0.0865
 9454TIP3    H149853   5.987   1.974  16.600 -0.8414  0.0530  0.2767
 9454TIP3    H249854   5.914   1.950  16.731  1.1646  0.7698  1.5803
 9455TIP3   OH249855   4.870   4.104  13.928 -0.1561 -0.3958 -0.2979
 9455TIP3    H149856   4.917   4.063  13.855  0.7628 -0.2461  0.1975
 9455TIP3    H249857   4.933   4.106  13.999 -0.9037 -0.1319  0.3715
 9456TIP3   OH249858   6.027   1.641  15.956  0.0817  0.5514 -0.2841
 9456TIP3    H149859   6.112   1.655  15.998 -0.6805  1.2949  1.0732
 9456TIP3    H249860   6.020   1.546  15.946  1.2222  0.5048 -0.7808
 9457TIP3   OH249861   5.543   3.824  16.955  0.0827  0.5240 -0.1440
 9457TIP3    H149862   5.556   3.773  17.035  1.2302  1.3589  0.2280
 9457TIP3    H249863   5.529   3.914  16.986 -0.7541  0.6513 -0.8371
 9458TIP3   OH249864   2.727   3.065  12.230  0.6064  0.0294  0.3945
 9458TIP3    H149865   2.676   3.129  12.280  1.1373 -0.1958  1.2465
 9458TIP3    H249866   2.808   3.111  12.208 -0.5905  1.0344 -2.5456
 9459TIP3   OH249867   4.723   6.042   6.614 -0.1132  0.2831  0.5099
 9459TIP3    H149868   4.633   6.012   6.609  0.1237 -0.3514 -0.0389
 9459TIP3    H249869   4.728   6.114   6.551  0.0021 -0.3199 -0.1836
 9460TIP3   OH249870   4.830   5.814  15.311 -1.2600 -0.2439  0.3632
 9460TIP3    H149871   4.738   5.813  15.337 -1.5478  1.6038 -0.4449
 9460TIP3    H249872   4.873   5.866  15.379 -0.6168 -1.7848  1.1930
 9461TIP3   OH249873   5.513   6.061  13.835  0.3104  0.1221 -0.2414
 9461TIP3    H149874   5.474   5.974  13.830  0.9947 -0.1861 -0.2196
 9461TIP3    H249875   5.552   6.065  13.923  2.2565 -0.4065 -1.0241
 9462TIP3   OH249876   6.799   1.491  11.173  0.2552 -0.1731  0.3286
 9462TIP3    H149877   6.827   1.522  11.259 -0.5015  0.8815  0.2266
 9462TIP3    H249878   6.799   1.570  11.119 -2.2140 -0.2017  0.1671
 9463TIP3   OH249879   2.530   6.793   3.151 -0.2436  0.0602 -0.1557
 9463TIP3    H149880   2.489   6.707   3.151  1.7243 -1.0572  3.2504
 9463TIP3    H249881   2.458   6.854   3.169 -1.3694 -1.0519 -0.7640
 9464TIP3   OH249882   0.945   6.767  10.606 -0.0948 -0.0994  0.1249
 9464TIP3    H149883   0.965   6.720  10.687 -0.5187  0.6983  0.7091
 9464TIP3    H249884   1.031   6.783  10.566  0.2747  0.9751  1.2772
 9465TIP3   OH249885   1.255   3.318  16.971 -0.1958 -0.1874 -0.2562
 9465TIP3    H149886   1.332   3.272  16.938  0.5151 -0.8112  2.0532
 9465TIP3    H249887   1.224   3.264  17.044 -2.2840  0.5382 -0.5288
 9466TIP3   OH249888   5.421   0.132   4.247  0.1154 -0.9124 -0.0917
 9466TIP3    H149889   5.338   0.087   4.263 -0.6074  0.8494  1.3602
 9466TIP3    H249890   5.459   0.084   4.173 -1.6854 -2.4061 -0.1460
 9467TIP3   OH249891   6.381   4.029   0.292  0.2416 -0.2748  0.2190
 9467TIP3    H149892   6.404   3.957   0.352  0.4600 -0.9210 -0.6226
 9467TIP3    H249893   6.331   4.090   0.347  1.7265 -0.0960  1.4450
 9468TIP3   OH249894   6.531   2.020  11.800  0.8062  0.5966  0.1426
 9468TIP3    H149895   6.467   1.954  11.827  0.2157  0.7199 -0.8784
 9468TIP3    H249896   6.552   2.067  11.881 -1.0675  1.1163  0.3867
 9469TIP3   OH249897   4.616   6.394   3.810 -0.6401 -0.0619 -0.0960
 9469TIP3    H149898   4.568   6.429   3.885 -0.3714  0.2840 -0.0799
 9469TIP3    H249899   4.558   6.409   3.736 -1.0322 -0.6788  0.0853
 9470TIP3   OH249900   1.917   3.350  15.951  0.4765  0.1408  0.3954
 9470TIP3    H149901   1.886   3.383  15.867 -1.2450  0.0055  0.9349
 9470TIP3    H249902   1.933   3.256  15.936 -0.2830  0.0149  0.3172
 9471TIP3   OH249903   5.958   3.716  15.383 -0.6555 -0.4960 -0.5044
 9471TIP3    H149904   5.970   3.694  15.475  3.0761 -0.8000 -0.9243
 9471TIP3    H249905   5.939   3.632  15.341  0.4630 -0.8383 -0.3552
 9472TIP3   OH249906   2.644   6.027  10.422  0.0420  0.5014  0.2795
 9472TIP3    H149907   2.640   6.088  10.348 -2.6796  2.0344  1.5291
 9472TIP3    H249908   2.575   6.058  10.482  0.1475 -2.4334  2.0879
 9473TIP3   OH249909   1.382   4.569  12.406 -0.7767  0.1284  0.1760
 9473TIP3    H149910   1.344   4.493  12.451 -1.2110  0.9457  1.2194
 9473TIP3    H249911   1.472   4.541  12.385 -0.9663 -0.7168  0.4369
 9474TIP3   OH249912   0.761   2.033   0.536  0.0932 -0.4529 -0.1247
 9474TIP3    H149913   0.739   2.100   0.601  0.1172 -1.5990  1.0971
 9474TIP3    H249914   0.692   2.041   0.469  0.1075  0.7808 -0.0088
 9475TIP3   OH249915   6.486   3.577  12.150  0.0862  0.2459  0.3195
 9475TIP3    H149916   6.556   3.619  12.100 -0.1955  1.0906  0.6127
 9475TIP3    H249917   6.418   3.645  12.158 -0.1010 -0.0423  1.3596
 9476TIP3   OH249918   0.150   4.200   5.904 -0.2709  0.2745  0.0691
 9476TIP3    H149919   0.219   4.267   5.905  1.4339 -1.4162  0.5034
 9476TIP3    H249920   0.077   4.241   5.952 -0.5848  3.0358 -2.4687
 9477TIP3   OH249921   6.026   1.088  14.358  0.2882  0.7908  0.1855
 9477TIP3    H149922   5.945   1.138  14.346 -0.6204 -0.5658  0.4894
 9477TIP3    H249923   6.087   1.127  14.295 -1.1588  0.6598 -1.3953
 9478TIP3   OH249924   1.127   6.646   3.445 -0.1676 -0.4234 -0.2804
 9478TIP3    H149925   1.063   6.598   3.497 -0.6072 -0.7428 -1.0974
 9478TIP3    H249926   1.210   6.635   3.491 -0.8894  1.0341  1.4839
 9479TIP3   OH249927   0.162   0.328   2.716 -0.4110  0.6645  0.3913
 9479TIP3    H149928   0.118   0.269   2.656  3.5871 -0.3049 -2.0082
 9479TIP3    H249929   0.169   0.411   2.668 -0.7093  1.1801  1.2218
 9480TIP3   OH249930   5.661   3.742  14.468  0.0834 -0.7678  0.1749
 9480TIP3    H149931   5.595   3.681  14.436  1.4652 -1.2057 -2.0540
 9480TIP3    H249932   5.744   3.698  14.451  1.0285  0.6388  0.9843
 9481TIP3   OH249933   1.270   4.113   3.902  0.3902  0.2930 -0.3195
 9481TIP3    H149934   1.310   4.136   3.986 -1.3083 -0.0316  0.6171
 9481TIP3    H249935   1.276   4.018   3.897  0.4716  0.3089 -0.5655
 9482TIP3   OH249936   1.146   2.221  14.658  0.0896 -0.1455 -0.1148
 9482TIP3    H149937   1.191   2.306  14.657 -0.9049  0.4605  1.8615
 9482TIP3    H249938   1.144   2.196  14.751 -1.8663 -1.0960 -0.3623
 9483TIP3   OH249939   6.292   2.877  13.484 -0.3376 -0.1498 -0.7509
 9483TIP3    H149940   6.337   2.793  13.482  0.6774  0.3041  0.9569
 9483TIP3    H249941   6.229   2.872  13.412 -0.1773 -2.2731 -0.8119
 9484TIP3   OH249942   4.788   4.756   4.715 -0.1571  0.5038 -0.1351
 9484TIP3    H149943   4.724   4.826   4.731 -0.1462  0.5254 -0.1833
 9484TIP3    H249944   4.818   4.731   4.802 -0.8706 -0.1047 -0.0555
 9485TIP3   OH249945   5.718   2.430  16.777  0.4117  0.3121  0.2572
 9485TIP3    H149946   5.712   2.510  16.726 -0.2023 -1.2231 -2.2897
 9485TIP3    H249947   5.809   2.401  16.766  0.9163  1.1043  2.0066
 9486TIP3   OH249948   0.589   4.791   5.991  0.2496 -0.3920  0.0534
 9486TIP3    H149949   0.560   4.769   5.902  1.3736  0.2858 -0.5072
 9486TIP3    H249950   0.656   4.859   5.978  0.5264 -0.3784  1.4127
 9487TIP3   OH249951   1.865   0.195  15.099 -0.1595  0.2879 -0.3321
 9487TIP3    H149952   1.872   0.152  15.184 -2.1448  1.5105  0.5140
 9487TIP3    H249953   1.933   0.154  15.046  1.5879 -0.0775  2.0183
 9488TIP3   OH249954   5.538   1.067   4.978 -0.0659 -0.2171  0.0194
 9488TIP3    H149955   5.582   0.982   4.970 -1.8248 -1.3590  1.7056
 9488TIP3    H249956   5.472   1.054   5.046 -2.3464  1.6871 -1.6604
 9489TIP3   OH249957   5.248   1.894  14.363 -0.5999  0.4455 -0.0831
 9489TIP3    H149958   5.291   1.951  14.427 -0.5091  0.0121  0.2492
 9489TIP3    H249959   5.214   1.821  14.415  1.2295 -0.9645 -0.7769
 9490TIP3   OH249960   4.317   6.184  14.528  0.1125  0.7980  0.4523
 9490TIP3    H149961   4.345   6.143  14.447  0.1728  1.9029 -0.1096
 9490TIP3    H249962   4.374   6.146  14.596  0.1598 -0.0194 -0.0386
 9491TIP3   OH249963   5.126   0.063   0.416 -1.0120  0.0280 -0.0608
 9491TIP3    H149964   5.221   0.072   0.422 -0.9906 -0.5174  0.5297
 9491TIP3    H249965   5.093   0.153   0.418 -0.4450  0.3081 -1.7708
 9492TIP3   OH249966   3.978   3.265  13.160 -0.2178 -0.8203  0.1415
 9492TIP3    H149967   4.037   3.337  13.136  0.5556 -1.9419 -1.4776
 9492TIP3    H249968   4.033   3.206  13.212 -0.4846 -0.8785  0.3577
 9493TIP3   OH249969   2.201   0.736  16.914  0.3990 -0.2004  0.3753
 9493TIP3    H149970   2.107   0.735  16.931  0.6045  1.6885  1.8957
 9493TIP3    H249971   2.210   0.777  16.828 -0.1401  0.1574  0.4860
 9494TIP3   OH249972   1.104   4.327   1.402  0.0055 -0.1580 -0.1618
 9494TIP3    H149973   1.147   4.256   1.450  0.1891  0.0190 -0.0647
 9494TIP3    H249974   1.164   4.347   1.330  1.3375  1.7878  1.3764
 9495TIP3   OH249975   2.620   3.794  10.364 -0.1193  0.1089 -0.1212
 9495TIP3    H149976   2.650   3.842  10.287  0.4523  1.1398  0.7307
 9495TIP3    H249977   2.558   3.852  10.407 -0.0004 -0.2230  0.5166
 9496TIP3   OH249978   5.124   1.224  16.765  0.3407 -0.1736 -0.1547
 9496TIP3    H149979   5.125   1.165  16.690  0.0179  0.1922 -0.4483
 9496TIP3    H249980   5.065   1.182  16.828 -1.5737  0.8191 -1.1863
 9497TIP3   OH249981   3.479   2.299   3.919  0.1606  0.4502  0.2822
 9497TIP3    H149982   3.525   2.255   3.992  0.4392  0.6351  0.2205
 9497TIP3    H249983   3.406   2.241   3.899 -0.0923  0.5392  0.9047
 9498TIP3   OH249984   1.552   6.668   2.888 -0.7037  0.1374 -0.1030
 9498TIP3    H149985   1.545   6.596   2.825  2.2335 -0.1754 -0.2066
 9498TIP3    H249986   1.630   6.716   2.861 -0.8069  1.5016  1.8226
 9499TIP3   OH249987   5.846   2.964   2.302 -0.0559 -0.7239  0.6625
 9499TIP3    H149988   5.878   3.053   2.318 -0.7863 -0.4142  0.4628
 9499TIP3    H249989   5.922   2.916   2.270 -0.1665  0.4750 -1.5950
 9500TIP3   OH249990   3.221   0.141   0.035  0.1710  0.2851  0.2590
 9500TIP3    H149991   3.149   0.157   0.096 -0.0589  0.5326 -0.0778
 9500TIP3    H249992   3.217   0.047   0.017 -0.4633  0.4114 -0.2575
 9501TIP3   OH249993   0.671   2.659   5.992  0.4546  0.9112 -0.7974
 9501TIP3    H149994   0.592   2.702   5.960  0.9024  2.8260  0.5270
 9501TIP3    H249995   0.710   2.618   5.914 -1.1688  0.9768 -1.6792
 9502TIP3   OH249996   4.183   6.123   2.565 -0.1001  0.1754  0.5205
 9502TIP3    H149997   4.121   6.065   2.521 -2.9780  3.2294  0.2495
 9502TIP3    H249998   4.262   6.118   2.511 -0.6302 -2.4224 -0.1860
 9503TIP3   OH249999   0.536   6.083  16.204  0.1192  0.5668  1.1109
 9503TIP3    H150000   0.532   6.020  16.276  0.3095  0.9654  1.4746
 9503TIP3    H250001   0.504   6.035  16.128 -1.9930  0.6804  1.8464
 9504TIP3   OH250002   1.256   3.954   1.099 -0.1155  0.0872  0.2268
 9504TIP3    H150003   1.317   4.021   1.128  0.4220  0.2165 -1.1182
 9504TIP3    H250004   1.300   3.912   1.025 -1.3449 -0.3178 -0.2991
 9505TIP3   OH250005   6.221   1.968  13.013 -0.0654  0.0456  0.0499
 9505TIP3    H150006   6.289   2.021  13.054  1.6212 -2.6626  0.9851
 9505TIP3    H250007   6.268   1.906  12.959 -2.0396  0.3318 -2.1479
 9506TIP3   OH250008   6.027   2.570   2.190  0.2091  0.1406  0.2176
 9506TIP3    H150009   6.069   2.516   2.257 -0.8290 -0.3223  0.5156
 9506TIP3    H250010   5.960   2.514   2.153 -0.6796  1.1183  0.3082
 9507TIP3   OH250011   5.781   4.497  14.258 -0.0465  0.4214  1.2015
 9507TIP3    H150012   5.775   4.415  14.307  2.3133 -0.2835  0.4413
 9507TIP3    H250013   5.873   4.524  14.269 -0.9264  3.4691  2.1782
 9508TIP3   OH250014   3.675   0.114   1.097 -0.0675  0.4334 -0.5360
 9508TIP3    H150015   3.589   0.154   1.085 -0.1989  0.2673 -0.1642
 9508TIP3    H250016   3.735   0.188   1.110  0.2218  0.6839 -2.9094
 9509TIP3   OH250017   6.403   1.023   5.785 -0.3548 -0.6601  0.7390
 9509TIP3    H150018   6.416   0.964   5.710  0.1564 -2.1004  1.9133
 9509TIP3    H250019   6.490   1.058   5.803 -0.4430 -0.4579  0.7708
 9510TIP3   OH250020   1.090   4.248   2.939  0.2297 -0.2080  0.0248
 9510TIP3    H150021   1.054   4.161   2.957  1.9591 -0.4681  3.0074
 9510TIP3    H250022   1.120   4.279   3.025  2.4036  2.0573 -1.4171
 9511TIP3   OH250023   1.009   2.616   5.472 -0.1466  0.3988  0.0620
 9511TIP3    H150024   0.997   2.587   5.381 -0.9882 -1.0499  0.5958
 9511TIP3    H250025   1.101   2.639   5.478  0.2492 -0.8551 -0.8055
 9512TIP3   OH250026   2.541   0.492  11.040  0.8264  0.0224 -0.2768
 9512TIP3    H150027   2.634   0.490  11.064  0.3075 -0.5243  1.8420
 9512TIP3    H250028   2.522   0.404  11.008  1.2062  0.3820 -1.5667
 9513TIP3   OH250029   2.975   6.113  11.704 -0.0769  0.1533  0.4171
 9513TIP3    H150030   2.980   6.181  11.637  1.2087 -0.1376  0.1946
 9513TIP3    H250031   2.907   6.054  11.673 -0.7431  0.9663  0.2802
 9514TIP3   OH250032   5.100   4.759   4.887 -0.2592  0.3494  0.5808
 9514TIP3    H150033   5.181   4.794   4.848  0.1597 -2.0901 -1.0005
 9514TIP3    H250034   5.040   4.833   4.888  1.4851  1.8482  0.3180
 9515TIP3   OH250035   1.158   2.046   4.282 -0.5359  0.3104  0.2485
 9515TIP3    H150036   1.067   2.026   4.261 -1.0761  2.0440  0.8187
 9515TIP3    H250037   1.199   2.062   4.197 -0.4231 -1.6661 -0.1126
 9516TIP3   OH250038   3.730   3.922   1.634 -0.0871 -0.1383 -0.8682
 9516TIP3    H150039   3.674   3.870   1.576  1.0878 -1.8114 -0.5720
 9516TIP3    H250040   3.714   3.886   1.721  0.2341  0.4796 -0.5509
 9517TIP3   OH250041   5.638   6.402   4.690 -0.3556 -0.1606  0.2270
 9517TIP3    H150042   5.648   6.406   4.595 -0.5562 -1.2021  0.1473
 9517TIP3    H250043   5.676   6.317   4.714 -2.6024 -1.0856  0.7595
 9518TIP3   OH250044   0.128   5.070  16.696 -0.0483  0.5134  0.4578
 9518TIP3    H150045   0.133   4.978  16.671  1.1513  1.1232 -1.8142
 9518TIP3    H250046   0.049   5.077  16.749 -0.1499 -1.8069  0.6758
 9519TIP3   OH250047   5.582   6.717   1.323 -0.2035 -0.5770  0.0820
 9519TIP3    H150048   5.668   6.690   1.291 -1.0893 -1.6603 -1.5076
 9519TIP3    H250049   5.591   6.811   1.341  1.0314 -0.4572 -1.0271
 9520TIP3   OH250050   6.624   4.627  13.961  0.1784 -0.2164  0.8919
 9520TIP3    H150051   6.632   4.574  13.881  0.1853 -0.6248  1.1589
 9520TIP3    H250052   6.710   4.619  14.003  1.5608  3.0295 -0.8856
 9521TIP3   OH250053   5.610   1.112  15.914  0.4477 -0.4111  0.2197
 9521TIP3    H150054   5.578   1.201  15.900  1.3623  0.1159  1.3038
 9521TIP3    H250055   5.531   1.060  15.929  0.0204  0.9541  3.3963
 9522TIP3   OH250056   1.626   2.999   4.356 -0.5581 -0.1759 -0.7426
 9522TIP3    H150057   1.717   2.994   4.385 -1.0077  0.9519  1.1006
 9522TIP3    H250058   1.621   2.942   4.280  2.0172  0.8622 -1.8194
 9523TIP3   OH250059   6.523   4.802   2.240 -0.3127  0.4483 -0.7181
 9523TIP3    H150060   6.472   4.823   2.319  0.2835  0.1151 -0.2360
 9523TIP3    H250061   6.472   4.840   2.168 -0.9660  0.5870 -0.1945
 9524TIP3   OH250062   2.884   5.135  16.124  0.0126  0.2557  0.1396
 9524TIP3    H150063   2.858   5.206  16.183  1.0455  0.3031  0.5471
 9524TIP3    H250064   2.801   5.091  16.104 -0.5357  1.0465  0.5545
 9525TIP3   OH250065   3.239   5.618  12.855 -0.4834  0.2945 -0.3301
 9525TIP3    H150066   3.197   5.580  12.932 -2.2227  0.7309 -1.0114
 9525TIP3    H250067   3.330   5.589  12.860 -1.0789 -1.5802  0.6697
 9526TIP3   OH250068   0.549   3.389   5.371  0.3655 -0.0615 -0.0702
 9526TIP3    H150069   0.583   3.478   5.365  2.6995 -0.7900  0.9987
 9526TIP3    H250070   0.481   3.384   5.304  3.0320  1.2675 -3.1225
 9527TIP3   OH250071   5.737   1.220  14.860  0.3253  0.8734 -0.0289
 9527TIP3    H150072   5.681   1.143  14.857 -1.5646  2.2211 -1.9247
 9527TIP3    H250073   5.798   1.209  14.787  0.1717  1.0963 -0.1903
 9528TIP3   OH250074   1.401   2.481  13.925 -0.3552  0.5270  0.3669
 9528TIP3    H150075   1.344   2.493  14.001  0.0320  1.9196  0.4714
 9528TIP3    H250076   1.410   2.386  13.916 -0.5154  0.3303  1.9756
 9529TIP3   OH250077   2.603   5.135   1.283 -0.2522  0.1501  0.3917
 9529TIP3    H150078   2.670   5.117   1.348 -0.6742  1.3700  1.1835
 9529TIP3    H250079   2.636   5.093   1.203  0.8035 -0.3996  1.0909
 9530TIP3   OH250080   4.629   4.394   1.131  0.0695 -0.0266 -0.3288
 9530TIP3    H150081   4.549   4.392   1.077  1.1020  0.5146 -1.9353
 9530TIP3    H250082   4.656   4.485   1.132  1.4601 -0.3982 -1.0481
 9531TIP3   OH250083   5.173   2.556   0.560  0.0743  0.1426  0.2629
 9531TIP3    H150084   5.246   2.580   0.503  0.2489  0.5874  0.6680
 9531TIP3    H250085   5.158   2.633   0.614 -0.4082 -0.1044  0.4910
 9532TIP3   OH250086   5.345   0.882   0.124 -0.7095  0.5905 -0.0451
 9532TIP3    H150087   5.394   0.921   0.052  0.3264 -0.4889  0.0442
 9532TIP3    H250088   5.344   0.949   0.192  0.6046  0.6757 -0.0825
 9533TIP3   OH250089   5.559   6.302   3.743  0.0738 -0.8229 -0.0054
 9533TIP3    H150090   5.628   6.341   3.689  0.5808 -0.9417  0.5390
 9533TIP3    H250091   5.483   6.359   3.730  0.0825 -1.0325 -1.0794
 9534TIP3   OH250092   3.068   3.747   4.632  0.0323  0.5155 -0.2008
 9534TIP3    H150093   3.016   3.666   4.636 -0.1126  0.5349 -1.3127
 9534TIP3    H250094   3.003   3.816   4.627  0.1630  0.6278 -0.3399
 9535TIP3   OH250095   1.635   0.074   5.975  0.2953 -0.0534  0.3091
 9535TIP3    H150096   1.725   0.060   6.005  0.6654 -1.6720 -1.3803
 9535TIP3    H250097   1.644   0.102   5.883 -0.9019 -2.7300 -0.7372
 9536TIP3   OH250098   3.493   3.844   4.835 -0.2445 -0.1389 -0.1585
 9536TIP3    H150099   3.494   3.799   4.920 -0.4252 -1.8434 -1.0240
 9536TIP3    H250100   3.401   3.841   4.808  0.0068 -0.7115 -0.9748
 9537TIP3   OH250101   5.481   0.678   1.354  0.2825  0.2276  0.3564
 9537TIP3    H150102   5.528   0.708   1.432  0.4110 -2.5828  1.4687
 9537TIP3    H250103   5.540   0.697   1.281 -0.0514  3.3742  0.7560
 9538TIP3   OH250104   1.696   5.719   5.362 -0.1762  0.0884 -0.1099
 9538TIP3    H150105   1.617   5.710   5.309 -1.5083  3.2932  1.1032
 9538TIP3    H250106   1.676   5.674   5.444 -0.0499 -0.5376 -0.4148
 9539TIP3   OH250107   3.977   0.021   5.061  0.5505  0.6096  0.7709
 9539TIP3    H150108   3.930   0.029   5.144 -1.9911  0.0171 -0.5090
 9539TIP3    H250109   3.912  -0.015   5.000  2.3766  0.8348 -1.4353
 9540TIP3   OH250110   5.770   0.593  16.391 -0.5605  0.1008 -0.1424
 9540TIP3    H150111   5.724   0.601  16.308  0.6614  2.2184 -0.6767
 9540TIP3    H250112   5.843   0.534  16.372 -0.5937  0.1498 -0.4231
 9541TIP3   OH250113   1.348   6.084  11.593 -0.2771 -0.6154  0.4470
 9541TIP3    H150114   1.326   6.169  11.554 -0.4495 -1.0138 -0.3302
 9541TIP3    H250115   1.425   6.102  11.647  0.6943 -0.2724 -0.9899
 9542TIP3   OH250116   0.027   3.687   0.005  0.6259  0.4606  0.0116
 9542TIP3    H150117   0.012   3.596  -0.021  1.2071  0.8742 -1.9358
 9542TIP3    H250118  -0.055   3.732  -0.015  0.2994  0.3754  1.0775
 9543TIP3   OH250119   1.418   0.090  13.809  0.0207  0.0430 -0.0190
 9543TIP3    H150120   1.404   0.182  13.789 -2.1055 -0.2143  0.0022
 9543TIP3    H250121   1.392   0.080  13.901 -0.1597 -0.6322 -0.1319
 9544TIP3   OH250122   1.341   2.206  12.452 -0.2485 -0.4490 -0.3253
 9544TIP3    H150123   1.277   2.245  12.392 -1.0239 -0.3350  0.5627
 9544TIP3    H250124   1.408   2.169  12.394 -0.0466  1.2162 -1.2165
 9545TIP3   OH250125   4.634   0.266   3.908 -0.0406 -0.1393 -0.3333
 9545TIP3    H150126   4.700   0.323   3.947 -1.1211 -0.0304  1.4514
 9545TIP3    H250127   4.669   0.244   3.822  2.1438  0.2078  0.4013
 9546TIP3   OH250128   2.291   1.061   1.699 -0.2486 -0.4015  0.0950
 9546TIP3    H150129   2.244   1.142   1.676 -0.8329 -0.2337  1.7741
 9546TIP3    H250130   2.241   1.024   1.772  1.6310 -0.7650  1.2650
 9547TIP3   OH250131   1.245   1.018   6.085 -0.3063  0.4314  0.1068
 9547TIP3    H150132   1.226   1.059   6.001  0.0260  2.8201  1.1018
 9547TIP3    H250133   1.291   0.937   6.063 -0.5451  0.8176 -1.9975
 9548TIP3   OH250134   6.695   6.724  14.382  0.4081 -0.3660 -0.1801
 9548TIP3    H150135   6.710   6.698  14.473 -3.3745 -1.2656  0.3490
 9548TIP3    H250136   6.656   6.647  14.341  1.2935  0.2875 -2.4183
 9549TIP3   OH250137   4.907   1.853  15.205  0.0320  0.3655  0.1705
 9549TIP3    H150138   4.915   1.820  15.115  0.4762 -0.5642  0.5389
 9549TIP3    H250139   4.997   1.861  15.235 -0.1318 -0.0467  0.7856
 9550TIP3   OH250140   3.058   1.632  17.120 -0.0450  0.0444 -0.6096
 9550TIP3    H150141   3.093   1.704  17.174  0.4068  0.0401 -0.8875
 9550TIP3    H250142   3.070   1.662  17.030  0.7308 -0.6364 -0.7453
 9551TIP3   OH250143   2.339   5.185  17.095  0.3840 -0.8570 -0.0025
 9551TIP3    H150144   2.337   5.224  17.182 -0.2394  0.6454 -0.6412
 9551TIP3    H250145   2.256   5.137  17.088 -0.6618  0.9393 -0.5482
 9552TIP3   OH250146   4.085   3.586  14.262 -0.7760  0.1914 -0.6824
 9552TIP3    H150147   4.055   3.673  14.289 -1.3125  0.0509 -0.8154
 9552TIP3    H250148   4.032   3.565  14.185 -1.6862 -0.8676  0.1890
 9553TIP3   OH250149   3.360   1.415  13.890  0.1843  0.3015 -0.0361
 9553TIP3    H150150   3.311   1.364  13.826 -1.1698 -0.8868  1.8264
 9553TIP3    H250151   3.315   1.499  13.894 -1.2892 -0.4936  1.0612
 9554TIP3   OH250152   2.580   0.082   6.180  0.7962  0.2341 -0.1056
 9554TIP3    H150153   2.661   0.119   6.216  1.4382 -0.2729 -0.9785
 9554TIP3    H250154   2.577  -0.007   6.215  0.6729  0.2203 -0.1521
 9555TIP3   OH250155   5.882   1.716   2.215  0.2357 -0.1790 -0.3599
 9555TIP3    H150156   5.807   1.657   2.216  0.7453 -0.8429  1.0171
 9555TIP3    H250157   5.949   1.671   2.266  0.9328  1.2114  0.0164
 9556TIP3   OH250158   1.037   1.877  14.183  0.0402 -0.5931 -0.6073
 9556TIP3    H150159   1.060   1.887  14.276  0.8992 -0.0162 -0.8751
 9556TIP3    H250160   0.952   1.831  14.185 -0.2183 -0.1146  0.4728
 9557TIP3   OH250161   2.007   2.399  11.585  0.1851  0.0132 -0.5843
 9557TIP3    H150162   1.999   2.324  11.643 -2.6868  1.0509  0.5576
 9557TIP3    H250163   1.937   2.459  11.613  1.9120  2.8340 -1.8435
 9558TIP3   OH250164   1.351   6.367  11.501 -0.0208  0.2989  0.4083
 9558TIP3    H150165   1.340   6.334  11.412  1.5702 -0.8760  0.6053
 9558TIP3    H250166   1.303   6.450  11.502 -0.5640  0.0438 -1.3565
 9559TIP3   OH250167   1.222   0.305   2.906  0.1754 -0.1819 -0.3728
 9559TIP3    H150168   1.151   0.271   2.961 -0.2846 -0.4943 -1.1459
 9559TIP3    H250169   1.287   0.234   2.905  0.2479 -0.1224 -0.1364
 9560TIP3   OH250170   5.741   6.055   0.883  0.3117  0.0062  0.6971
 9560TIP3    H150171   5.654   6.086   0.859  1.1426  1.8182 -0.2079
 9560TIP3    H250172   5.748   6.074   0.977 -0.9899 -2.1132  1.2779
 9561TIP3   OH250173   6.566   2.792   4.414 -0.1604  0.1523  0.5192
 9561TIP3    H150174   6.659   2.797   4.394 -0.6926  2.7649 -1.9587
 9561TIP3    H250175   6.534   2.718   4.363  0.2913  0.2501  0.0906
 9562TIP3   OH250176   2.751   4.516  13.435  0.9453  0.0266  0.9020
 9562TIP3    H150177   2.673   4.533  13.382 -0.0311 -2.2555  1.4935
 9562TIP3    H250178   2.761   4.594  13.489 -0.2225  0.8596 -0.0294
 9563TIP3   OH250179   3.778   3.193   1.650 -0.1153  0.1541  0.2273
 9563TIP3    H150180   3.868   3.189   1.681  0.2374 -1.3985 -0.8618
 9563TIP3    H250181   3.738   3.112   1.683 -0.7152  0.1687 -0.4435
 9564TIP3   OH250182   6.722   3.609  15.048  0.7559 -0.3676 -0.1746
 9564TIP3    H150183   6.684   3.620  14.961  0.3385 -1.0100 -0.0813
 9564TIP3    H250184   6.810   3.647  15.041  0.2533  0.8089 -0.5007
 9565TIP3   OH250185   3.769   0.456  13.088  0.0700  0.0482 -0.3011
 9565TIP3    H150186   3.782   0.483  12.997  0.1918  0.8771 -0.0496
 9565TIP3    H250187   3.820   0.376  13.098  0.9925  0.5888 -0.6504
 9566TIP3   OH250188   3.536   6.699   0.987  0.1528  0.4919 -0.0031
 9566TIP3    H150189   3.627   6.702   1.017  0.4872 -2.1695 -0.5065
 9566TIP3    H250190   3.502   6.617   1.022 -1.3340  0.2905 -1.7662
 9567TIP3   OH250191   1.759   6.041  16.472  0.0503 -0.0122  0.5294
 9567TIP3    H150192   1.719   5.960  16.504  0.8643  0.1871  2.1036
 9567TIP3    H250193   1.801   6.016  16.390 -0.2336 -1.0277  0.6807
 9568TIP3   OH250194   2.260   3.804   3.370 -0.0622 -0.2583 -0.0416
 9568TIP3    H150195   2.201   3.728   3.363 -0.0246 -0.3096  0.1983
 9568TIP3    H250196   2.307   3.790   3.452 -0.1167  0.0718  0.0455
 9569TIP3   OH250197   0.834   5.169  14.601  0.3832  0.6402 -0.0316
 9569TIP3    H150198   0.843   5.242  14.540 -0.8125  0.2969 -0.6458
 9569TIP3    H250199   0.805   5.209  14.683 -2.7536  0.6826 -1.0405
 9570TIP3   OH250200   3.325   6.692   5.238  0.5041 -0.3284  0.0791
 9570TIP3    H150201   3.290   6.709   5.326  1.5044  0.0621  0.4091
 9570TIP3    H250202   3.349   6.778   5.204  0.9316 -0.5654 -0.2282
 9571TIP3   OH250203   6.271   6.758  13.695  0.1072  0.0512  0.2246
 9571TIP3    H150204   6.326   6.765  13.773 -1.1660 -0.1385  1.1762
 9571TIP3    H250205   6.325   6.712  13.631  0.9939 -0.2556  1.1678
 9572TIP3   OH250206   5.827   4.338  15.656  0.1012  0.0364 -0.5575
 9572TIP3    H150207   5.767   4.397  15.702  2.4052  1.7334  0.4488
 9572TIP3    H250208   5.857   4.278  15.724  1.1290  0.5527 -0.5400
 9573TIP3   OH250209   4.101   4.031  17.041  0.4798 -0.2542  0.3178
 9573TIP3    H150210   4.023   3.989  17.005  0.1901 -0.5032  1.2115
 9573TIP3    H250211   4.106   4.115  16.995 -0.5561 -0.0505  0.5386
 9574TIP3   OH250212   6.304   0.597  16.666  0.4159  0.1896 -0.4853
 9574TIP3    H150213   6.230   0.559  16.620 -0.1871  2.0583 -1.1755
 9574TIP3    H250214   6.292   0.572  16.757 -1.1075  0.5048 -0.5799
 9575TIP3   OH250215   2.538   5.002   3.008 -0.2971  0.2618  0.2461
 9575TIP3    H150216   2.631   4.986   3.024 -0.2711 -0.2566 -0.3838
 9575TIP3    H250217   2.500   5.010   3.095 -0.1157 -2.2189  0.6216
 9576TIP3   OH250218   0.872   0.590  13.637 -0.0687  0.1224 -0.6076
 9576TIP3    H150219   0.889   0.534  13.561  1.2625  0.2073 -0.3986
 9576TIP3    H250220   0.839   0.672  13.600 -0.1112 -0.0945 -1.0556
 9577TIP3   OH250221   1.473   4.184  11.431  0.0937 -0.3454  0.0030
 9577TIP3    H150222   1.530   4.126  11.380  1.4116  0.9008 -0.0352
 9577TIP3    H250223   1.385   4.149  11.419  0.7334 -1.7735 -0.7543
 9578TIP3   OH250224   2.165   3.005  14.249  0.3000  0.0466 -0.1026
 9578TIP3    H150225   2.231   3.012  14.181  1.2637 -0.0966  0.7913
 9578TIP3    H250226   2.124   2.919  14.235  0.2899  0.1415 -0.6635
 9579TIP3   OH250227   3.691   2.533   3.145 -0.5499 -0.5161  0.3826
 9579TIP3    H150228   3.613   2.586   3.126 -0.3857 -0.1627  0.6769
 9579TIP3    H250229   3.755   2.596   3.179 -1.0689 -1.1707  2.8240
 9580TIP3   OH250230   2.732   1.332  13.654 -0.6872 -0.0487  0.5729
 9580TIP3    H150231   2.759   1.241  13.649 -0.8926 -0.1635  1.3760
 9580TIP3    H250232   2.802   1.381  13.611 -1.4306 -0.7076 -1.5277
 9581TIP3   OH250233   5.640   3.906  15.292  0.3618 -0.0350 -0.5485
 9581TIP3    H150234   5.609   3.929  15.380 -0.8347  2.1909 -1.4784
 9581TIP3    H250235   5.730   3.938  15.289 -0.8156  3.7097 -1.3297
 9582TIP3   OH250236   6.656   2.503   0.062 -0.0384 -0.5910  0.1901
 9582TIP3    H150237   6.676   2.428   0.006 -1.3629 -0.8524  0.0204
 9582TIP3    H250238   6.633   2.573   0.000  0.3466 -0.3098  0.3659
 9583TIP3   OH250239   1.358   4.754  15.313  0.8509  0.7647 -0.2137
 9583TIP3    H150240   1.272   4.713  15.301  0.5799  1.4364 -0.6233
 9583TIP3    H250241   1.386   4.779  15.225  0.7878  1.8794  0.0645
 9584TIP3   OH250242   3.063   1.169  15.360  0.0338  0.2069  0.0264
 9584TIP3    H150243   3.130   1.158  15.292 -0.7616  0.0481 -0.7478
 9584TIP3    H250244   3.043   1.263  15.358  1.4102  0.5656  1.4187
 9585TIP3   OH250245   5.861   4.704  12.047 -0.0626 -0.4510 -0.0378
 9585TIP3    H150246   5.895   4.667  11.966  0.0299 -0.7641  0.1421
 9585TIP3    H250247   5.932   4.758  12.081 -0.8593  1.5451 -1.3080
 9586TIP3   OH250248   5.957   0.706   5.703 -0.3743  0.3505 -0.0232
 9586TIP3    H150249   5.886   0.642   5.705  0.1697 -0.2551  0.3147
 9586TIP3    H250250   6.036   0.653   5.691  0.0169  1.0193 -0.4630
 9587TIP3   OH250251   6.677   3.581  16.596 -0.7437 -0.8869 -0.7641
 9587TIP3    H150252   6.667   3.492  16.629 -1.2782 -0.7081 -0.4375
 9587TIP3    H250253   6.766   3.583  16.560  0.2193 -0.8232  1.4884
 9588TIP3   OH250254   2.482   3.042   3.908  0.2611 -0.4100  0.2656
 9588TIP3    H150255   2.490   2.948   3.896 -1.8382 -0.4765 -1.1584
 9588TIP3    H250256   2.400   3.053   3.958  0.9604  0.6408  1.2482
 9589TIP3   OH250257   1.896   3.323  17.232 -0.0638 -0.2322 -0.8595
 9589TIP3    H150258   1.960   3.328  17.161  0.7691 -1.7664 -0.2531
 9589TIP3    H250259   1.888   3.230  17.251  0.9008  0.1825  2.1014
 9590TIP3   OH250260   2.885   4.021   2.378 -0.0101 -0.1768 -0.0248
 9590TIP3    H150261   2.933   4.055   2.454 -1.4476  1.8353  0.0748
 9590TIP3    H250262   2.829   3.952   2.414 -0.1279  0.2483  0.6207
 9591TIP3   OH250263   0.931   4.480   1.638  0.2260  0.2034  0.5449
 9591TIP3    H150264   0.866   4.525   1.584 -0.2537  1.1735  1.8871
 9591TIP3    H250265   0.978   4.550   1.683  2.5944 -0.4264 -0.7629
 9592TIP3   OH250266   1.668   3.046   6.213 -0.4155  0.2956  0.3419
 9592TIP3    H150267   1.653   2.973   6.272  0.6699  0.7400  1.2107
 9592TIP3    H250268   1.593   3.103   6.225 -0.4550  0.1262  0.9188
 9593TIP3   OH250269   5.389   1.564   5.082  0.0535 -0.0228  0.2479
 9593TIP3    H150270   5.443   1.516   5.019  0.0019  0.0318  0.1609
 9593TIP3    H250271   5.300   1.556   5.048 -0.1928 -1.2830  1.1313
 9594TIP3   OH250272   4.929   3.105   5.295 -0.0565  0.2521  0.1642
 9594TIP3    H150273   4.985   3.028   5.299 -2.1019 -1.2697  2.2308
 9594TIP3    H250274   4.924   3.136   5.385 -2.0419  0.6909 -0.0555
 9595TIP3   OH250275   4.475   5.973   3.698  0.3465 -0.3199  0.3780
 9595TIP3    H150276   4.417   6.031   3.746  0.8308  0.2861  0.2517
 9595TIP3    H250277   4.562   5.992   3.733  0.6546 -0.1476 -0.4581
 9596TIP3   OH250278   5.321   4.775  11.375 -0.0497  0.0074  0.0246
 9596TIP3    H150279   5.394   4.714  11.365  0.5108  0.2770  1.9828
 9596TIP3    H250280   5.300   4.772  11.468 -0.3079  2.4104  0.1167
 9597TIP3   OH250281   6.641   6.730  16.430 -0.3229 -0.7056 -0.1488
 9597TIP3    H150282   6.693   6.658  16.395  1.2454 -0.4800  1.5756
 9597TIP3    H250283   6.702   6.781  16.483 -1.8349  0.7960  0.2517
 9598TIP3   OH250284   5.085   2.025   3.453 -0.1693  0.2522 -0.2150
 9598TIP3    H150285   5.011   1.976   3.416  0.3141 -0.7263  0.0867
 9598TIP3    H250286   5.163   1.986   3.414  0.2845  0.0601  0.8433
 9599TIP3   OH250287   3.208   6.810  15.409 -0.3647  0.0549 -0.1797
 9599TIP3    H150288   3.258   6.732  15.383 -0.3103  0.2140 -0.5539
 9599TIP3    H250289   3.163   6.838  15.329 -2.7742 -1.3183  0.5816
 9600TIP3   OH250290   1.463   4.710   2.471 -0.0437  0.4695 -0.2864
 9600TIP3    H150291   1.384   4.682   2.424  0.2928  1.6141 -1.5872
 9600TIP3    H250292   1.465   4.805   2.461  1.4439  0.4763 -0.2043
 9601TIP3   OH250293   0.361   3.783  14.762  0.0905  0.1122 -0.9404
 9601TIP3    H150294   0.415   3.729  14.704  0.1438  1.2299 -1.9742
 9601TIP3    H250295   0.392   3.872  14.747 -1.3579  0.6619 -0.7983
 9602TIP3   OH250296   2.132   2.807   2.149  0.3046 -0.3342  0.1464
 9602TIP3    H150297   2.089   2.723   2.166  2.5436 -1.6812 -0.5277
 9602TIP3    H250298   2.142   2.846   2.236 -1.9686 -0.0468  0.3587
 9603TIP3   OH250299   1.916   1.528  11.488  0.3379 -0.1021 -0.2419
 9603TIP3    H150300   1.855   1.457  11.468 -0.9954  1.6741 -3.0983
 9603TIP3    H250301   1.986   1.519  11.424  2.0769 -0.8288  1.6447
 9604TIP3   OH250302   0.713   4.062   6.453 -0.2180  0.1238  0.6654
 9604TIP3    H150303   0.624   4.045   6.421  0.0693  1.2341 -0.8446
 9604TIP3    H250304   0.714   4.156   6.472  0.9263  0.3623 -0.4129
 9605TIP3   OH250305   1.500   3.550  16.209 -0.1323 -0.3539 -0.1640
 9605TIP3    H150306   1.558   3.574  16.137 -0.7569 -1.4030 -1.0499
 9605TIP3    H250307   1.528   3.605  16.282  1.1898  0.0009 -0.9083
 9606TIP3   OH250308   4.308   4.694  14.234  0.2825 -0.2366  0.0765
 9606TIP3    H150309   4.272   4.611  14.266  1.0843 -0.0135  1.6494
 9606TIP3    H250310   4.314   4.682  14.139 -2.7537 -0.7054 -0.1602
 9607TIP3   OH250311   4.345   1.730  10.594 -0.7047 -0.0522 -0.5881
 9607TIP3    H150312   4.295   1.808  10.618  0.7288  0.5258  0.7177
 9607TIP3    H250313   4.286   1.657  10.611 -1.9363  0.7003 -1.4473
 9608TIP3   OH250314   1.134   2.292  13.779 -0.4650 -0.1335 -0.3080
 9608TIP3    H150315   1.112   2.282  13.686 -0.0976 -0.3640 -0.3754
 9608TIP3    H250316   1.179   2.211  13.801  0.1134  0.2297 -0.1238
 9609TIP3   OH250317   0.378   5.628  13.068  0.3870  0.3659 -0.6697
 9609TIP3    H150318   0.376   5.700  13.131 -0.2039  1.0748 -1.4739
 9609TIP3    H250319   0.456   5.645  13.015 -0.4482  1.1559 -1.6809
 9610TIP3   OH250320   2.422   3.250  17.026  0.5633 -0.5948  0.1041
 9610TIP3    H150321   2.405   3.313  17.095  0.7031  0.1789 -0.5584
 9610TIP3    H250322   2.479   3.184  17.067  2.7408  1.1492  0.0890
 9611TIP3   OH250323   0.865   0.687   5.690 -0.6799  0.2222 -0.3816
 9611TIP3    H150324   0.869   0.620   5.622 -2.2973  0.8832 -1.1841
 9611TIP3    H250325   0.822   0.644   5.764 -1.5567  0.3026 -0.8317
 9612TIP3   OH250326   1.295   5.255   1.870 -0.3374  0.0814  0.3402
 9612TIP3    H150327   1.331   5.319   1.809 -0.1891 -0.2400  0.0896
 9612TIP3    H250328   1.269   5.307   1.946 -0.4408  0.4721  0.0437
 9613TIP3   OH250329   1.922   0.477  14.767  0.2986  0.3109 -0.3587
 9613TIP3    H150330   1.864   0.413  14.808 -1.2533  1.3481 -0.8586
 9613TIP3    H250331   1.869   0.515  14.697  2.4677 -0.6241 -2.6605
 9614TIP3   OH250332   4.374   6.382  11.148 -0.0354  0.0791  0.0809
 9614TIP3    H150333   4.462   6.370  11.183 -0.1895 -2.1166 -0.1261
 9614TIP3    H250334   4.388   6.402  11.055  0.2455  0.5987  0.2292
 9615TIP3   OH250335   5.432   1.632  13.029 -0.2666  0.1862 -0.8618
 9615TIP3    H150336   5.478   1.595  12.954 -0.4784  0.9854 -1.3910
 9615TIP3    H250337   5.379   1.559  13.063 -1.0509  0.1238 -2.1772
 9616TIP3   OH250338   6.131   1.548  16.579  0.2146  0.0352  0.0718
 9616TIP3    H150339   6.189   1.490  16.529  0.1747  1.3944 -1.6023
 9616TIP3    H250340   6.069   1.582  16.515 -0.7774  0.6868  1.3367
 9617TIP3   OH250341   6.639   4.605  14.432  0.7088  0.1401 -0.1278
 9617TIP3    H150342   6.660   4.520  14.472  0.7422  0.3914  0.4091
 9617TIP3    H250343   6.571   4.586  14.369 -0.1764 -0.1122  0.8752
 9618TIP3   OH250344   2.001   0.889  14.629  0.3478  0.1367  0.4260
 9618TIP3    H150345   1.911   0.882  14.662  0.3317 -0.5904  0.2422
 9618TIP3    H250346   2.045   0.813  14.665  0.3539 -0.6214 -1.1454
 9619TIP3   OH250347   6.409   1.973   4.315  0.2685  0.3002 -0.2584
 9619TIP3    H150348   6.481   1.992   4.254  0.6914 -4.4523 -1.6528
 9619TIP3    H250349   6.403   1.877   4.315 -2.1064  0.1752  4.5627
 9620TIP3   OH250350   2.135   3.991   3.532 -0.0980 -0.2639  0.1061
 9620TIP3    H150351   2.193   3.933   3.482  0.1450  0.6719 -0.7299
 9620TIP3    H250352   2.193   4.057   3.568 -0.7299  1.4445 -1.8161
 9621TIP3   OH250353   4.725   6.744  12.410  0.3553  0.4170 -0.3543
 9621TIP3    H150354   4.654   6.695  12.450  0.1279  0.7427 -0.3540
 9621TIP3    H250355   4.792   6.749  12.479  0.0634  0.7680 -0.0929
 9622TIP3   OH250356   3.985   2.577  14.236  0.1953  0.1046 -0.1033
 9622TIP3    H150357   3.993   2.491  14.277  1.7503  0.5518  0.6204
 9622TIP3    H250358   3.973   2.557  14.143 -1.7171 -0.8936  0.3021
 9623TIP3   OH250359   5.117   5.884   2.665 -0.1401  0.8012 -0.3014
 9623TIP3    H150360   5.025   5.860   2.676 -0.0574  0.1570 -0.8853
 9623TIP3    H250361   5.120   5.930   2.581 -0.2920  2.9565  0.7977
 9624TIP3   OH250362   0.754   4.962   3.959  0.1877 -0.0874 -0.7338
 9624TIP3    H150363   0.767   4.889   3.898  0.3876  0.4807 -1.3922
 9624TIP3    H250364   0.819   5.027   3.932 -1.1695  1.0613 -1.3257
 9625TIP3   OH250365   0.942   2.896   1.899  0.0179 -0.0064  0.5833
 9625TIP3    H150366   0.871   2.918   1.959 -0.3241 -0.0316  0.1944
 9625TIP3    H250367   0.900   2.844   1.830  0.2927  0.4787  0.0372
 9626TIP3   OH250368   5.204   1.104   4.968  0.9085  0.5863 -0.4958
 9626TIP3    H150369   5.214   1.195   4.939  2.5161  0.8024  0.6080
 9626TIP3    H250370   5.183   1.056   4.888 -3.5026  2.2993 -0.6753
 9627TIP3   OH250371   2.973   0.696  13.771 -0.7870  0.3836  0.1912
 9627TIP3    H150372   2.920   0.776  13.769 -0.3922  0.6537  0.2149
 9627TIP3    H250373   2.987   0.674  13.679 -1.3529  0.0301  0.1886
 9628TIP3   OH250374   1.951   4.095   1.779  0.0096 -0.5027 -0.1593
 9628TIP3    H150375   1.926   4.149   1.854  0.9606  1.5902 -1.2571
 9628TIP3    H250376   1.995   4.019   1.817 -1.3455 -0.5382  1.4521
 9629TIP3   OH250377   6.750   1.600  13.537 -0.4244 -0.2698 -0.0497
 9629TIP3    H150378   6.676   1.604  13.597  1.0060 -0.6597  1.8436
 9629TIP3    H250379   6.824   1.572  13.592  1.4639  1.4824 -1.5172
 9630TIP3   OH250380   6.770   0.293   0.973  0.5141  0.1690  0.3050
 9630TIP3    H150381   6.799   0.210   0.935  0.1171  0.7263 -1.2524
 9630TIP3    H250382   6.766   0.275   1.067 -0.8999 -2.0008 -0.1025
 9631TIP3   OH250383   5.726   6.079  12.281  0.0744 -0.1364  0.2093
 9631TIP3    H150384   5.747   6.151  12.222 -2.2904  1.1131  0.7695
 9631TIP3    H250385   5.778   6.005  12.249  1.1755  1.3126 -1.5045
 9632TIP3   OH250386   6.362   4.488   4.126  1.1342 -0.1250  0.7786
 9632TIP3    H150387   6.322   4.554   4.183 -0.2190 -0.0297 -0.2355
 9632TIP3    H250388   6.399   4.539   4.053 -2.6083 -0.4870 -1.6734
 9633TIP3   OH250389   1.479   4.368   5.246 -0.3597  0.0994  0.3923
 9633TIP3    H150390   1.442   4.325   5.169  0.9164 -1.7138  0.7250
 9633TIP3    H250391   1.537   4.434   5.211  0.7332 -1.1648 -0.2749
 9634TIP3   OH250392   3.791   5.592   1.260 -0.6401  0.3350  0.0331
 9634TIP3    H150393   3.885   5.604   1.270 -0.5723 -0.0695 -0.0790
 9634TIP3    H250394   3.768   5.644   1.183 -0.4441  0.1526 -0.1497
 9635TIP3   OH250395   0.825   3.408  11.461 -0.0549  0.1656  0.1459
 9635TIP3    H150396   0.898   3.346  11.466  0.1949  0.3512 -0.9719
 9635TIP3    H250397   0.788   3.408  11.550  1.1187 -0.1553  0.6628
 9636TIP3   OH250398   0.022   2.515   5.572  0.0621  0.4557  0.3566
 9636TIP3    H150399  -0.020   2.437   5.534  0.9256 -0.5705  1.4395
 9636TIP3    H250400  -0.044   2.551   5.631 -0.7366  1.2037 -0.9299
 9637TIP3   OH250401   4.764   0.260  11.428 -0.6032 -0.8287 -0.4610
 9637TIP3    H150402   4.850   0.297  11.449  0.2350 -1.5425 -2.3840
 9637TIP3    H250403   4.705   0.335  11.430  0.6449  0.2853 -2.0398
 9638TIP3   OH250404   3.342   2.619  13.271  0.5772 -0.0792 -0.0326
 9638TIP3    H150405   3.253   2.582  13.272  0.4372  0.0377 -2.3042
 9638TIP3    H250406   3.382   2.586  13.351 -1.7856  0.6213  1.5610
 9639TIP3   OH250407   6.745   4.320   6.011  0.0149  0.2666  0.0754
 9639TIP3    H150408   6.712   4.332   6.100  0.4286  0.2484  0.2322
 9639TIP3    H250409   6.667   4.297   5.959 -0.2041  0.1507  0.4551
 9640TIP3   OH250410   6.595   3.079  11.633  0.4170  0.2143  0.2654
 9640TIP3    H150411   6.649   3.000  11.634 -0.2527 -0.2528  0.6258
 9640TIP3    H250412   6.652   3.147  11.597  1.6814  0.0387  1.8176
 9641TIP3   OH250413   5.432   6.199   1.951 -0.4112 -0.5769 -0.3387
 9641TIP3    H150414   5.440   6.107   1.928 -0.3808 -0.7473  0.3474
 9641TIP3    H250415   5.338   6.215   1.954 -0.4405 -0.8615  0.5968
 9642TIP3   OH250416   1.934   0.928  16.280 -0.1994  0.3631  0.2598
 9642TIP3    H150417   1.963   0.942  16.370 -0.4086 -0.9305  0.5520
 9642TIP3    H250418   1.987   0.854  16.249  0.5288  1.3691 -1.0142
 9643TIP3   OH250419   4.190   4.967  15.187  0.0900 -0.5511 -0.0794
 9643TIP3    H150420   4.158   5.044  15.234  1.6429 -0.3463  0.7195
 9643TIP3    H250421   4.162   4.981  15.096  0.1791  0.8809  0.0817
 9644TIP3   OH250422   4.205   1.212   1.738  0.2049 -0.4189 -0.0704
 9644TIP3    H150423   4.286   1.234   1.691  0.6667  0.4694  1.0812
 9644TIP3    H250424   4.145   1.283   1.716  0.1582 -0.4194  0.0559
 9645TIP3   OH250425   6.790   2.213  15.134  0.0308  0.3761 -0.1647
 9645TIP3    H150426   6.818   2.304  15.125 -0.8614  0.6169 -0.6479
 9645TIP3    H250427   6.853   2.173  15.194 -0.7725  1.8589  1.7642
 9646TIP3   OH250428   6.066   2.940   3.417  0.2738 -0.5861 -0.1490
 9646TIP3    H150429   6.046   3.007   3.482  0.2297  0.4711 -1.2045
 9646TIP3    H250430   6.047   2.857   3.460  0.1787  0.0876  1.1437
 9647TIP3   OH250431   3.997   6.573  16.065  0.5263  0.4684  0.3205
 9647TIP3    H150432   4.025   6.500  16.010 -0.3587  1.3617 -1.3943
 9647TIP3    H250433   4.078   6.604  16.107  1.1401 -0.5876 -0.0452
 9648TIP3   OH250434   5.140   6.010   0.725 -0.0345 -0.2310  0.4622
 9648TIP3    H150435   5.219   5.956   0.727 -0.0220 -0.2078  1.6982
 9648TIP3    H250436   5.169   6.094   0.690  0.4151 -0.3451  0.5532
 9649TIP3   OH250437   0.742   4.749  11.057  0.0162  0.1528 -0.2121
 9649TIP3    H150438   0.772   4.664  11.023 -0.1674  0.2323 -0.5762
 9649TIP3    H250439   0.805   4.812  11.022 -1.2620  0.4956 -2.0736
 9650TIP3   OH250440   5.771   4.441   1.188  0.5775  0.1941 -0.0356
 9650TIP3    H150441   5.736   4.530   1.190  0.2138  0.1041  3.1422
 9650TIP3    H250442   5.720   4.396   1.120  1.2550  2.5036 -2.2308
 9651TIP3   OH250443   5.489   1.389   3.797 -0.4154  0.4846 -0.0251
 9651TIP3    H150444   5.471   1.306   3.842 -2.1222  0.7105 -0.1915
 9651TIP3    H250445   5.445   1.379   3.712  0.0516  1.2552 -0.3573
 9652TIP3   OH250446   4.686   4.288   2.629 -0.6487  0.3536 -0.1433
 9652TIP3    H150447   4.600   4.245   2.631  0.3342 -1.7461 -0.0870
 9652TIP3    H250448   4.666   4.381   2.614 -2.8360 -0.3260 -2.1352
 9653TIP3   OH250449   3.629   4.152   1.814 -0.1135 -0.1204 -0.3584
 9653TIP3    H150450   3.551   4.168   1.761  1.1991  1.6468 -1.9349
 9653TIP3    H250451   3.602   4.174   1.904 -1.8306 -1.1375 -0.5863
 9654TIP3   OH250452   3.630   3.606   0.450  0.8979  0.0506 -0.1409
 9654TIP3    H150453   3.630   3.542   0.522  1.9307 -0.5558 -0.6549
 9654TIP3    H250454   3.721   3.633   0.442  1.7564 -3.0108 -3.8651
 9655TIP3   OH250455   5.869   0.273   5.802 -0.4559  0.3377  0.1563
 9655TIP3    H150456   5.907   0.290   5.888  0.4822 -0.6104 -0.0470
 9655TIP3    H250457   5.840   0.181   5.807 -1.2258  0.5534 -0.2366
 9656TIP3   OH250458   2.993   5.029  16.956 -0.0091 -0.2264  0.4480
 9656TIP3    H150459   2.942   5.039  16.875 -1.4728 -0.1296  1.3519
 9656TIP3    H250460   3.081   5.007  16.926 -0.0300  1.6576 -1.2593
 9657TIP3   OH250461   1.713   5.999   2.067 -0.5618  0.8184  0.2402
 9657TIP3    H150462   1.804   5.969   2.068 -1.1827 -1.4060 -1.2704
 9657TIP3    H250463   1.714   6.084   2.111  2.0244  0.2731  1.3563
 9658TIP3   OH250464   3.139   0.805  16.008 -0.5502 -0.4254 -0.3440
 9658TIP3    H150465   3.153   0.893  16.041 -2.9998 -0.3793  0.8105
 9658TIP3    H250466   3.082   0.817  15.932 -2.2937 -1.0215  0.7961
 9659TIP3   OH250467   6.562   5.012  15.795 -0.5213  0.4299  0.2862
 9659TIP3    H150468   6.518   5.078  15.848 -0.3746  2.0542 -1.5095
 9659TIP3    H250469   6.597   5.061  15.720  1.5557 -1.3224  0.0174
 9660TIP3   OH250470   1.010   0.193   3.092 -0.0649  0.3361 -0.0596
 9660TIP3    H150471   0.938   0.136   3.065 -0.0382  0.7353 -1.0233
 9660TIP3    H250472   1.045   0.153   3.171 -1.2381  0.0427  0.3218
 9661TIP3   OH250473   6.794   1.084  13.497 -0.6784  0.1852  0.1285
 9661TIP3    H150474   6.775   1.004  13.547  2.3420 -0.7728  0.0012
 9661TIP3    H250475   6.829   1.052  13.414  1.3456  1.5645  0.3784
 9662TIP3   OH250476   1.459   1.892   1.531 -0.0954 -0.6815 -0.2733
 9662TIP3    H150477   1.364   1.903   1.522 -0.0464  0.2490  0.2959
 9662TIP3    H250478   1.469   1.833   1.605 -0.2043  0.4140  0.6389
 9663TIP3   OH250479   2.882   3.704  16.530  0.0594 -0.5388  0.6926
 9663TIP3    H150480   2.976   3.709  16.515 -0.1266  0.6650 -0.2594
 9663TIP3    H250481   2.858   3.791  16.562 -1.2693  0.5287 -2.7414
 9664TIP3   OH250482   5.756   3.300   0.810 -0.4259  0.3792  0.2037
 9664TIP3    H150483   5.742   3.240   0.737 -0.4088  1.4183 -0.6821
 9664TIP3    H250484   5.675   3.352   0.813 -0.4169  0.3606  0.9201
 9665TIP3   OH250485   0.129   3.248  16.873 -0.2485 -0.1098  0.2605
 9665TIP3    H150486   0.181   3.169  16.856 -2.7159 -1.1915 -3.5948
 9665TIP3    H250487   0.054   3.218  16.923  0.2603  0.4291  1.3688
 9666TIP3   OH250488   4.350   0.358  14.256  0.8076  0.4474 -0.6271
 9666TIP3    H150489   4.413   0.305  14.305  2.4450  2.3656 -0.5028
 9666TIP3    H250490   4.276   0.369  14.315  0.9604 -0.6461 -0.2053
 9667TIP3   OH250491   2.078   5.294   2.898  0.6284 -0.1907 -0.0504
 9667TIP3    H150492   2.106   5.247   2.977 -0.0468 -0.3856  0.0795
 9667TIP3    H250493   2.035   5.373   2.931 -0.3516 -0.6492 -0.1820
 9668TIP3   OH250494   6.776   5.519   1.436 -0.0893 -0.0233 -0.2354
 9668TIP3    H150495   6.786   5.555   1.349  1.3418  0.0825 -0.0561
 9668TIP3    H250496   6.707   5.452   1.427 -0.4665  0.4895 -1.2629
 9669TIP3   OH250497   2.358   5.337   6.003  0.2075 -0.2549 -0.1700
 9669TIP3    H150498   2.277   5.324   5.955  0.3677 -1.3786 -0.1811
 9669TIP3    H250499   2.357   5.429   6.030 -0.0845  0.2893 -1.9443
 9670TIP3   OH250500   4.539   6.375  13.198 -0.2322  0.5053  0.5054
 9670TIP3    H150501   4.480   6.301  13.184 -1.0844  1.2033  0.3060
 9670TIP3    H250502   4.574   6.362  13.286  3.1301 -2.5100 -1.0103
 9671TIP3   OH250503   2.078   6.649  11.082 -0.9502 -0.4085 -0.2407
 9671TIP3    H150504   2.020   6.701  11.138 -0.0151  1.1671 -0.6684
 9671TIP3    H250505   2.027   6.633  11.002 -0.9323  0.6572 -0.4718
 9672TIP3   OH250506   1.562   2.163  15.067  0.0507  0.0778  0.2988
 9672TIP3    H150507   1.574   2.098  15.137 -1.4452  0.5302  1.0084
 9672TIP3    H250508   1.511   2.117  15.000 -1.7512  0.7379  1.1784
 9673TIP3   OH250509   6.641   6.621   5.294  0.1365  0.2657  0.0528
 9673TIP3    H150510   6.653   6.571   5.375  0.9704 -1.6605 -1.1875
 9673TIP3    H250511   6.726   6.660   5.277  0.3794 -0.5174 -0.6063
 9674TIP3   OH250512   5.187   5.830  11.350 -0.1675 -0.3381 -0.0722
 9674TIP3    H150513   5.255   5.892  11.323  0.2523 -0.1963  1.2480
 9674TIP3    H250514   5.179   5.770  11.276  1.3869 -0.3352 -0.2794
 9675TIP3   OH250515   0.319   0.763   5.388 -0.2075 -0.3433  0.0808
 9675TIP3    H150516   0.324   0.776   5.293 -0.0111 -1.2385 -0.0341
 9675TIP3    H250517   0.407   0.783   5.420 -0.7079  1.7220  0.3206
 9676TIP3   OH250518   2.249   0.081   3.248 -0.4141  0.3690  0.2677
 9676TIP3    H150519   2.238   0.113   3.158 -1.9298 -0.6733  0.0350
 9676TIP3    H250520   2.274   0.158   3.298 -0.9430  1.2775 -0.8128
 9677TIP3   OH250521   6.732   6.688   0.479 -0.2649  0.2297  0.5213
 9677TIP3    H150522   6.717   6.630   0.554 -2.3314 -0.1340 -0.1053
 9677TIP3    H250523   6.682   6.767   0.500  0.5536  0.8254  0.2779
 9678TIP3   OH250524   0.611   4.999  17.125  0.0614  0.5045  0.7296
 9678TIP3    H150525   0.621   5.093  17.135 -1.1518  0.5651  1.6166
 9678TIP3    H250526   0.676   4.974  17.060 -0.7688  2.2167 -0.8224
 9679TIP3   OH250527   5.209   2.027   2.288 -0.1142 -0.5857  0.2870
 9679TIP3    H150528   5.242   2.042   2.200 -1.0271 -1.2633 -0.1939
 9679TIP3    H250529   5.142   2.094   2.301 -0.4380 -0.8913  0.2089
 9680TIP3   OH250530   2.112   4.443  16.255  0.3105 -0.2119 -0.0311
 9680TIP3    H150531   2.180   4.488  16.204 -0.9737  1.5006 -0.3278
 9680TIP3    H250532   2.128   4.471  16.345 -0.0022  0.2402 -0.1093
 9681TIP3   OH250533   3.546   0.867  12.235 -0.1589 -0.3947 -0.9993
 9681TIP3    H150534   3.579   0.777  12.238  0.3741 -0.2241 -1.5482
 9681TIP3    H250535   3.451   0.858  12.237 -0.1082 -0.9213  0.1229
 9682TIP3   OH250536   6.497   2.884  10.572  0.4604 -0.2795 -0.7404
 9682TIP3    H150537   6.439   2.848  10.639 -1.3884  2.1053 -0.8982
 9682TIP3    H250538   6.574   2.914  10.620  0.2285 -0.8016 -0.0408
 9683TIP3   OH250539   4.626   5.130   3.069  0.3798  0.5969 -0.5019
 9683TIP3    H150540   4.706   5.161   3.113  1.1041  1.1542 -2.1316
 9683TIP3    H250541   4.633   5.035   3.072  0.7855  0.6330 -0.0797
 9684TIP3   OH250542   3.415   0.206   2.698  0.0221  0.0652  0.0337
 9684TIP3    H150543   3.386   0.199   2.789  0.3681  0.0626  0.1424
 9684TIP3    H250544   3.506   0.234   2.703  0.4057 -1.0577 -0.2888
 9685TIP3   OH250545   1.242   6.538   4.960  0.2273  0.6150  0.6241
 9685TIP3    H150546   1.176   6.598   4.925  0.9561  1.2853  0.3774
 9685TIP3    H250547   1.230   6.457   4.909 -0.1175  0.8751  0.2865
 9686TIP3   OH250548   1.928   1.605   4.651 -0.0906 -0.4916  0.6692
 9686TIP3    H150549   2.015   1.566   4.666  0.8567  0.1930 -2.3801
 9686TIP3    H250550   1.939   1.697   4.675  0.3792 -0.1822 -0.6419
 9687TIP3   OH250551   5.166   2.435  13.386 -0.8635 -0.1150  0.4035
 9687TIP3    H150552   5.198   2.512  13.433  0.0012  0.8438 -1.6440
 9687TIP3    H250553   5.241   2.406  13.334 -1.6519 -1.4180 -0.0522
 9688TIP3   OH250554   3.745   1.681   2.856  0.2147 -0.0963  0.1374
 9688TIP3    H150555   3.804   1.754   2.837  1.8594 -1.6892 -1.1483
 9688TIP3    H250556   3.686   1.716   2.923  1.7510  1.9950  0.5163
 9689TIP3   OH250557   1.565   5.907  13.757  0.3972 -0.0472 -0.0435
 9689TIP3    H150558   1.604   5.872  13.836  1.0844  1.0162  0.1121
 9689TIP3    H250559   1.492   5.961  13.787  1.1867  1.0610 -0.0412
 9690TIP3   OH250560   3.298   6.000   1.192 -0.1526 -0.4594  0.1443
 9690TIP3    H150561   3.245   5.988   1.114 -1.9357 -2.0637  1.4931
 9690TIP3    H250562   3.360   5.927   1.191 -1.0201 -1.2331  0.8125
 9691TIP3   OH250563   4.583   0.174  14.419 -0.1626  0.4168 -0.3623
 9691TIP3    H150564   4.650   0.135  14.362 -1.8925 -1.0923 -1.4652
 9691TIP3    H250565   4.581   0.117  14.496  0.2294  0.8333 -0.0360
 9692TIP3   OH250566   6.620   5.618  15.047 -0.1895 -0.1019  0.4610
 9692TIP3    H150567   6.530   5.585  15.052 -0.6648  1.1425  0.5084
 9692TIP3    H250568   6.642   5.614  14.954 -0.9050  1.0890  0.2190
 9693TIP3   OH250569   1.181   3.258   2.264  0.5832 -0.8816  0.0936
 9693TIP3    H150570   1.142   3.171   2.272  0.4553 -0.9861 -1.4696
 9693TIP3    H250571   1.243   3.263   2.337  0.1885 -2.0654  0.5303
 9694TIP3   OH250572   1.243   5.557  13.828  0.2545  0.1141  0.5492
 9694TIP3    H150573   1.238   5.651  13.846  0.0989 -0.3410  3.4073
 9694TIP3    H250574   1.269   5.518  13.912 -1.3241 -2.5497 -0.0673
 9695TIP3   OH250575   0.552   2.738   6.404  0.0420  0.1550 -0.0065
 9695TIP3    H150576   0.501   2.819   6.399 -0.0917  0.0412 -0.6332
 9695TIP3    H250577   0.499   2.679   6.457  0.2840  0.5758  0.7190
 9696TIP3   OH250578   4.906   3.667  16.629  0.3429  0.4190 -0.4905
 9696TIP3    H150579   4.936   3.754  16.604 -1.2368  1.7817  1.9679
 9696TIP3    H250580   4.908   3.668  16.725 -0.5622 -1.9609 -0.3884
 9697TIP3   OH250581   0.406   5.561  11.428  0.2076 -0.1897 -0.1182
 9697TIP3    H150582   0.315   5.586  11.436  0.6356  1.2431  0.4707
 9697TIP3    H250583   0.417   5.539  11.335 -0.7401 -0.4579 -0.1692
 9698TIP3   OH250584   0.923   4.587  10.858  0.0457  0.0430  0.6051
 9698TIP3    H150585   1.011   4.559  10.882  0.8634  1.5042 -0.5705
 9698TIP3    H250586   0.935   4.649  10.787 -1.9612  0.1063  0.2480
 9699TIP3   OH250587   0.786   0.601   2.623 -0.1005  0.4053 -0.2317
 9699TIP3    H150588   0.842   0.550   2.681 -0.4925 -1.0119 -1.0602
 9699TIP3    H250589   0.697   0.568   2.640 -0.3945  0.9874 -0.6057
 9700TIP3   OH250590   4.973   4.671   1.147 -0.6298 -0.2083  0.4381
 9700TIP3    H150591   5.026   4.670   1.226 -1.6422  1.8456  1.2224
 9700TIP3    H250592   4.883   4.681   1.178 -1.1304 -0.1927 -0.9500
 9701TIP3   OH250593   6.084   1.311   0.902 -0.2784  0.2436 -0.2958
 9701TIP3    H150594   6.136   1.371   0.848 -0.6534  0.9491  0.1071
 9701TIP3    H250595   6.131   1.228   0.898  0.5445  0.7022 -0.4336
 9702TIP3   OH250596   3.945   3.439   3.160 -0.4871  0.0821  0.2352
 9702TIP3    H150597   3.922   3.370   3.098  1.8633  1.0615 -1.9171
 9702TIP3    H250598   4.020   3.405   3.208 -0.1119  0.6220  0.0495
 9703TIP3   OH250599   1.715   0.712  16.803  0.0272 -0.0354  0.1531
 9703TIP3    H150600   1.667   0.633  16.781 -0.4367 -0.3412  2.1281
 9703TIP3    H250601   1.681   0.778  16.743 -0.0675 -1.1471 -1.0604
 9704TIP3   OH250602   2.882   5.409  16.964  0.2332 -0.6186 -0.1815
 9704TIP3    H150603   2.942   5.359  16.909  0.8048 -2.0041  1.6020
 9704TIP3    H250604   2.933   5.483  16.994  0.8660 -1.4130  0.7572
 9705TIP3   OH250605   6.306   0.979  12.257  0.1679 -0.0670 -0.0763
 9705TIP3    H150606   6.373   1.036  12.219  0.4316  0.5175  1.2136
 9705TIP3    H250607   6.251   1.039  12.308  0.0131 -0.8762  0.7140
 9706TIP3   OH250608   6.774   2.794  14.208  0.3685 -0.1656 -0.0519
 9706TIP3    H150609   6.794   2.714  14.159  0.1492  1.0511 -2.2328
 9706TIP3    H250610   6.807   2.865  14.153 -0.2152  1.3129  1.4202
 9707TIP3   OH250611   0.281   3.930   2.785 -0.3780  0.3234 -0.8026
 9707TIP3    H150612   0.352   3.866   2.775 -0.7960 -0.1555 -0.7151
 9707TIP3    H250613   0.262   3.931   2.879 -1.2793 -0.4175 -0.9653
 9708TIP3   OH250614   0.316   1.822  10.677 -0.3965 -0.6631  0.2622
 9708TIP3    H150615   0.305   1.916  10.663 -0.5518 -0.6950  0.1664
 9708TIP3    H250616   0.402   1.802  10.641  0.3427 -0.2678  1.7117
 9709TIP3   OH250617   5.333   6.401  15.035  0.1033 -0.0274 -0.0215
 9709TIP3    H150618   5.285   6.422  14.955  1.3826 -0.9077 -1.0658
 9709TIP3    H250619   5.399   6.470  15.042  0.4529 -0.3486 -0.1303
 9710TIP3   OH250620   6.435   3.369  14.189  0.1293  0.3369 -0.2601
 9710TIP3    H150621   6.396   3.415  14.114  0.3471  2.0821  0.6417
 9710TIP3    H250622   6.360   3.334  14.237 -0.1908  1.3192 -0.0087
 9711TIP3   OH250623   2.821   0.903  14.683 -0.6778  0.2412  0.1053
 9711TIP3    H150624   2.755   0.971  14.694  0.0144  0.7459  1.4220
 9711TIP3    H250625   2.901   0.943  14.717 -0.4152 -1.4956  1.6419
 9712TIP3   OH250626   2.350   4.227   4.132  0.6144  0.1230 -0.2240
 9712TIP3    H150627   2.429   4.181   4.104  0.0507 -0.9352 -0.1310
 9712TIP3    H250628   2.278   4.171   4.103 -0.0848  0.7461  0.2657
 9713TIP3   OH250629   1.997   1.318   2.510 -0.4479 -0.2072  0.1083
 9713TIP3    H150630   1.978   1.359   2.426 -0.7281 -0.6371 -0.0354
 9713TIP3    H250631   1.943   1.366   2.573 -0.4685 -0.0898  0.0010
 9714TIP3   OH250632   4.279   0.324  11.529  0.3397 -0.1314  0.4426
 9714TIP3    H150633   4.207   0.324  11.592 -1.7046  2.0283 -1.7034
 9714TIP3    H250634   4.252   0.261  11.462  0.6105  0.4203 -0.1925
 9715TIP3   OH250635   0.119   5.897  15.401 -0.2865  0.1024 -0.8493
 9715TIP3    H150636   0.100   5.839  15.328 -0.5559 -0.5821 -0.2494
 9715TIP3    H250637   0.060   5.869  15.471  0.3893  0.3375 -0.1605
 9716TIP3   OH250638   1.237   4.533   2.921  0.0834  0.0475 -0.5092
 9716TIP3    H150639   1.222   4.442   2.946  0.0694  0.1261 -0.2163
 9716TIP3    H250640   1.326   4.551   2.950  0.6489 -0.3305 -1.9768
 9717TIP3   OH250641   3.954   3.263   2.929 -0.3855 -0.1685  0.2729
 9717TIP3    H150642   3.935   3.310   2.848 -1.0927  0.0044  0.5313
 9717TIP3    H250643   4.046   3.237   2.921 -0.4833 -0.2609 -0.6317
 9718TIP3   OH250644   6.167   3.092   4.625 -0.0297  0.3289  0.1368
 9718TIP3    H150645   6.087   3.078   4.676  0.4027 -0.4935  0.6153
 9718TIP3    H250646   6.187   3.005   4.588  1.3701  0.2106  1.1102
 9719TIP3   OH250647   0.927   0.248   1.092 -0.0273 -0.0164  0.0457
 9719TIP3    H150648   0.922   0.155   1.114 -0.4876  0.0749  0.3560
 9719TIP3    H250649   0.837   0.279   1.101 -0.2153  0.0844 -1.8022
 9720TIP3   OH250650   0.508   4.602   0.947  0.1708  0.2570 -0.2951
 9720TIP3    H150651   0.495   4.680   1.000 -1.0706 -0.1430  0.0110
 9720TIP3    H250652   0.562   4.545   1.001  3.0866  1.7561 -1.4073
 9721TIP3   OH250653   0.591   4.358  13.284  0.3786  0.1352 -0.3164
 9721TIP3    H150654   0.640   4.399  13.213  1.2390 -0.7767 -0.2753
 9721TIP3    H250655   0.637   4.276  13.300 -1.2085 -0.8023 -0.3275
 9722TIP3   OH250656   1.819   1.822   4.429 -0.7538  0.9270  0.3936
 9722TIP3    H150657   1.734   1.835   4.471 -0.5705 -0.2211  1.1622
 9722TIP3    H250658   1.882   1.827   4.501 -0.3064  0.2941  0.0510
 9723TIP3   OH250659   0.787   0.264   4.793 -0.4920  0.3779  0.1641
 9723TIP3    H150660   0.836   0.312   4.860  0.3154  0.6179 -0.5758
 9723TIP3    H250661   0.855   0.221   4.741 -1.1675 -0.8905  0.2988
 9724TIP3   OH250662   1.713   4.454  10.945 -0.0944 -0.0706 -1.0429
 9724TIP3    H150663   1.678   4.380  10.894  0.1865 -1.0297  0.1101
 9724TIP3    H250664   1.808   4.441  10.943  0.2120  1.8855 -3.1976
 9725TIP3   OH250665   2.423   2.108  12.219  0.4286 -0.1860 -0.1201
 9725TIP3    H150666   2.487   2.162  12.265  0.2279  0.1283 -0.2054
 9725TIP3    H250667   2.361   2.080  12.287 -0.2411  0.8164 -0.2938
 9726TIP3   OH250668   1.473   6.467  12.223  0.6578 -0.2896 -0.1614
 9726TIP3    H150669   1.443   6.546  12.179  0.2337  0.5301  1.5185
 9726TIP3    H250670   1.515   6.498  12.303 -0.4669 -1.7687  1.0817
 9727TIP3   OH250671   5.322   3.199  13.304 -0.7811  0.9006 -0.3174
 9727TIP3    H150672   5.339   3.196  13.399  0.6789  0.1770 -0.5795
 9727TIP3    H250673   5.242   3.148  13.293 -1.0985  1.1859  0.5464
 9728TIP3   OH250674   4.410   3.162   1.957  0.4116 -0.2316  0.8401
 9728TIP3    H150675   4.489   3.110   1.942 -0.3019 -1.3633  0.8919
 9728TIP3    H250676   4.423   3.201   2.043  2.3808  2.3700 -0.4865
 9729TIP3   OH250677   4.997   6.004   6.495  0.3220 -0.4880  0.0571
 9729TIP3    H150678   4.909   6.013   6.532  0.1065 -0.7664 -0.3750
 9729TIP3    H250679   4.982   5.987   6.402  0.8708  0.6969 -0.2616
 9730TIP3   OH250680   0.462   3.317  16.165  0.5259 -0.1173  0.0047
 9730TIP3    H150681   0.389   3.298  16.107  0.9388 -0.5938 -0.3744
 9730TIP3    H250682   0.513   3.236  16.166  0.9295  0.1363  0.4344
 9731TIP3   OH250683   4.364   3.616   1.406  0.1252  0.7366  0.9578
 9731TIP3    H150684   4.300   3.550   1.432  0.2469 -0.2781 -1.0876
 9731TIP3    H250685   4.449   3.573   1.416  0.1974  0.4918 -0.4986
 9732TIP3   OH250686   6.280   4.691   1.610  0.1315  0.0282 -0.3685
 9732TIP3    H150687   6.261   4.777   1.645  0.8660  0.2278 -0.4464
 9732TIP3    H250688   6.196   4.659   1.577 -1.1850 -1.1826  3.6278
 9733TIP3   OH250689   5.499   3.321   5.487 -0.3695  0.0270 -0.3473
 9733TIP3    H150690   5.417   3.319   5.438  0.4069 -0.8882 -1.6825
 9733TIP3    H250691   5.550   3.391   5.446 -0.2449  0.1827  0.0691
 9734TIP3   OH250692   3.471   2.358  13.664 -0.4739  0.2035 -0.6517
 9734TIP3    H150693   3.381   2.367  13.696 -0.3656 -0.2995 -0.1920
 9734TIP3    H250694   3.462   2.315  13.580 -0.6534 -0.0115 -0.5246
 9735TIP3   OH250695   2.254   5.213  12.575  0.1781  0.2618  0.3772
 9735TIP3    H150696   2.224   5.190  12.487 -0.3205 -0.4376  0.7226
 9735TIP3    H250697   2.336   5.165  12.585  0.5924  0.8907  0.0381
 9736TIP3   OH250698   6.270   2.704  13.740 -0.2892  0.4146 -0.4023
 9736TIP3    H150699   6.330   2.756  13.686 -0.5805  0.5936 -0.5616
 9736TIP3    H250700   6.204   2.672  13.678  0.0524 -0.3996 -0.3566
 9737TIP3   OH250701   4.600   1.281   6.630 -0.2815  0.7644 -0.4406
 9737TIP3    H150702   4.620   1.296   6.538 -1.4736  0.9077 -0.6951
 9737TIP3    H250703   4.525   1.337   6.648 -0.5292  0.1869  0.4195
 9738TIP3   OH250704   3.844   5.948   5.802  0.2951  0.3750  0.0772
 9738TIP3    H150705   3.923   5.897   5.821  0.9867  0.3312 -2.5339
 9738TIP3    H250706   3.876   6.033   5.774 -0.6201  0.5816 -0.3762
 9739TIP3   OH250707   1.242   4.147   6.087  0.8342 -0.4875 -0.0064
 9739TIP3    H150708   1.320   4.105   6.051 -0.1303 -1.9016 -0.5193
 9739TIP3    H250709   1.239   4.117   6.178  1.1758  0.0102  0.1733
 9740TIP3   OH250710   4.354   0.778   0.678 -0.4199  0.4197 -0.0010
 9740TIP3    H150711   4.314   0.695   0.651 -1.0492  0.9267 -0.6369
 9740TIP3    H250712   4.415   0.799   0.608  1.3676 -0.5897  1.1872
 9741TIP3   OH250713   6.535   5.689  12.372 -0.4107 -0.3939  0.3877
 9741TIP3    H150714   6.493   5.748  12.310 -1.1003 -1.3974 -0.1260
 9741TIP3    H250715   6.628   5.712  12.368 -0.3845 -0.7133 -1.3206
 9742TIP3   OH250716   5.804   5.772   3.976 -0.8829 -0.1800  0.2414
 9742TIP3    H150717   5.721   5.790   4.019 -1.1113 -0.4559 -0.0797
 9742TIP3    H250718   5.864   5.838   4.011 -0.2642 -2.1446  3.1981
 9743TIP3   OH250719   5.418   2.689  10.788  0.5714 -0.2051  0.1249
 9743TIP3    H150720   5.463   2.705  10.705  0.7760 -2.2740 -0.2147
 9743TIP3    H250721   5.327   2.673  10.764  0.5637 -0.4778  0.3198
 9744TIP3   OH250722   1.356   3.334  15.096 -0.3361 -0.0769  0.3243
 9744TIP3    H150723   1.342   3.306  15.186 -1.1249  0.2424  0.3034
 9744TIP3    H250724   1.269   3.334  15.056 -0.2271  1.3425  0.0306
 9745TIP3   OH250725   0.579   5.569  15.758 -0.3537  0.3941  0.1718
 9745TIP3    H150726   0.533   5.575  15.842  0.7254 -1.4332  0.9588
 9745TIP3    H250727   0.636   5.645  15.757 -0.1094  0.2452  1.3006
 9746TIP3   OH250728   5.573   5.252   3.524  0.2859  0.6863 -0.4248
 9746TIP3    H150729   5.490   5.244   3.476  1.5123 -1.0015 -2.4455
 9746TIP3    H250730   5.582   5.168   3.569  0.7008  1.0264  0.1298
 9747TIP3   OH250731   5.434   1.932   1.024  0.2649 -0.1488 -0.4915
 9747TIP3    H150732   5.437   1.851   1.075  1.0786  0.4240  0.4174
 9747TIP3    H250733   5.525   1.947   0.998  0.0465  0.2251 -1.0464
 9748TIP3   OH250734   1.186   6.482   2.813  0.4086 -0.4771  0.2540
 9748TIP3    H150735   1.172   6.468   2.906  0.7714 -0.5912  0.2942
 9748TIP3    H250736   1.272   6.443   2.795  0.2602 -0.6192 -0.1651
 9749TIP3   OH250737   0.019   0.038  13.976 -0.5038 -0.6316  0.2013
 9749TIP3    H150738   0.096  -0.018  13.965 -0.3939 -0.4831  0.2118
 9749TIP3    H250739  -0.054  -0.024  13.990 -0.4438 -0.7795 -0.1393
 9750TIP3   OH250740   0.768   4.371  10.767 -0.5175 -0.2798 -0.0118
 9750TIP3    H150741   0.685   4.368  10.815 -0.8562  0.2242 -0.5546
 9750TIP3    H250742   0.810   4.451  10.798  0.4366 -1.2529  1.3274
 9751TIP3   OH250743   2.472   6.410   2.001 -0.3156  0.2819 -0.1321
 9751TIP3    H150744   2.532   6.364   1.942 -0.9122 -1.1849  0.3695
 9751TIP3    H250745   2.507   6.392   2.088  0.8173  2.7931  0.0268
 9752TIP3   OH250746   6.114   4.014   3.281  0.1631  0.2978 -0.3862
 9752TIP3    H150747   6.195   3.967   3.304 -0.7359 -1.1214  0.0524
 9752TIP3    H250748   6.080   3.967   3.205 -1.8795 -1.2445  1.3480
 9753TIP3   OH250749   3.828   1.230  13.037 -0.1392 -0.3632  0.3575
 9753TIP3    H150750   3.902   1.277  13.075  0.1833 -0.3585 -0.2762
 9753TIP3    H250751   3.844   1.138  13.061  0.2985 -0.4195 -0.1492
 9754TIP3   OH250752   1.337   5.822  11.431 -0.3354  0.2477  0.0560
 9754TIP3    H150753   1.332   5.897  11.491 -0.6511 -0.0641  0.4282
 9754TIP3    H250754   1.351   5.860  11.345  0.4038  0.6992  0.3612
 9755TIP3   OH250755   4.623   0.818  14.209 -0.4702  0.4285 -0.0085
 9755TIP3    H150756   4.546   0.761  14.217 -0.7087  0.9439  1.7727
 9755TIP3    H250757   4.697   0.761  14.228 -0.3508 -0.0689 -1.7256
 9756TIP3   OH250758   6.588   2.541   6.487  0.0510  0.1477  0.2543
 9756TIP3    H150759   6.589   2.480   6.413 -0.9879 -3.1693  2.7325
 9756TIP3    H250760   6.499   2.575   6.489  0.3638  1.0739 -0.5499
 9757TIP3   OH250761   5.864   0.707   1.365  0.6649  0.9885 -0.5657
 9757TIP3    H150762   5.817   0.785   1.397 -0.1764  0.7420 -1.1864
 9757TIP3    H250763   5.798   0.657   1.317  1.5629  0.6228 -1.4404
 9758TIP3   OH250764   2.647   0.538  11.844 -0.4500  0.4918  0.5978
 9758TIP3    H150765   2.697   0.571  11.769  0.1358 -1.3853  0.1169
 9758TIP3    H250766   2.592   0.612  11.870 -1.5455  0.8922 -2.4067
 9759TIP3   OH250767   4.585   2.676  16.775 -0.3033  0.3178 -0.0934
 9759TIP3    H150768   4.663   2.709  16.731 -0.3093  0.7365  0.1955
 9759TIP3    H250769   4.537   2.629  16.708 -0.6846  1.5730 -0.7223
 9760TIP3   OH250770   5.091   0.401  14.085  0.4697  0.5361 -0.2576
 9760TIP3    H150771   5.162   0.357  14.039 -0.5029 -2.2117  0.6839
 9760TIP3    H250772   5.016   0.396  14.025  0.3827  1.0741 -0.2005
 9761TIP3   OH250773   2.442   3.057  15.484 -0.0451 -0.0227  0.2943
 9761TIP3    H150774   2.511   3.118  15.459  0.4715 -0.5380  0.4387
 9761TIP3    H250775   2.367   3.113  15.503 -0.9488  0.4091 -3.6352
 9762TIP3   OH250776   1.065   5.582  16.343 -0.4774  0.3582  0.2069
 9762TIP3    H150777   1.025   5.530  16.413 -2.3065  1.1921 -0.1690
 9762TIP3    H250778   0.993   5.634  16.307  0.7836  1.2689 -1.1213
 9763TIP3   OH250779   2.252   1.456  10.804 -0.4958 -0.2093  0.1901
 9763TIP3    H150780   2.281   1.376  10.759  0.1484 -0.0506  0.3153
 9763TIP3    H250781   2.333   1.498  10.832 -0.8600  0.1801  0.6644
 9764TIP3   OH250782   6.633   2.935   3.365 -0.1296 -0.4544 -0.4407
 9764TIP3    H150783   6.541   2.909   3.371  0.0600 -0.9122  0.6232
 9764TIP3    H250784   6.630   3.029   3.345 -0.8443 -0.1379  1.0677
 9765TIP3   OH250785   4.734   5.919  14.617  0.0721  0.3745  0.2827
 9765TIP3    H150786   4.770   5.859  14.552 -0.9807 -1.4699  1.3283
 9765TIP3    H250787   4.680   5.980  14.566  0.2233 -0.2862 -0.6933
 9766TIP3   OH250788   6.476   6.039   4.820  0.0811 -0.7690  0.2692
 9766TIP3    H150789   6.561   6.084   4.814  0.2842 -1.1818  0.0333
 9766TIP3    H250790   6.447   6.056   4.910 -0.2326  0.5258 -0.0643
 9767TIP3   OH250791   6.136   3.725   2.584  0.1685  0.1445  0.6478
 9767TIP3    H150792   6.088   3.695   2.661  0.6218 -0.6721  0.6196
 9767TIP3    H250793   6.142   3.820   2.595  1.1357 -0.0589  2.1488
 9768TIP3   OH250794   0.167   0.525   2.510  0.1208  0.4535 -0.0644
 9768TIP3    H150795   0.211   0.532   2.425 -1.9866  1.8991 -1.1079
 9768TIP3    H250796   0.239   0.526   2.573  1.6770  1.4729 -1.7411
 9769TIP3   OH250797   0.363   3.988   0.827  0.3508  0.1662 -0.2568
 9769TIP3    H150798   0.353   3.951   0.914  2.9037 -0.4481 -0.1536
 9769TIP3    H250799   0.399   4.076   0.842  0.8941  0.0198 -0.6841
 9770TIP3   OH250800   4.736   5.606   1.975  0.4083 -0.2305  0.2037
 9770TIP3    H150801   4.816   5.566   1.942  0.7155  0.3407  0.2423
 9770TIP3    H250802   4.732   5.692   1.932 -0.1995 -0.2647  0.1791
 9771TIP3   OH250803   3.425   1.091  14.101 -0.4251  0.2360  0.3648
 9771TIP3    H150804   3.456   1.004  14.074 -0.4977  0.7462 -1.5075
 9771TIP3    H250805   3.501   1.148  14.092 -0.8964  0.7508 -0.4520
 9772TIP3   OH250806   5.479   1.832   1.396 -0.2877  0.2646 -0.6789
 9772TIP3    H150807   5.384   1.843   1.390  0.0337  3.0572 -2.1202
 9772TIP3    H250808   5.499   1.756   1.342 -1.8726 -2.1565  1.8755
 9773TIP3   OH250809   1.171   1.232   6.499  0.4523 -0.1400  0.0388
 9773TIP3    H150810   1.146   1.244   6.407  0.7940  2.1984  0.1816
 9773TIP3    H250811   1.191   1.320   6.529  0.7551 -0.9197  2.2635
 9774TIP3   OH250812   3.891   5.568  11.518  0.2683  0.5276 -0.2170
 9774TIP3    H150813   3.957   5.499  11.503 -0.6066 -0.1258 -1.2267
 9774TIP3    H250814   3.908   5.598  11.607  1.2872 -0.3370 -0.0926
 9775TIP3   OH250815   1.003   6.124   2.830 -0.3838 -0.2757 -0.2187
 9775TIP3    H150816   0.925   6.120   2.886 -0.9520  1.9784 -0.7519
 9775TIP3    H250817   1.068   6.171   2.883  1.1754 -3.2976  0.7467
 9776TIP3   OH250818   4.789   6.337  13.017 -0.3122  0.0077 -0.4193
 9776TIP3    H150819   4.726   6.389  13.067  0.0667 -0.2224  0.3032
 9776TIP3    H250820   4.870   6.389  13.019 -0.5243  0.4049 -1.5246
 9777TIP3   OH250821   0.189   3.654   5.179 -0.3190  0.1217  0.0111
 9777TIP3    H150822   0.121   3.722   5.175 -0.2473  0.1464 -0.9158
 9777TIP3    H250823   0.266   3.700   5.214 -0.1933  0.6038 -0.8574
 9778TIP3   OH250824   0.178   4.329   6.592 -0.1608  0.3110  0.1814
 9778TIP3    H150825   0.150   4.261   6.653  1.1275  1.9290  2.7532
 9778TIP3    H250826   0.117   4.401   6.608 -0.8417  0.1950 -1.7129
 9779TIP3   OH250827   5.212   4.213  11.152  0.0118 -0.1388 -0.1673
 9779TIP3    H150828   5.293   4.264  11.153 -0.1165  0.1436 -1.6125
 9779TIP3    H250829   5.202   4.186  11.061 -1.2091 -0.6833  0.1053
 9780TIP3   OH250830   1.007   2.919  16.475 -0.2887 -0.4094 -0.4946
 9780TIP3    H150831   0.952   2.993  16.501 -1.8000 -1.2969 -1.0304
 9780TIP3    H250832   0.979   2.897  16.386 -0.3850 -2.0464 -0.1030
 9781TIP3   OH250833   3.962   0.177  12.627  0.4134  0.2680  0.6146
 9781TIP3    H150834   3.909   0.097  12.628  1.0239 -0.2451 -1.5730
 9781TIP3    H250835   3.900   0.246  12.607  0.4550 -0.3405 -2.0141
 9782TIP3   OH250836   2.009   4.747   0.363 -0.3685  0.0247 -0.9946
 9782TIP3    H150837   1.916   4.747   0.342 -0.6864  2.9506 -0.1409
 9782TIP3    H250838   2.013   4.787   0.450  1.7414  1.0697 -1.5143
 9783TIP3   OH250839   4.866   1.658  13.419  0.0839  0.0132 -0.1477
 9783TIP3    H150840   4.873   1.752  13.437 -1.4967  0.1081  0.1424
 9783TIP3    H250841   4.795   1.651  13.354  2.2278 -0.7531 -2.5878
 9784TIP3   OH250842   2.003   4.191  11.931  0.1630  0.0907  0.0641
 9784TIP3    H150843   1.980   4.271  11.883 -0.9774 -0.5369 -0.4783
 9784TIP3    H250844   2.052   4.138  11.868  1.1336  0.4399  0.4994
 9785TIP3   OH250845   5.813   3.124   3.866 -0.4008  0.4216  0.0370
 9785TIP3    H150846   5.855   3.109   3.781 -1.7258  0.1926 -0.6020
 9785TIP3    H250847   5.812   3.219   3.875  0.0306  0.4397 -0.0424
 9786TIP3   OH250848   5.807   4.385   6.534  0.1614 -0.3393  0.4832
 9786TIP3    H150849   5.757   4.376   6.615  0.2142 -2.6819  0.3473
 9786TIP3    H250850   5.808   4.296   6.498  1.6514  0.3060 -1.1869
 9787TIP3   OH250851   4.434   5.005   2.602 -0.1681 -0.3807  0.3293
 9787TIP3    H150852   4.495   4.999   2.675  0.5957  1.3193 -0.1354
 9787TIP3    H250853   4.433   5.098   2.579 -2.1440 -0.5347 -0.3523
 9788TIP3   OH250854   0.957   2.086   4.535 -0.0273 -0.0440  0.1032
 9788TIP3    H150855   1.050   2.093   4.513  0.2750  2.8547  1.7327
 9788TIP3    H250856   0.912   2.093   4.451  1.1985  1.7448 -0.4625
 9789TIP3   OH250857   5.849   0.257   5.170  0.3610 -0.0157 -0.0694
 9789TIP3    H150858   5.867   0.173   5.212 -0.9201  0.0599  0.7000
 9789TIP3    H250859   5.817   0.313   5.241  2.6431  1.6404 -0.2476
 9790TIP3   OH250860   0.873   5.078  12.732  0.0516  0.2685  0.4671
 9790TIP3    H150861   0.820   5.131  12.672 -0.5705  0.3667  1.0930
 9790TIP3    H250862   0.824   4.996  12.741  0.2429  0.1757  0.6784
 9791TIP3   OH250863   1.166   3.725   5.203  0.6067  0.3190 -0.1524
 9791TIP3    H150864   1.203   3.745   5.117 -0.0285 -0.2346 -0.5666
 9791TIP3    H250865   1.234   3.749   5.265  1.0361  0.8171 -0.8071
 9792TIP3   OH250866   1.021   6.351   4.286 -0.2594  0.0670 -0.3216
 9792TIP3    H150867   1.004   6.357   4.380 -0.9831  4.0310 -0.5403
 9792TIP3    H250868   1.114   6.329   4.281 -0.6923 -2.5173  1.1985
 9793TIP3   OH250869   0.896   1.831   3.047  0.4810  0.5590 -0.0506
 9793TIP3    H150870   0.855   1.763   2.992  0.2980  0.3666  0.3210
 9793TIP3    H250871   0.989   1.824   3.028  0.4759  0.1169  0.0806
 9794TIP3   OH250872   1.154   4.734   3.823 -0.5135 -0.1581 -0.1617
 9794TIP3    H150873   1.212   4.787   3.878 -0.9864 -1.4511  1.6850
 9794TIP3    H250874   1.186   4.644   3.833 -3.2513 -1.0898  1.7135
 9795TIP3   OH250875   6.458   5.514   3.488 -0.3162  0.0342  0.2471
 9795TIP3    H150876   6.428   5.574   3.556 -0.6993 -0.1418  0.2369
 9795TIP3    H250877   6.537   5.555   3.452  0.5198 -0.3952  1.5169
 9796TIP3   OH250878   0.346   4.559  16.447 -0.3467  0.4179 -0.2761
 9796TIP3    H150879   0.331   4.557  16.542 -1.8749 -2.4285 -0.4544
 9796TIP3    H250880   0.285   4.625  16.415 -0.7975  0.4580  0.6150
 9797TIP3   OH250881   3.181   1.492   4.693  0.0383 -0.1561  0.1358
 9797TIP3    H150882   3.170   1.465   4.602  0.5753  3.2760 -1.1037
 9797TIP3    H250883   3.093   1.487   4.730 -0.3839 -0.5422 -0.8801
 9798TIP3   OH250884   4.442   5.385   4.486  0.6967  0.1194 -0.3360
 9798TIP3    H150885   4.396   5.302   4.495 -1.3382  1.2296  0.1880
 9798TIP3    H250886   4.496   5.391   4.564 -0.1759 -0.1346  0.3074
 9799TIP3   OH250887   3.792   2.891  16.131  0.3462 -1.0404  0.4017
 9799TIP3    H150888   3.739   2.857  16.203 -0.5724 -2.3175 -0.7965
 9799TIP3    H250889   3.882   2.887  16.163 -0.0207 -1.8140  1.3965
 9800TIP3   OH250890   2.640   5.966   0.425 -0.1323  0.1217 -0.1393
 9800TIP3    H150891   2.601   6.006   0.503  0.1066  0.1567 -0.0365
 9800TIP3    H250892   2.586   5.889   0.408  0.4839 -0.5190  0.7230
 9801TIP3   OH250893   2.566   5.931   4.154  0.4306  0.0958 -0.0423
 9801TIP3    H150894   2.610   5.926   4.239 -0.1066 -0.5164  0.2040
 9801TIP3    H250895   2.509   6.007   4.160  0.3529  0.0207  0.1676
 9802TIP3   OH250896   2.535   3.373  11.139 -0.0858  0.3805  0.3649
 9802TIP3    H150897   2.515   3.337  11.226 -0.6089  1.3598  0.6698
 9802TIP3    H250898   2.582   3.303  11.094 -0.1215 -0.2734  1.3139
 9803TIP3   OH250899   3.929   0.787  16.629 -0.5137  0.2587  0.2558
 9803TIP3    H150900   3.900   0.864  16.677 -0.4605 -0.2571  1.1326
 9803TIP3    H250901   3.954   0.820  16.543 -0.2406  1.2537  0.7065
 9804TIP3   OH250902   5.276   4.576  10.423  0.4318  0.5273  0.3165
 9804TIP3    H150903   5.269   4.671  10.434 -0.7031  0.4939 -0.0543
 9804TIP3    H250904   5.368   4.557  10.442 -0.0322  1.2196  4.1289
 9805TIP3   OH250905   2.344   4.189  11.396  0.1599 -0.2264 -0.0668
 9805TIP3    H150906   2.252   4.217  11.403  0.1937 -0.5069  2.0444
 9805TIP3    H250907   2.393   4.261  11.435  0.8382 -0.1534 -1.0416
 9806TIP3   OH250908   0.579   2.774   3.754  0.3760  0.1024 -0.3135
 9806TIP3    H150909   0.518   2.773   3.680 -0.5065 -1.0199  0.3888
 9806TIP3    H250910   0.529   2.813   3.826  0.6377 -0.3747  0.1390
 9807TIP3   OH250911   3.399   2.675  14.123 -0.4618  0.0865  0.2750
 9807TIP3    H150912   3.400   2.700  14.215 -1.5736 -1.1613  0.6613
 9807TIP3    H250913   3.391   2.758  14.075 -0.4247  0.7068  1.3210
 9808TIP3   OH250914   5.880   1.704   4.937 -0.4401 -0.1580  0.3309
 9808TIP3    H150915   5.852   1.738   5.022  0.3467 -1.0839  0.9852
 9808TIP3    H250916   5.926   1.778   4.895  1.5920 -0.4599  1.8855
 9809TIP3   OH250917   3.300   4.627  13.551 -0.7147 -0.1138 -0.2565
 9809TIP3    H150918   3.227   4.690  13.554  0.0057  0.7771 -0.7437
 9809TIP3    H250919   3.307   4.604  13.459  0.1453  0.4589 -0.3438
 9810TIP3   OH250920   3.796   0.388   3.157  0.4314  0.0879 -0.2704
 9810TIP3    H150921   3.781   0.447   3.231  1.9317  0.8980 -0.5853
 9810TIP3    H250922   3.709   0.353   3.138 -0.5130  2.0803  0.0300
 9811TIP3   OH250923   4.487   6.680   3.921 -0.0479 -0.1512  0.4848
 9811TIP3    H150924   4.462   6.662   3.830 -1.4977  0.1404  0.7971
 9811TIP3    H250925   4.406   6.710   3.962  0.2407 -1.5773  2.2231
 9812TIP3   OH250926   4.959   5.344  14.695 -0.0654  0.1119  0.2510
 9812TIP3    H150927   4.945   5.428  14.738 -1.0553  0.6793 -1.0955
 9812TIP3    H250928   4.963   5.366  14.602  0.0074 -1.2885 -0.0916
 9813TIP3   OH250929   0.960   6.369   5.051 -0.1191  0.0993  0.0382
 9813TIP3    H150930   1.006   6.412   5.123 -1.7930  0.7587  0.7651
 9813TIP3    H250931   0.926   6.288   5.089 -1.4041  0.6679  0.1688
 9814TIP3   OH250932   5.938   1.271  12.694  0.6602 -0.2402 -0.7277
 9814TIP3    H150933   5.995   1.202  12.726 -0.9026 -0.9608  0.6999
 9814TIP3    H250934   5.985   1.311  12.621  2.7551 -1.0552  0.1211
 9815TIP3   OH250935   4.122   1.238  11.579  0.1839  0.2280 -0.2955
 9815TIP3    H150936   4.149   1.322  11.617 -2.5571  0.9715  0.2252
 9815TIP3    H250937   4.062   1.200  11.643 -1.7996 -0.1616 -2.2576
 9816TIP3   OH250938   1.419   2.915  16.752 -0.4933  0.1140 -0.4094
 9816TIP3    H150939   1.462   2.830  16.749  1.5703  0.9534  1.7074
 9816TIP3    H250940   1.342   2.901  16.808  0.1770 -0.2643  0.4424
 9817TIP3   OH250941   1.315   4.612  11.568  0.2475  0.1013  0.0664
 9817TIP3    H150942   1.373   4.688  11.567 -2.1850  2.0755  0.9272
 9817TIP3    H250943   1.306   4.587  11.476  2.1353 -0.0702 -0.1147
 9818TIP3   OH250944   6.284   1.139   5.106  0.0271  0.3053 -0.3302
 9818TIP3    H150945   6.246   1.136   5.194 -0.6805 -0.9463 -0.6560
 9818TIP3    H250946   6.335   1.220   5.105 -0.9076  0.9477  0.8338
 9819TIP3   OH250947   6.516   2.264   2.556 -0.1482 -0.1238  0.5893
 9819TIP3    H150948   6.596   2.217   2.532 -0.4136 -0.6532  0.7084
 9819TIP3    H250949   6.448   2.223   2.502 -0.3081  0.4452  0.3595
 9820TIP3   OH250950   0.038   3.937  15.602 -0.2348 -0.6231 -0.2122
 9820TIP3    H150951   0.031   4.028  15.572  0.8215 -0.5790 -0.3444
 9820TIP3    H250952   0.029   3.942  15.697 -3.1168 -0.7140 -0.3794
 9821TIP3   OH250953   5.056   3.376   4.982  0.5746  0.7714  0.1543
 9821TIP3    H150954   5.026   3.459   4.945 -1.1282  0.1073 -0.0669
 9821TIP3    H250955   4.989   3.353   5.047 -0.0766 -1.3627 -1.1633
 9822TIP3   OH250956   6.649   3.043   4.213  0.2692 -0.3680 -0.1037
 9822TIP3    H150957   6.646   3.016   4.121 -0.7745 -1.0830  0.1193
 9822TIP3    H250958   6.716   3.111   4.216 -1.1233  1.2164 -1.8280
 9823TIP3   OH250959   5.530   3.813   3.275  0.2005 -0.1439 -0.1557
 9823TIP3    H150960   5.506   3.881   3.213  0.4280  1.0511  1.0243
 9823TIP3    H250961   5.470   3.741   3.257 -0.7404  0.7712 -0.7454
 9824TIP3   OH250962   3.372   3.200   3.181  0.1193 -0.2986  0.9599
 9824TIP3    H150963   3.281   3.213   3.208 -0.2892  0.3938 -0.6547
 9824TIP3    H250964   3.423   3.256   3.240 -0.7023  0.9301  0.5310
 9825TIP3   OH250965   5.292   6.700  11.778  0.1425 -0.2862 -0.1998
 9825TIP3    H150966   5.200   6.707  11.753 -0.0272 -2.3551 -0.2688
 9825TIP3    H250967   5.292   6.721  11.872 -0.5459 -1.1733  0.0089
 9826TIP3   OH250968   0.001   1.666  12.253 -0.0836  0.4121 -0.4808
 9826TIP3    H150969   0.096   1.664  12.245  0.0938  3.3153 -0.0485
 9826TIP3    H250970  -0.030   1.630  12.170  1.3404 -1.2663 -0.3428
 9827TIP3   OH250971   0.918   4.256  12.071  0.0944  0.5765  0.4370
 9827TIP3    H150972   0.997   4.268  12.018 -0.6221  0.5432 -0.6526
 9827TIP3    H250973   0.952   4.233  12.158  1.4162  4.2608  1.0620
 9828TIP3   OH250974   4.657   1.455   1.446  0.2486  0.1232 -0.0322
 9828TIP3    H150975   4.673   1.377   1.500 -0.3495 -0.1109 -0.1836
 9828TIP3    H250976   4.676   1.426   1.356 -0.3552  0.0317 -0.1352
 9829TIP3   OH250977   1.182   1.941   0.873 -0.0965 -0.3441  0.3239
 9829TIP3    H150978   1.152   1.852   0.889 -0.1247 -0.7444 -1.6735
 9829TIP3    H250979   1.260   1.931   0.818 -1.5173  0.8582 -2.0760
 9830TIP3   OH250980   2.844   0.988   3.747 -0.2315  0.1333 -0.4379
 9830TIP3    H150981   2.763   0.986   3.695  0.8186  0.2134 -2.1617
 9830TIP3    H250982   2.816   1.016   3.834 -2.1676 -0.5933 -0.7660
 9831TIP3   OH250983   3.082   5.151   2.170 -0.6844 -0.0155 -0.4775
 9831TIP3    H150984   3.000   5.145   2.122 -1.4779  0.4627  0.7555
 9831TIP3    H250985   3.057   5.143   2.262  0.7476 -0.6728 -0.1083
 9832TIP3   OH250986   4.664   1.278   0.851  0.3075 -0.1411 -0.1899
 9832TIP3    H150987   4.587   1.308   0.900  0.3781  0.4401 -0.4361
 9832TIP3    H250988   4.730   1.261   0.918  0.7260  1.5812 -0.1386
 9833TIP3   OH250989   2.869   1.945  11.409  0.1107  0.7022  0.1956
 9833TIP3    H150990   2.960   1.930  11.383 -0.5368 -0.3760 -1.5730
 9833TIP3    H250991   2.873   1.954  11.504  2.0061  0.2701  0.1977
 9834TIP3   OH250992   3.359   3.766  14.071  0.1924 -0.2301 -0.8080
 9834TIP3    H150993   3.355   3.795  13.980 -0.5540  0.2289 -0.6360
 9834TIP3    H250994   3.302   3.689  14.074 -0.2845  0.1241 -0.6018
 9835TIP3   OH250995   4.454   1.404  13.262  0.7101 -0.0969  0.0776
 9835TIP3    H150996   4.450   1.429  13.170  0.0642  0.9090  0.3537
 9835TIP3    H250997   4.542   1.429  13.290  0.6688  0.2460 -0.0934
 9836TIP3   OH250998   2.058   2.459   4.962 -0.3168 -0.5559 -0.2257
 9836TIP3    H150999   2.046   2.456   5.057 -1.3012  0.3663 -0.3068
 9836TIP3    H251000   1.975   2.428   4.927  0.0940 -1.0262 -0.7993
 9837TIP3   OH251001   0.479   5.363   2.281  0.5611 -0.3523  0.2207
 9837TIP3    H151002   0.505   5.416   2.206  1.6831  2.1045  2.2284
 9837TIP3    H251003   0.551   5.301   2.293  1.4951  0.7880  0.6343
 9838TIP3   OH251004   5.947   3.070   5.447  0.0315  0.2136  0.0560
 9838TIP3    H151005   5.896   3.148   5.424  2.0783  1.8773  0.7430
 9838TIP3    H251006   6.028   3.079   5.395  0.0462 -1.8365 -0.3423
 9839TIP3   OH251007   0.716   0.749   2.877 -0.3242 -0.4958  0.2753
 9839TIP3    H151008   0.713   0.671   2.933 -1.2467 -1.6662 -1.3401
 9839TIP3    H251009   0.799   0.792   2.901 -0.1045 -1.5887  1.6564
 9840TIP3   OH251010   3.509   3.724  12.693 -0.2534  0.2647 -0.1364
 9840TIP3    H151011   3.590   3.675  12.679  0.1483  0.9352 -0.2146
 9840TIP3    H251012   3.458   3.709  12.614 -0.6913 -1.0552  0.3703
 9841TIP3   OH251013   5.835   6.324  13.399  0.3207 -1.0842  0.5408
 9841TIP3    H151014   5.758   6.294  13.448  0.2478 -0.1319  1.0163
 9841TIP3    H251015   5.898   6.349  13.467  0.4216 -0.2654  0.1495
 9842TIP3   OH251016   0.208   4.856  11.311  0.1002 -0.1687 -0.0998
 9842TIP3    H151017   0.144   4.785  11.310  1.5671 -1.5690  0.5759
 9842TIP3    H251018   0.194   4.902  11.228 -1.5772 -0.5848 -0.0783
 9843TIP3   OH251019   1.957   5.042  15.149 -0.0280  0.2324 -0.2504
 9843TIP3    H151020   1.910   4.971  15.193 -0.2639  0.5781  0.0630
 9843TIP3    H251021   1.983   5.005  15.064  1.6096 -0.8995  0.6790
 9844TIP3   OH251022   3.847   2.743   4.954 -0.0656  0.1540  0.1158
 9844TIP3    H151023   3.827   2.703   4.869 -1.2086 -0.2744  0.5563
 9844TIP3    H251024   3.889   2.826   4.932 -0.7372  0.2526 -0.8807
 9845TIP3   OH251025   2.950   0.917  11.834 -0.0226 -0.5339 -0.2975
 9845TIP3    H151026   2.991   0.950  11.754  0.6504 -0.0529  0.2266
 9845TIP3    H251027   2.902   0.993  11.868 -0.9791 -0.9634 -0.6577
 9846TIP3   OH251028   2.427   0.748   5.246  0.1181  0.1060 -0.0362
 9846TIP3    H151029   2.518   0.762   5.218  0.2738 -2.4396 -1.0538
 9846TIP3    H251030   2.391   0.688   5.181 -1.5750 -0.8214  1.6604
 9847TIP3   OH251031   6.427   3.981   6.463 -0.1215  0.1797  0.4068
 9847TIP3    H151032   6.466   4.059   6.425  0.1874  0.7398  1.8084
 9847TIP3    H251033   6.347   4.012   6.506 -0.3319 -0.3825  0.4365
 9848TIP3   OH251034   4.656   6.764   2.420 -0.4116  0.0043  0.8251
 9848TIP3    H151035   4.696   6.677   2.424 -0.8099 -0.2066  0.3445
 9848TIP3    H251036   4.569   6.749   2.384 -0.2836  0.6619  0.1958
 9849TIP3   OH251037   1.359   1.183   0.184 -0.3412 -0.0291  0.0635
 9849TIP3    H151038   1.392   1.181   0.273 -1.8512 -0.1790  0.6419
 9849TIP3    H251039   1.277   1.134   0.187 -1.8107  2.2341 -0.8077
 9850TIP3   OH251040   0.986   6.104  16.041  0.0462 -0.1916 -0.1734
 9850TIP3    H151041   1.032   6.182  16.070 -0.9900  0.7341 -0.9228
 9850TIP3    H251042   0.893   6.127  16.046 -0.2859 -1.4392 -0.2333
 9851TIP3   OH251043   1.885   1.150   0.675 -0.0872  0.0495 -0.1409
 9851TIP3    H151044   1.828   1.100   0.733 -0.0990 -0.8324 -0.8982
 9851TIP3    H251045   1.962   1.169   0.728 -0.7044  0.5306  0.6238
 9852TIP3   OH251046   0.099   6.345   1.651 -0.7407 -0.1207 -0.1362
 9852TIP3    H151047   0.026   6.299   1.611 -0.0284 -1.5863  0.1804
 9852TIP3    H251048   0.159   6.275   1.679  1.5626  1.0600 -1.8634
 9853TIP3   OH251049   1.275   1.226   4.969  0.1778 -0.0096  0.5078
 9853TIP3    H151050   1.328   1.146   4.961 -0.8223 -0.6033 -0.5101
 9853TIP3    H251051   1.331   1.295   4.934  0.5507 -0.5016  0.1142
 9854TIP3   OH251052   5.556   5.962   0.221 -0.5063  0.1097  0.4120
 9854TIP3    H151053   5.491   5.893   0.237  0.8242 -1.2132  0.3765
 9854TIP3    H251054   5.598   5.936   0.139  0.2804  0.7544  0.6031
 9855TIP3   OH251055   2.021   1.264  11.617 -0.0557 -0.0936  0.6437
 9855TIP3    H151056   2.073   1.269  11.697  0.4766 -0.4759  0.3232
 9855TIP3    H251057   2.078   1.296  11.548 -0.4444  0.0426  0.3824
 9856TIP3   OH251058   6.357   0.231  16.729 -0.1406  0.4429  0.1809
 9856TIP3    H151059   6.402   0.209  16.646 -0.5294 -1.7698  0.4914
 9856TIP3    H251060   6.266   0.243  16.704  0.1302  2.2952 -0.0470
 9857TIP3   OH251061   5.403   6.159   1.193 -0.3989  0.2266  1.2587
 9857TIP3    H151062   5.419   6.230   1.131 -1.2785 -1.8536 -1.5900
 9857TIP3    H251063   5.312   6.171   1.221 -0.7229 -0.0350  0.3573
 9858TIP3   OH251064   4.131   3.198  12.714 -0.5811 -0.0325 -0.0447
 9858TIP3    H151065   4.096   3.283  12.685 -1.9309 -0.3400  0.5742
 9858TIP3    H251066   4.091   3.184  12.800  1.8220 -0.0302  1.1412
 9859TIP3   OH251067   5.966   0.530  13.747 -0.5139  0.5808  0.4281
 9859TIP3    H151068   5.922   0.579  13.817 -2.3543 -0.3393 -0.0183
 9859TIP3    H251069   6.036   0.482  13.792 -1.5811  0.0969  1.6672
 9860TIP3   OH251070   2.359   1.472   2.568 -0.2536 -0.2744 -0.4502
 9860TIP3    H151071   2.387   1.502   2.482  2.8079  1.2398  0.9143
 9860TIP3    H251072   2.357   1.376   2.561  0.3028 -0.1970 -2.0978
 9861TIP3   OH251073   4.836   0.431   5.205  0.5460  0.7315  0.3470
 9861TIP3    H151074   4.910   0.467   5.155  0.9137  1.1818  1.1921
 9861TIP3    H251075   4.874   0.404   5.288 -0.3111  1.3962  0.9838
 9862TIP3   OH251076   6.644   2.709   4.091 -0.1651  0.2461  0.6541
 9862TIP3    H151077   6.691   2.767   4.151 -0.9901  1.5689  0.0571
 9862TIP3    H251078   6.622   2.765   4.016  0.2689 -1.2024 -0.6050
 9863TIP3   OH251079   4.313   2.696   1.846 -0.7264  0.4295  0.5017
 9863TIP3    H151080   4.400   2.688   1.885 -0.6455  1.2443  0.5068
 9863TIP3    H251081   4.262   2.626   1.886  0.1623 -0.6456 -0.1698
 9864TIP3   OH251082   1.925   2.611  11.033  0.0094  0.3298  0.1596
 9864TIP3    H151083   1.918   2.633  10.941  1.2535 -1.8800 -0.5317
 9864TIP3    H251084   1.997   2.666  11.066  0.3386  0.2975 -0.4917
 9865TIP3   OH251085   5.816   3.838  11.846 -0.6723 -0.0926 -0.5349
 9865TIP3    H151086   5.758   3.913  11.851 -0.3778  0.0586  2.0106
 9865TIP3    H251087   5.825   3.808  11.936  1.2328 -1.6329 -1.1458
 9866TIP3   OH251088   2.099   6.700   1.412  0.2671 -0.6304  0.5691
 9866TIP3    H151089   2.041   6.721   1.484 -1.2770  1.8297 -1.2326
 9866TIP3    H251090   2.085   6.770   1.348  1.9282 -2.3604 -1.8994
 9867TIP3   OH251091   4.108   2.499  12.246 -0.1597 -0.1466 -0.9413
 9867TIP3    H151092   4.148   2.585  12.233 -0.5040  0.0634 -0.6430
 9867TIP3    H251093   4.180   2.437  12.237  0.6278  0.3238  1.3595
 9868TIP3   OH251094   2.738   4.517  14.247  0.6370 -0.0721 -0.2833
 9868TIP3    H151095   2.828   4.542  14.223  0.6291  0.3716  0.1506
 9868TIP3    H251096   2.749   4.441  14.304  0.6572 -1.1408 -1.6489
 9869TIP3   OH251097   6.072   1.547   3.792  0.0021 -0.1903 -0.0563
 9869TIP3    H151098   6.087   1.459   3.827  2.2724 -0.3358 -1.2465
 9869TIP3    H251099   6.065   1.603   3.870 -1.5119 -1.3733  0.7238
 9870TIP3   OH251100   5.852   6.653   1.251  0.4245 -0.2002  0.0754
 9870TIP3    H151101   5.863   6.731   1.197 -2.1767 -0.0096 -0.2932
 9870TIP3    H251102   5.862   6.684   1.341  0.7496  0.2682 -0.1178
 9871TIP3   OH251103   3.892   1.387  14.309  0.0324  0.3628  0.1691
 9871TIP3    H151104   3.920   1.465  14.355  2.2679 -0.4210  0.2421
 9871TIP3    H251105   3.805   1.367  14.345  1.0716  0.5901  2.9791
 9872TIP3   OH251106   4.621   1.908  12.866  0.8116 -0.3300  0.3591
 9872TIP3    H151107   4.571   1.845  12.814  0.2671 -0.1459  0.6638
 9872TIP3    H251108   4.584   1.902  12.954  0.1471  1.0544  0.1960
 9873TIP3   OH251109   6.822   2.411  15.478 -0.4802 -0.1721  0.2431
 9873TIP3    H151110   6.755   2.405  15.410 -0.6659  0.7084  0.3362
 9873TIP3    H251111   6.904   2.392  15.433 -0.9862 -4.0969  0.6406
 9874TIP3   OH251112   2.276   3.695   0.009  0.1031  0.2896 -0.3196
 9874TIP3    H151113   2.185   3.716   0.030 -0.2905 -0.9908 -0.6451
 9874TIP3    H251114   2.288   3.727  -0.080 -0.2924 -0.2571 -0.5775
 9875TIP3   OH251115   4.267   4.897   6.189 -0.5064  0.2335 -0.2385
 9875TIP3    H151116   4.299   4.847   6.114 -0.6797  0.1602 -0.2637
 9875TIP3    H251117   4.336   4.962   6.206  0.5694 -1.1076  0.8799
 9876TIP3   OH251118   5.169   1.597  12.681  0.4963  0.2616 -0.8622
 9876TIP3    H151119   5.159   1.526  12.618 -0.9481 -0.5895  0.2501
 9876TIP3    H251120   5.188   1.553  12.764  1.5561  1.3040 -0.5233
 9877TIP3   OH251121   5.065   3.208   3.713 -0.5404 -0.5753  0.0476
 9877TIP3    H151122   5.131   3.238   3.651 -2.5653  0.5061 -1.7236
 9877TIP3    H251123   5.033   3.125   3.676 -0.5598 -0.8284  0.6128
 9878TIP3   OH251124   2.239   5.881   4.054  0.4868  0.0928 -0.1652
 9878TIP3    H151125   2.198   5.917   4.132 -0.6436  0.2398 -0.8128
 9878TIP3    H251126   2.270   5.794   4.080  1.2509  0.6308  0.7829
 9879TIP3   OH251127   6.026   0.822   4.990 -0.0262 -0.8947 -0.6483
 9879TIP3    H151128   6.017   0.866   4.905 -0.2101  0.9926  0.2976
 9879TIP3    H251129   6.118   0.798   4.995  0.4980  1.0473 -0.4514
 9880TIP3   OH251130   0.990   1.564   4.657  0.5411  0.0040 -0.3339
 9880TIP3    H151131   1.073   1.522   4.633  1.1482  0.1624  1.4042
 9880TIP3    H251132   0.982   1.638   4.597  0.4398 -1.3808 -2.1216
 9881TIP3   OH251133   3.321   2.999   2.739 -0.5728 -0.0828  0.1725
 9881TIP3    H151134   3.416   2.991   2.749 -0.7724 -2.0751  0.8860
 9881TIP3    H251135   3.294   3.057   2.810 -0.1726 -1.8163  1.8305
 9882TIP3   OH251136   1.914   2.469   0.472  0.0938  0.2388 -0.4512
 9882TIP3    H151137   1.930   2.512   0.388  0.1283 -0.2919 -0.7184
 9882TIP3    H251138   1.832   2.507   0.503 -0.8704 -0.8401 -1.5703
 9883TIP3   OH251139   5.929   5.384  12.460  0.3836 -0.7450 -0.2961
 9883TIP3    H151140   5.885   5.306  12.427 -0.6025  0.0550 -0.9852
 9883TIP3    H251141   5.927   5.445  12.386 -0.7523  0.6636  0.8266
 9884TIP3   OH251142   5.799   4.043   5.684  0.7664 -0.3446  0.0397
 9884TIP3    H151143   5.878   4.071   5.731 -0.4612  1.3113  1.2585
 9884TIP3    H251144   5.729   4.093   5.725 -0.4725  0.9855 -3.3963
 9885TIP3   OH251145   4.850   4.213   4.752 -0.2750 -0.2134  0.0931
 9885TIP3    H151146   4.861   4.307   4.733 -0.0427 -0.4904 -1.1959
 9885TIP3    H251147   4.890   4.202   4.838  0.4555  0.7235 -0.1038
 9886TIP3   OH251148   2.610   0.085   2.901 -0.2495 -0.1538  0.4066
 9886TIP3    H151149   2.599   0.049   2.989 -1.6993 -1.5197 -0.2903
 9886TIP3    H251150   2.645   0.012   2.849 -3.6859 -0.8650 -1.1430
 9887TIP3   OH251151   4.822   6.247  16.720 -0.3848 -0.0694 -0.3085
 9887TIP3    H151152   4.835   6.153  16.713  1.3537  0.2528 -2.7260
 9887TIP3    H251153   4.899   6.279  16.767 -0.3243  0.2490 -0.6132
 9888TIP3   OH251154   2.987   5.039  15.414  0.2532 -0.2734  0.3831
 9888TIP3    H151155   3.037   4.958  15.415 -0.4104 -0.8532 -3.0393
 9888TIP3    H251156   2.902   5.016  15.451 -0.0483 -1.2814 -0.8732
 9889TIP3   OH251157   2.077   4.871  16.598  0.4285 -0.4018 -0.2239
 9889TIP3    H151158   2.145   4.899  16.536  0.7032  1.5090  0.8621
 9889TIP3    H251159   2.109   4.900  16.683 -1.1323 -0.6716  0.4866
 9890TIP3   OH251160   2.739   5.138   5.197 -0.6865 -0.3786  0.2375
 9890TIP3    H151161   2.783   5.138   5.112  0.0390  0.9922  0.5962
 9890TIP3    H251162   2.750   5.227   5.230 -0.9082 -0.9046  1.7947
 9891TIP3   OH251163   6.235   5.148  13.170 -0.1583  0.3388 -0.0322
 9891TIP3    H151164   6.311   5.200  13.196 -0.4983  1.1644 -0.6683
 9891TIP3    H251165   6.214   5.178  13.081  0.8637 -2.2679 -1.2666
 9892TIP3   OH251166   0.132   2.177  10.747 -0.2530  0.1882  0.2166
 9892TIP3    H151167   0.188   2.140  10.679  0.4281 -0.1958  0.9645
 9892TIP3    H251168   0.163   2.137  10.828 -3.6691 -2.6526  0.4026
 9893TIP3   OH251169   1.599   3.981   1.462 -0.2347  0.1732 -0.0889
 9893TIP3    H151170   1.612   4.074   1.445  0.0706 -0.1240 -1.6622
 9893TIP3    H251171   1.505   3.972   1.478 -0.6856  0.4586 -2.2901
 9894TIP3   OH251172   6.360   4.947   2.057  0.0660 -0.1468 -0.2973
 9894TIP3    H151173   6.384   5.033   2.024  1.3208 -0.3613 -0.0118
 9894TIP3    H251174   6.285   4.920   2.004 -0.6071  1.2739 -0.1206
 9895TIP3   OH251175   6.624   4.550  13.701  0.0589  0.1087 -0.0824
 9895TIP3    H151176   6.702   4.500  13.675  0.8452  1.4763 -0.4293
 9895TIP3    H251177   6.591   4.587  13.619 -0.5320  0.1573  0.1703
 9896TIP3   OH251178   2.837   3.280  14.864  0.4232 -0.1983 -0.2433
 9896TIP3    H151179   2.763   3.336  14.887 -0.2961 -0.8931 -0.8226
 9896TIP3    H251180   2.800   3.214  14.805  1.8505  0.5929 -2.1449
 9897TIP3   OH251181   0.283   3.119  16.533 -0.6200  0.2265  0.2991
 9897TIP3    H151182   0.307   3.211  16.523  0.4687  0.0323  0.9921
 9897TIP3    H251183   0.331   3.074  16.463 -0.7138  0.1022  0.3123
 9898TIP3   OH251184   6.706   1.814   1.804  0.3134 -0.6646  0.5985
 9898TIP3    H151185   6.670   1.898   1.834 -0.1560 -0.2688 -1.0091
 9898TIP3    H251186   6.793   1.811   1.843 -1.0681 -1.3703  4.0922
 9899TIP3   OH251187   0.511   2.368  16.319  0.0907  0.4000 -0.3030
 9899TIP3    H151188   0.495   2.275  16.332 -0.4043  0.5141 -0.0590
 9899TIP3    H251189   0.605   2.379  16.331  0.0078  0.0901  0.6985
 9900TIP3   OH251190   5.023   0.989   4.090 -0.0422 -0.3018 -0.1764
 9900TIP3    H151191   4.931   0.964   4.087 -0.0406 -0.4109  0.5216
 9900TIP3    H251192   5.068   0.910   4.121  0.1853 -0.0106  0.2496
 9901TIP3   OH251193   1.033   3.941  16.960  0.4608  0.2930  0.0847
 9901TIP3    H151194   1.039   4.013  17.023 -2.6081  1.9997 -1.3433
 9901TIP3    H251195   0.964   3.885  16.995 -0.1063  0.3673 -0.8801
 9902TIP3   OH251196   4.033   6.661   4.281  0.0736  0.2552 -0.1820
 9902TIP3    H151197   4.014   6.615   4.363  0.4330 -1.2031 -0.8917
 9902TIP3    H251198   3.999   6.750   4.296 -0.1290 -0.0487  1.4316
 9903TIP3   OH251199   6.462   0.799  11.491 -0.1789 -0.4148 -0.1353
 9903TIP3    H151200   6.472   0.890  11.463 -2.1824  0.7258  2.4144
 9903TIP3    H251201   6.431   0.754  11.413  0.0451  1.2762 -1.2556
 9904TIP3   OH251202   3.741   6.111   1.577  0.4393  0.0240 -0.0117
 9904TIP3    H151203   3.752   6.026   1.533 -2.5377 -0.8067  0.5432
 9904TIP3    H251204   3.714   6.171   1.507 -0.7652 -0.3947  0.0622
 9905TIP3   OH251205   5.841   5.269   2.089 -0.0676  0.3127 -0.6781
 9905TIP3    H151206   5.799   5.355   2.093 -1.3625 -0.3255  0.8145
 9905TIP3    H251207   5.863   5.249   2.180  1.5581 -0.3337 -1.1719
 9906TIP3   OH251208   1.143   1.158   2.595  0.3996 -0.2613 -0.3260
 9906TIP3    H151209   1.170   1.094   2.529 -0.8721 -0.1351 -1.0001
 9906TIP3    H251210   1.194   1.237   2.575  0.0311 -0.2279 -1.1531
 9907TIP3   OH251211   6.777   1.824  11.614 -0.0902  0.1059 -0.0463
 9907TIP3    H151212   6.790   1.874  11.534 -0.6386 -0.6607 -0.6275
 9907TIP3    H251213   6.683   1.805  11.616 -0.2835  1.0621  1.3610
 9908TIP3   OH251214   2.095   2.847   0.012 -0.8488 -0.3780  0.3214
 9908TIP3    H151215   2.098   2.809  -0.075 -1.0492  0.7003 -0.1726
 9908TIP3    H251216   2.148   2.789   0.066 -1.6242 -1.6594 -0.2672
 9909TIP3   OH251217   5.920   2.149  12.055  0.0309  0.2687  0.3729
 9909TIP3    H151218   5.990   2.205  12.022 -0.1179 -0.9005 -2.1931
 9909TIP3    H251219   5.876   2.116  11.976 -1.8242 -1.0269  1.8393
 9910TIP3   OH251220   0.923   5.864  11.819 -0.6405 -0.3593 -0.5453
 9910TIP3    H151221   0.855   5.821  11.768  0.3706 -1.0272 -1.3837
 9910TIP3    H251222   1.005   5.837  11.777  0.1839 -0.1447  0.8490
 9911TIP3   OH251223   1.012   5.639  14.365  0.6573 -0.3316  0.2190
 9911TIP3    H151224   0.938   5.628  14.306 -0.2603  1.5182  0.9774
 9911TIP3    H251225   1.023   5.552  14.406 -0.6282 -0.8069 -0.4058
 9912TIP3   OH251226   6.438   4.828  14.910 -0.3395 -0.0588  0.1190
 9912TIP3    H151227   6.394   4.764  14.967  0.4613  0.3827  1.2842
 9912TIP3    H251228   6.518   4.783  14.883 -0.2334  0.1003  0.1691
 9913TIP3   OH251229   6.699   2.805  16.374 -0.0467 -0.0790  0.0285
 9913TIP3    H151230   6.790   2.782  16.396  0.5971  0.1502 -2.0924
 9913TIP3    H251231   6.693   2.899  16.395  0.9892  0.4818 -1.8746
 9914TIP3   OH251232   6.605   4.653   4.987  0.2538 -0.7563 -0.2487
 9914TIP3    H151233   6.687   4.604   4.994  0.5050 -0.3431 -0.2743
 9914TIP3    H251234   6.609   4.717   5.058 -0.1446 -0.8741 -0.1168
 9915TIP3   OH251235   4.894   6.187  11.739 -0.5538  0.0461 -0.1186
 9915TIP3    H151236   4.953   6.262  11.737 -0.7335  0.1766 -2.0250
 9915TIP3    H251237   4.947   6.113  11.708 -0.0790 -0.9138  2.6884
 9916TIP3   OH251238   6.482   2.004   2.938  0.4326 -0.2238 -0.3712
 9916TIP3    H151239   6.505   2.026   2.848 -0.8981 -0.1473 -0.7150
 9916TIP3    H251240   6.517   2.077   2.990 -0.8911  0.9971 -1.1102
 9917TIP3   OH251241   6.214   4.114   6.596  0.7852  0.8339  0.0442
 9917TIP3    H151242   6.144   4.051   6.579  2.4859 -0.6079 -2.2866
 9917TIP3    H251243   6.197   4.186   6.536  0.9829  0.7253 -0.1455
 9918TIP3   OH251244   5.575   2.271   5.304  0.2406 -0.2185 -0.4789
 9918TIP3    H151245   5.642   2.321   5.259  3.1042 -3.3198 -0.0156
 9918TIP3    H251246   5.516   2.241   5.235  2.0970 -1.3050 -1.6669
 9919TIP3   OH251247   3.658   0.605  10.480  0.2081 -0.1342  0.3189
 9919TIP3    H151248   3.632   0.513  10.488  0.9318 -0.4150 -0.4622
 9919TIP3    H251249   3.727   0.605  10.414 -1.6227  1.3079 -1.7916
 9920TIP3   OH251250   6.392   2.056  13.482  0.1478  0.2617 -0.0609
 9920TIP3    H151251   6.346   1.974  13.462  0.5435 -0.2994  1.2268
 9920TIP3    H251252   6.425   2.043  13.571  0.2556  1.8118  0.1399
 9921TIP3   OH251253   4.944   6.260  15.341  0.7301  0.4159  0.2904
 9921TIP3    H151254   4.865   6.305  15.309  1.5307  1.9759  0.4185
 9921TIP3    H251255   5.011   6.328  15.342  2.1393 -0.9311  0.0210
 9922TIP3   OH251256   1.509   6.624  11.608 -0.1333  0.3177  0.2314
 9922TIP3    H151257   1.584   6.571  11.581 -2.1655 -1.4091 -2.6272
 9922TIP3    H251258   1.542   6.714  11.611  1.8957 -0.2802 -1.6715
 9923TIP3   OH251259   6.062   4.935  14.728 -0.1229 -0.1378 -0.1726
 9923TIP3    H151260   6.042   4.855  14.777 -0.8508  0.7370  1.0354
 9923TIP3    H251261   5.979   4.957  14.685 -0.1184  0.3073  0.0400
 9924TIP3   OH251262   3.367   4.197  16.901 -0.8870  0.1657 -0.0089
 9924TIP3    H151263   3.344   4.204  16.993  0.0044 -0.3917  0.2706
 9924TIP3    H251264   3.354   4.104  16.880 -0.1183  0.0844 -0.1666
 9925TIP3   OH251265   6.115   2.917  10.891 -0.2065  1.0050  0.0087
 9925TIP3    H151266   6.085   2.981  10.826 -2.4722  0.1766  0.1294
 9925TIP3    H251267   6.035   2.892  10.938  0.5287 -1.9820 -0.1200
 9926TIP3   OH251268   4.663   4.185   1.328 -0.1878  0.3447  0.5368
 9926TIP3    H151269   4.642   4.237   1.251 -1.5189 -1.6773 -0.5638
 9926TIP3    H251270   4.704   4.247   1.389 -1.2793  2.5391 -0.8290
 9927TIP3   OH251271   1.415   1.786  11.378 -0.4380  0.0458 -0.3470
 9927TIP3    H151272   1.467   1.754  11.304  1.3541 -0.0057  0.8837
 9927TIP3    H251273   1.326   1.759  11.358  0.4721 -2.8036 -0.9599
 9928TIP3   OH251274   3.507   3.441  10.661  0.4884 -0.3135 -0.0671
 9928TIP3    H151275   3.431   3.483  10.621  1.1242 -0.2176 -1.2306
 9928TIP3    H251276   3.478   3.353  10.685 -0.0862 -0.1474 -0.1607
 9929TIP3   OH251277   2.332   4.704  14.194 -0.3184  0.2087  0.2625
 9929TIP3    H151278   2.315   4.787  14.150 -0.6427  0.5899  1.0888
 9929TIP3    H251279   2.257   4.692  14.252  0.3247 -0.0473  1.0558
 9930TIP3   OH251280   0.208   1.979   1.755 -0.5777  0.3319  0.0470
 9930TIP3    H151281   0.251   2.057   1.791  1.2771 -0.5921 -0.0695
 9930TIP3    H251282   0.224   1.986   1.660 -0.2546 -0.2652  0.0554
 9931TIP3   OH251283   2.270   6.152   0.522  0.2863  0.2571 -0.1652
 9931TIP3    H151284   2.196   6.213   0.516  0.3885  0.5505  1.3077
 9931TIP3    H251285   2.268   6.120   0.612  1.9927  0.3341 -0.0638
 9932TIP3   OH251286   0.664   6.701   5.560 -0.4940 -0.4178  0.0640
 9932TIP3    H151287   0.756   6.719   5.540  0.2734 -0.1678  3.2878
 9932TIP3    H251288   0.620   6.785   5.554  0.4538  0.3637  2.5590
 9933TIP3   OH251289   0.430   4.254  15.956 -0.2422 -0.1954  0.1163
 9933TIP3    H151290   0.394   4.340  15.979 -2.4948 -1.5460  2.1752
 9933TIP3    H251291   0.501   4.273  15.894  2.1692  3.4418  3.5046
 9934TIP3   OH251292   2.914   4.828  14.185 -1.0373  0.1073  0.9665
 9934TIP3    H151293   2.895   4.883  14.260 -0.3989 -0.5602  1.6295
 9934TIP3    H251294   2.973   4.880  14.131 -0.6018  0.1621  1.4865
 9935TIP3   OH251295   0.664   1.454  12.081  0.0999 -0.1612  0.1409
 9935TIP3    H151296   0.638   1.516  12.149  0.9101 -1.6073  1.8625
 9935TIP3    H251297   0.648   1.368  12.120 -0.0662 -1.0665 -1.7854
 9936TIP3   OH251298   0.739   3.453  12.693  0.1414  0.1409  0.0326
 9936TIP3    H151299   0.702   3.519  12.635 -1.8802 -1.5683 -0.7407
 9936TIP3    H251300   0.834   3.462  12.682 -0.0879  2.2886 -0.6885
 9937TIP3   OH251301   6.600   6.233  15.763  0.0715  0.9931 -0.4287
 9937TIP3    H151302   6.689   6.221  15.795  0.1371  0.7731 -0.6900
 9937TIP3    H251303   6.579   6.324  15.783  0.2833  0.9914 -0.1921
 9938TIP3   OH251304   6.355   3.516  14.596 -0.2081 -0.3526  0.1583
 9938TIP3    H151305   6.408   3.463  14.656  0.7872  2.0750  1.5663
 9938TIP3    H251306   6.300   3.570  14.654 -1.0597  0.2883 -1.1936
 9939TIP3   OH251307   3.162   3.015   3.901  0.1487  0.0415 -0.3331
 9939TIP3    H151308   3.196   3.094   3.860  0.4971 -0.6201 -1.3642
 9939TIP3    H251309   3.237   2.955   3.903 -0.2348 -0.4314 -0.0092
 9940TIP3   OH251310   2.380   2.247  15.269  0.3760  0.3220  0.3489
 9940TIP3    H151311   2.352   2.312  15.204 -1.1415 -1.3625 -0.8126
 9940TIP3    H251312   2.336   2.166  15.241  1.8598 -1.1142  1.9444
 9941TIP3   OH251313   4.438   1.919  16.161 -0.1623  0.1466  0.5175
 9941TIP3    H151314   4.411   1.904  16.251  0.1509 -1.0191  0.4258
 9941TIP3    H251315   4.398   1.849  16.111  1.4820 -0.5530  0.1042
 9942TIP3   OH251316   2.380   0.834   3.855 -0.2843  0.3321 -0.2199
 9942TIP3    H151317   2.397   0.877   3.771  1.2956  0.9060  0.3479
 9942TIP3    H251318   2.430   0.752   3.851  1.8415  1.4812  1.0280
 9943TIP3   OH251319   3.480   4.430   3.918 -0.4250 -0.1887  0.3108
 9943TIP3    H151320   3.392   4.461   3.900 -0.3474  0.6126  1.1901
 9943TIP3    H251321   3.533   4.510   3.924  0.0741 -0.5624  1.1813
 9944TIP3   OH251322   2.214   4.863  13.122  0.0965  0.4284  0.1546
 9944TIP3    H151323   2.197   4.772  13.096  0.1779  0.6813 -0.8405
 9944TIP3    H251324   2.309   4.874  13.112 -0.1213  1.1071 -1.4533
 9945TIP3   OH251325   2.807   2.631  15.357 -0.5528 -0.6401  0.3062
 9945TIP3    H151326   2.820   2.672  15.272  0.4239 -3.0112 -0.7935
 9945TIP3    H251327   2.882   2.660  15.409 -0.4536 -0.1943 -0.0809
 9946TIP3   OH251328   4.775   0.944  15.305 -0.5419  0.3499 -0.1178
 9946TIP3    H151329   4.834   1.013  15.334  0.1079  1.5987 -3.9062
 9946TIP3    H251330   4.688   0.983  15.309 -0.5810  0.2048  0.7879
 9947TIP3   OH251331   3.770   1.646   3.722 -0.3277  0.4391 -0.4693
 9947TIP3    H151332   3.744   1.617   3.810 -0.3786  1.1907 -0.2210
 9947TIP3    H251333   3.703   1.610   3.664 -1.6823  1.8813  0.0931
 9948TIP3   OH251334   5.807   6.172  12.584 -0.2298 -0.2017 -0.1482
 9948TIP3    H151335   5.805   6.125  12.500 -1.6097 -0.7504  0.1622
 9948TIP3    H251336   5.800   6.264  12.559  0.2285 -0.3001 -0.6683
 9949TIP3   OH251337   2.770   1.921   5.235  0.3322  0.8048 -0.2670
 9949TIP3    H151338   2.753   1.832   5.205  0.4982  0.8822 -0.5895
 9949TIP3    H251339   2.710   1.934   5.308 -0.1375  0.6542 -0.6271
 9950TIP3   OH251340   2.051   0.624   0.981 -0.1187 -0.5970 -0.2915
 9950TIP3    H151341   2.093   0.553   0.932  1.5244  1.3329 -1.8915
 9950TIP3    H251342   2.026   0.585   1.064  2.0225 -2.6982 -0.5248
 9951TIP3   OH251343   5.956   1.495  13.839  0.1626  0.8685  0.6654
 9951TIP3    H151344   5.871   1.485  13.797  0.2131  2.0764  0.2394
 9951TIP3    H251345   5.941   1.466  13.929 -0.5701  0.6167  0.4735
 9952TIP3   OH251346   5.797   4.889  14.909  0.3690  0.5465 -0.3229
 9952TIP3    H151347   5.797   4.908  14.815  0.4816 -1.0104 -0.6770
 9952TIP3    H251348   5.869   4.826  14.920 -0.2131  0.0332  0.6501
 9953TIP3   OH251349   1.132   4.940   3.478 -0.6752 -0.0519 -0.2938
 9953TIP3    H151350   1.214   4.902   3.446 -0.9077 -0.8871  0.0770
 9953TIP3    H251351   1.159   5.004   3.543 -0.3161 -0.5635  0.0735
 9954TIP3   OH251352   1.297   0.403   5.143  0.1908  0.1137  0.3359
 9954TIP3    H151353   1.344   0.396   5.061  1.1112 -1.9665  0.9923
 9954TIP3    H251354   1.239   0.479   5.130  0.7061  0.1956 -1.9848
 9955TIP3   OH251355   2.398   6.168  14.701  0.4294 -0.3426  0.0069
 9955TIP3    H151356   2.336   6.230  14.740  1.0591  0.1196  0.2744
 9955TIP3    H251357   2.466   6.157  14.767  0.2699 -1.4178  0.0168
 9956TIP3   OH251358   5.313   5.617  15.615 -0.6068 -0.5553 -0.0719
 9956TIP3    H151359   5.239   5.582  15.663 -0.9684 -0.5748 -0.6391
 9956TIP3    H251360   5.275   5.657  15.536 -0.0739 -0.1069 -0.1157
 9957TIP3   OH251361   6.209   2.416   5.662  0.2396  0.5435 -0.0525
 9957TIP3    H151362   6.250   2.434   5.577  2.0198  1.0275  0.8766
 9957TIP3    H251363   6.172   2.329   5.653  0.3545  0.6101 -1.3400
 9958TIP3   OH251364   4.205   2.828  12.868  0.9941  0.8830  0.1705
 9958TIP3    H151365   4.253   2.901  12.828 -0.2317  2.0514  0.7472
 9958TIP3    H251366   4.257   2.751  12.847  0.6237  1.4415 -3.3472
 9959TIP3   OH251367   3.518   1.308  16.481  0.1948 -0.0842 -0.1563
 9959TIP3    H151368   3.517   1.332  16.388 -1.1917  1.3305  0.1684
 9959TIP3    H251369   3.494   1.216  16.483  2.0248 -0.6323 -1.2802
 9960TIP3   OH251370   4.049   2.159  11.782 -0.5099  0.1516  0.3087
 9960TIP3    H151371   4.065   2.140  11.689  0.4544  0.5446  0.3821
 9960TIP3    H251372   4.070   2.252  11.791 -0.1452  0.0063  1.0183
 9961TIP3   OH251373   4.872   5.018  14.738  0.5908 -0.0753 -0.5406
 9961TIP3    H151374   4.786   5.011  14.695  0.2578  2.2456 -0.4286
 9961TIP3    H251375   4.855   4.994  14.829  0.5356 -1.6268 -0.9368
 9962TIP3   OH251376   2.628   5.165  10.460 -0.3968 -0.1131  0.5001
 9962TIP3    H151377   2.535   5.141  10.454 -0.1845 -0.7860 -0.3302
 9962TIP3    H251378   2.628   5.261  10.453 -0.9704 -0.1714 -0.5052
 9963TIP3   OH251379   3.685   2.156  15.540 -0.5388 -0.3643 -0.2310
 9963TIP3    H151380   3.656   2.247  15.538 -1.6346 -0.6853  0.2672
 9963TIP3    H251381   3.781   2.161  15.548 -0.6217  0.7358  0.2454
 9964TIP3   OH251382   1.768   5.769   2.339  0.1753  0.0559  0.6510
 9964TIP3    H151383   1.690   5.715   2.330  0.3232 -0.1450  0.5831
 9964TIP3    H251384   1.735   5.859   2.338 -0.0818 -0.0379  0.9136
 9965TIP3   OH251385   2.370   3.364  15.923  0.1316 -0.0927  0.2603
 9965TIP3    H151386   2.428   3.333  15.854  1.9564 -0.3691  1.8384
 9965TIP3    H251387   2.369   3.293  15.987  0.6793  1.2304  1.7890
 9966TIP3   OH251388   5.157   0.345   5.584 -0.0780  0.4831  0.3798
 9966TIP3    H151389   5.130   0.291   5.658  2.0001 -0.0876  0.7724
 9966TIP3    H251390   5.242   0.311   5.558  0.5078  2.4348 -0.5020
 9967TIP3   OH251391   5.553   5.739   3.578 -0.0856  0.5675  0.6973
 9967TIP3    H151392   5.619   5.697   3.634 -0.4421  1.4570  1.8416
 9967TIP3    H251393   5.469   5.713   3.615 -0.4614 -1.2114 -1.2397
 9968TIP3   OH251394   6.094   2.584  14.549 -0.3748 -0.3950 -0.1125
 9968TIP3    H151395   6.163   2.645  14.525 -0.7672 -0.2047 -0.7738
 9968TIP3    H251396   6.120   2.551  14.635 -0.1082  0.6384  0.2165
 9969TIP3   OH251397   4.051   2.013   5.484 -0.0529  0.3749 -0.1334
 9969TIP3    H151398   4.124   2.003   5.423  0.2875 -0.7000  0.4265
 9969TIP3    H251399   3.985   1.950   5.453 -0.0792  0.1804  0.3101
 9970TIP3   OH251400   1.726   1.982  14.650 -0.2593  0.2518 -0.5239
 9970TIP3    H151401   1.679   2.064  14.666 -0.1588 -0.1439  2.2669
 9970TIP3    H251402   1.800   1.983  14.711  0.2251 -1.5442 -0.9986
 9971TIP3   OH251403   2.868   1.791  13.368 -0.3279 -0.0201  0.4042
 9971TIP3    H151404   2.776   1.819  13.364 -0.2153  0.2989  0.0242
 9971TIP3    H251405   2.869   1.724  13.436 -1.0418 -0.7965 -0.3384
 9972TIP3   OH251406   1.985   0.227   5.174 -0.0223  0.1717  0.2111
 9972TIP3    H151407   1.982   0.259   5.264  2.3987  0.0953  0.3738
 9972TIP3    H251408   1.975   0.132   5.182 -2.2292  0.3500  0.1421
 9973TIP3   OH251409   4.732   0.745   0.312  0.0568 -0.9444 -0.3619
 9973TIP3    H151410   4.789   0.734   0.236  0.0185 -1.3949 -0.3262
 9973TIP3    H251411   4.793   0.761   0.385  0.0595  0.4129 -0.6337
 9974TIP3   OH251412   3.784   0.196   1.416 -0.2644  0.3889 -0.1206
 9974TIP3    H151413   3.768   0.289   1.433 -1.2790  0.0379  1.0161
 9974TIP3    H251414   3.822   0.194   1.329  0.7940  1.9522  0.2569
 9975TIP3   OH251415   1.210   3.025  14.473  0.3112 -0.0330  0.1800
 9975TIP3    H151416   1.151   2.980  14.413 -0.8816  1.0179  0.5201
 9975TIP3    H251417   1.193   2.986  14.559  0.4910 -0.0845  0.1934
 9976TIP3   OH251418   4.727   2.670   2.657  0.1125 -0.3023  0.3649
 9976TIP3    H151419   4.752   2.728   2.728 -1.1158 -0.1780  0.7351
 9976TIP3    H251420   4.635   2.649   2.675 -0.5542  0.5743 -1.7562
 9977TIP3   OH251421   3.990   1.132   4.323 -1.2009  0.2267 -0.2926
 9977TIP3    H151422   3.960   1.166   4.239  0.4329  1.3591 -0.4789
 9977TIP3    H251423   3.999   1.210   4.379  0.0752 -0.1806  0.1260
 9978TIP3   OH251424   2.654   5.918   6.283  0.1911  0.2199 -0.1121
 9978TIP3    H151425   2.747   5.932   6.295  0.2294 -0.5432  0.5871
 9978TIP3    H251426   2.631   5.971   6.207  1.3712 -0.2821 -0.8541
 9979TIP3   OH251427   6.191   6.782  10.638 -0.6117  0.0826  0.7093
 9979TIP3    H151428   6.101   6.798  10.664 -0.6337  0.9564  0.1350
 9979TIP3    H251429   6.241   6.850  10.683 -0.4532  0.6133 -0.2357
 9980TIP3   OH251430   1.126   3.259   2.742 -0.0126  0.1617  0.1425
 9980TIP3    H151431   1.087   3.226   2.823  0.4984 -3.3398 -0.8779
 9980TIP3    H251432   1.202   3.309   2.771 -0.5093 -0.0276  1.8545
 9981TIP3   OH251433   3.569   4.419  16.030 -0.0818  0.4068 -0.4907
 9981TIP3    H151434   3.654   4.398  15.991 -0.4040  0.8218 -1.4393
 9981TIP3    H251435   3.514   4.343  16.010  0.4151 -0.4900  1.3136
 9982TIP3   OH251436   5.921   0.595  11.284 -0.1089 -0.3213  0.3697
 9982TIP3    H151437   5.954   0.531  11.347 -1.6962 -1.2255  0.3444
 9982TIP3    H251438   5.826   0.585  11.287 -0.2568 -0.4741 -2.2415
 9983TIP3   OH251439   5.253   1.230   3.267 -0.4572  0.1926  0.2132
 9983TIP3    H151440   5.299   1.252   3.348  0.6158 -0.2810 -0.2443
 9983TIP3    H251441   5.167   1.200   3.295 -0.1008  0.0390  1.1799
 9984TIP3   OH251442   5.329   2.133   6.336 -0.1385 -0.2625 -0.2752
 9984TIP3    H151443   5.282   2.115   6.417  1.8890 -1.5886  0.7114
 9984TIP3    H251444   5.380   2.212   6.354 -0.4959  0.0609 -0.6555
 9985TIP3   OH251445   4.074   2.811  12.251 -0.0637  0.2984 -0.4820
 9985TIP3    H151446   4.058   2.790  12.159  0.7587  0.0515 -0.5749
 9985TIP3    H251447   4.104   2.902  12.250  0.1022  0.2452 -0.4830
 9986TIP3   OH251448   1.601   2.187  12.339 -0.0267 -0.0766 -0.3382
 9986TIP3    H151449   1.588   2.281  12.323  1.3993  0.2484  0.2928
 9986TIP3    H251450   1.599   2.148  12.252 -0.8773  0.4972 -0.5888
 9987TIP3   OH251451   1.729   3.555  10.556  0.5683  0.1851  0.3667
 9987TIP3    H151452   1.707   3.568  10.648 -0.4567 -0.4559  0.2380
 9987TIP3    H251453   1.758   3.641  10.525 -1.7262  1.1362  0.6172
 9988TIP3   OH251454   3.329   0.711   5.074  0.6775 -0.3610  0.8083
 9988TIP3    H151455   3.302   0.716   5.166 -3.5275  3.4570 -0.2670
 9988TIP3    H251456   3.343   0.802   5.048  0.6183 -1.1982 -2.6275
 9989TIP3   OH251457   4.142   1.310  15.263  0.3831  0.2214  1.1753
 9989TIP3    H151458   4.204   1.349  15.201  1.8507 -0.0520  2.4123
 9989TIP3    H251459   4.084   1.382  15.288 -2.0907 -0.2018 -2.4992
 9990TIP3   OH251460   1.711   0.867  11.940  0.3107  0.4026  0.1875
 9990TIP3    H151461   1.757   0.880  11.857  0.4206  1.7738  0.4255
 9990TIP3    H251462   1.629   0.915  11.929  0.1016  0.1648  0.6854
 9991TIP3   OH251463   2.767   4.681   0.336 -0.2247 -0.0342  0.0541
 9991TIP3    H151464   2.702   4.746   0.360 -2.7604 -1.9863 -1.0567
 9991TIP3    H251465   2.833   4.729   0.287 -1.5470  1.8254  0.0215
 9992TIP3   OH251466   3.193   0.478  12.425  0.2315  0.1187 -0.1073
 9992TIP3    H151467   3.239   0.496  12.507 -0.6204 -0.3510  0.4824
 9992TIP3    H251468   3.123   0.417  12.449 -0.2515  0.2531 -1.1221
 9993TIP3   OH251469   0.260   3.804   4.497 -0.0499  0.7428  0.3457
 9993TIP3    H151470   0.183   3.837   4.544 -0.7892  1.3763 -1.2555
 9993TIP3    H251471   0.335   3.843   4.543 -0.5835 -0.4372  2.3689
 9994TIP3   OH251472   0.412   4.533   5.276  0.0146  0.1228  0.1790
 9994TIP3    H151473   0.319   4.516   5.288 -0.4173  1.4818 -0.9822
 9994TIP3    H251474   0.456   4.468   5.331 -1.5629 -2.1922 -1.1057
 9995TIP3   OH251475   3.125   4.929  12.650  0.1441  0.0890 -0.1472
 9995TIP3    H151476   3.157   4.840  12.664 -3.2363 -1.2479  0.2492
 9995TIP3    H251477   3.175   4.983  12.712  1.3224 -1.7680  0.5923
 9996TIP3   OH251478   1.346   6.118  10.982  0.1090 -0.2791  0.2709
 9996TIP3    H151479   1.412   6.124  10.914  1.1342 -0.5214  1.2156
 9996TIP3    H251480   1.266   6.094  10.936  1.4838 -3.9284 -0.5045
 9997TIP3   OH251481   0.013   3.202   2.991 -0.1438 -0.4851 -0.2927
 9997TIP3    H151482  -0.046   3.161   2.928  0.3232 -0.8744 -0.4823
 9997TIP3    H251483   0.100   3.179   2.960  0.1036 -0.0960  0.1101
 9998TIP3   OH251484   3.097   5.834  12.483 -0.0802  0.4429 -0.6154
 9998TIP3    H151485   3.039   5.806  12.412  0.6656  0.4251 -1.2278
 9998TIP3    H251486   3.142   5.754  12.510 -0.5544  0.4026  0.0546
 9999TIP3   OH251487   1.403   0.242   1.035  0.1020 -0.1673  0.5600
 9999TIP3    H151488   1.479   0.272   1.086  0.0169 -1.9270  1.8217
 9999TIP3    H251489   1.343   0.206   1.100 -0.6616 -1.1949 -0.6645
10000TIP3   OH251490   4.306   3.964  12.038 -0.2710  0.3552  0.1362
10000TIP3    H151491   4.270   3.958  12.126 -1.4917  1.7261 -0.2329
10000TIP3    H251492   4.380   3.903  12.038 -0.0914  0.5177  2.1675
10001TIP3   OH251493   4.878   4.666  10.885  0.1102  0.4745  0.1681
10001TIP3    H151494   4.953   4.625  10.929  0.2754 -0.6341 -1.0654
10001TIP3    H251495   4.853   4.602  10.818 -1.5952  1.0839  0.1939
10002TIP3   OH251496   0.078   6.781   1.881  0.5378 -0.0001 -0.0472
10002TIP3    H151497  -0.016   6.762   1.889  0.6981 -1.4904 -1.1472
10002TIP3    H251498   0.093   6.789   1.787  1.6633 -0.7822  0.0373
10003TIP3   OH251499   0.932   2.140   2.221  0.1394 -0.1968  0.1850
10003TIP3    H151500   0.842   2.112   2.206 -0.3687  0.8532  1.1778
10003TIP3    H251501   0.967   2.077   2.284  0.4749 -1.2575 -1.0233
10004TIP3   OH251502   5.299   4.441  14.789 -0.3326  0.1285  0.6217
10004TIP3    H151503   5.312   4.527  14.750  2.0291 -0.2951  0.3201
10004TIP3    H251504   5.387   4.406  14.800 -1.2276 -2.5910  0.0003
10005TIP3   OH251505   3.117   5.993   0.932 -0.0699  0.7922 -0.0580
10005TIP3    H151506   3.135   6.017   0.841 -3.9025  2.3618 -0.6090
10005TIP3    H251507   3.051   5.924   0.926  0.2044  0.3486  1.5774
10006TIP3   OH251508   2.296   1.877   0.807  0.2220  0.6734 -0.3407
10006TIP3    H151509   2.328   1.833   0.886 -1.3541 -0.7773 -0.4396
10006TIP3    H251510   2.230   1.938   0.839 -1.0997 -0.5875 -0.5511
10007TIP3   OH251511   0.397   2.173  13.613 -0.0348 -0.1008 -0.1912
10007TIP3    H151512   0.461   2.202  13.548 -0.3232  0.4505 -0.2419
10007TIP3    H251513   0.318   2.222  13.591  0.0847  0.7091  1.0573
10008TIP3   OH251514   0.035   3.195  12.705  0.1804 -0.4996  0.0697
10008TIP3    H151515  -0.013   3.119  12.674 -0.6652 -1.0034  2.4219
10008TIP3    H251516  -0.020   3.270  12.681  0.0848 -0.7608 -0.5499
10009TIP3   OH251517   3.406   0.254   0.254 -0.1016 -0.9428  0.2094
10009TIP3    H151518   3.369   0.204   0.328  0.2276 -2.1665 -0.4366
10009TIP3    H251519   3.344   0.239   0.183 -0.1399 -0.1882  0.0807
10010TIP3   OH251520   1.289   2.190   0.387 -0.3489  0.4095  0.2393
10010TIP3    H151521   1.327   2.179   0.474 -2.7339 -0.9841  1.2053
10010TIP3    H251522   1.194   2.193   0.403 -0.9472 -1.2766 -2.4288
10011TIP3   OH251523   2.435   3.850   0.635  0.5579 -0.0857 -0.6406
10011TIP3    H151524   2.387   3.859   0.553  1.3633 -0.6237 -1.1892
10011TIP3    H251525   2.398   3.771   0.676  2.2819 -1.7081 -2.0284
10012TIP3   OH251526   0.891   4.004   0.056 -0.7003  0.4216  0.4912
10012TIP3    H151527   0.933   3.937   0.110 -1.8962 -0.9831 -0.2583
10012TIP3    H251528   0.850   3.956  -0.015 -0.6080  2.0704 -0.7551
10013TIP3   OH251529   5.732   2.442   5.155 -0.3467 -0.3786  0.3261
10013TIP3    H151530   5.661   2.499   5.125 -0.9862 -1.6183 -0.6312
10013TIP3    H251531   5.788   2.432   5.078  0.2314 -0.3520  0.7413
10014TIP3   OH251532   6.112   5.558  16.917 -0.2623 -0.9402  0.0231
10014TIP3    H151533   6.099   5.464  16.918  0.7351 -1.1893  3.7478
10014TIP3    H251534   6.206   5.569  16.899 -0.5822 -0.5223 -1.5734
10015TIP3   OH251535   5.951   4.175  16.978  0.0135 -0.6828  0.6780
10015TIP3    H151536   5.884   4.108  16.963  0.1470 -0.9306  1.1750
10015TIP3    H251537   6.026   4.127  17.013  0.9738 -0.6185 -1.1911
10016TIP3   OH251538   3.398   0.956  11.909  0.1929  0.0457 -0.2439
10016TIP3    H151539   3.355   0.882  11.865  1.5083 -1.1852  0.4727
10016TIP3    H251540   3.329   1.022  11.917 -0.4325 -0.1372 -3.0321
10017TIP3   OH251541   1.338   3.834  14.246 -0.3665 -0.5115  0.2964
10017TIP3    H151542   1.276   3.807  14.314 -0.7958 -0.1574  0.0449
10017TIP3    H251543   1.309   3.787  14.168 -0.4288 -0.1959  0.1322
10018TIP3   OH251544   6.231   0.383  15.294  0.4281  0.5196 -0.2081
10018TIP3    H151545   6.293   0.431  15.238  0.4602  0.8184  0.0751
10018TIP3    H251546   6.255   0.409  15.383  0.2088  0.2544 -0.0700
10019TIP3   OH251547   0.651   2.195   4.293  0.2052  0.2560 -0.1778
10019TIP3    H151548   0.581   2.149   4.339 -0.2369  2.1519  1.1353
10019TIP3    H251549   0.616   2.282   4.276  2.1485  1.2030  0.3484
10020TIP3   OH251550   6.138   2.023   3.500  0.1211 -0.3356  0.1355
10020TIP3    H151551   6.128   1.958   3.570  0.2270 -0.7598 -0.2370
10020TIP3    H251552   6.232   2.030   3.487  0.0749 -0.9800 -0.6208
10021TIP3   OH251553   0.137   1.655   2.182 -0.3676  0.0529 -0.1696
10021TIP3    H151554   0.131   1.659   2.087 -0.0300 -0.5028 -0.2166
10021TIP3    H251555   0.152   1.563   2.202 -0.9377  0.0863  0.4522
10022TIP3   OH251556   5.978   3.336  10.887 -0.0226  0.2196  0.4054
10022TIP3    H151557   5.925   3.276  10.940 -2.7754  1.3704 -0.8791
10022TIP3    H251558   5.966   3.422  10.929  2.9424  0.2084  1.5425
10023TIP3   OH251559   6.446   0.958   6.407  0.1215  0.0024  0.3309
10023TIP3    H151560   6.441   0.876   6.357  0.4599  1.3544 -2.0717
10023TIP3    H251561   6.538   0.983   6.402 -0.0293  0.6689  0.8273
10024TIP3   OH251562   4.849   3.596   1.339  0.1223 -0.3325  0.4135
10024TIP3    H151563   4.844   3.688   1.315 -0.1138 -0.4234  0.1123
10024TIP3    H251564   4.760   3.573   1.365  0.4031 -0.1884  1.5775
10025TIP3   OH251565   4.490   0.937   4.795  0.0323  0.1688  0.7977
10025TIP3    H151566   4.483   0.952   4.700  1.3673  2.1879  0.9665
10025TIP3    H251567   4.523   0.847   4.801 -0.9617 -0.3316 -0.6077
10026TIP3   OH251568   5.429   6.708  16.974  0.3781 -0.3716 -0.2205
10026TIP3    H151569   5.522   6.689  16.975  0.1108 -1.8071 -0.8480
10026TIP3    H251570   5.417   6.771  17.045  1.6880 -0.8160  0.4252
10027TIP3   OH251571   1.142   5.855  12.584 -0.1860  0.0989 -0.2662
10027TIP3    H151572   1.221   5.876  12.634  0.4410 -1.5125 -0.5244
10027TIP3    H251573   1.173   5.847  12.494 -0.3259 -1.9918 -0.1738
10028TIP3   OH251574   5.255   2.641  16.628 -0.2614  0.3617 -0.3702
10028TIP3    H151575   5.271   2.729  16.663  0.1418  0.2603 -0.3011
10028TIP3    H251576   5.324   2.627  16.563  0.4235 -0.3778  0.4845
10029TIP3   OH251577   2.449   5.650   3.125  0.1717  0.1305  0.4097
10029TIP3    H151578   2.537   5.688   3.131  0.3548 -0.4614  1.8908
10029TIP3    H251579   2.406   5.677   3.206 -1.2368  0.8841 -0.5331
10030TIP3   OH251580   4.320   4.251   0.971  0.2947  0.6723  0.1590
10030TIP3    H151581   4.297   4.303   1.049 -1.8291 -0.2065  0.1934
10030TIP3    H251582   4.372   4.178   1.005  0.0070  0.6945  0.6581
10031TIP3   OH251583   4.824   4.521  10.533  0.1727  0.1924 -0.2446
10031TIP3    H151584   4.897   4.473  10.493 -0.5173  0.4147 -1.8382
10031TIP3    H251585   4.746   4.487  10.489 -0.4481  1.7436 -0.3854
10032TIP3   OH251586   0.639   2.770   2.677 -0.2228 -0.1848  0.6674
10032TIP3    H151587   0.588   2.848   2.696 -0.4380  0.0796 -0.8669
10032TIP3    H251588   0.574   2.700   2.670 -0.8413  0.5567 -3.6533
10033TIP3   OH251589   2.389   3.870   3.661 -0.0840  0.1023 -0.1336
10033TIP3    H151590   2.361   3.959   3.680 -0.4591  0.0657 -0.5032
10033TIP3    H251591   2.435   3.842   3.740  2.9282  1.7631 -1.1290
10034TIP3   OH251592   3.004   5.698  11.918 -0.0125 -0.2880 -0.3082
10034TIP3    H151593   3.049   5.782  11.933 -0.1054 -0.4365  0.9228
10034TIP3    H251594   2.998   5.659  12.005 -0.9138 -1.1040 -0.7266
10035TIP3   OH251595   5.716   3.392  15.455 -0.2145 -0.1406  0.0665
10035TIP3    H151596   5.802   3.382  15.414 -0.8264  1.7345 -1.9036
10035TIP3    H251597   5.733   3.387  15.549  1.7370 -1.6663 -0.3100
10036TIP3   OH251598   4.317   5.767  11.568 -0.1186 -0.2319 -1.1159
10036TIP3    H151599   4.272   5.823  11.631  1.0674  0.6064 -0.9635
10036TIP3    H251600   4.380   5.717  11.620 -0.1224 -0.6001 -1.4555
10037TIP3   OH251601   3.284   5.114  13.206 -0.1109  0.1809  0.3081
10037TIP3    H151602   3.329   5.161  13.136 -0.0496 -1.9897 -1.1880
10037TIP3    H251603   3.234   5.046  13.161 -2.9686  0.9127  2.0805
10038TIP3   OH251604   5.793   2.445  12.656  0.0719  0.1557 -0.2111
10038TIP3    H151605   5.765   2.525  12.701  1.5870  1.2273 -1.0935
10038TIP3    H251606   5.804   2.380  12.727 -1.1754  0.6926  0.5115
10039TIP3   OH251607   2.783   5.617  12.511 -0.5465 -0.7449  0.1994
10039TIP3    H151608   2.874   5.593  12.531 -0.4324 -0.6976 -0.2719
10039TIP3    H251609   2.767   5.695  12.564 -0.3834 -0.8746  0.4469
10040TIP3   OH251610   5.099   5.324   1.996  0.1706 -0.5085  0.2886
10040TIP3    H151611   5.048   5.394   2.035  1.0631 -0.3484  1.1974
10040TIP3    H251612   5.058   5.244   2.028 -1.2437 -0.4621 -1.2507
10041TIP3   OH251613   1.608   6.530   1.426 -0.5719 -0.4675  0.3959
10041TIP3    H151614   1.685   6.478   1.401 -0.7524 -1.0894  1.1093
10041TIP3    H251615   1.577   6.490   1.507 -1.9949 -0.5927 -0.1850
10042TIP3   OH251616   3.448   4.502  14.865  0.4207  0.2539 -0.4479
10042TIP3    H151617   3.462   4.596  14.857 -0.9361  0.4955 -0.2022
10042TIP3    H251618   3.449   4.470  14.775 -2.6301  1.0939 -0.9069
10043TIP3   OH251619   0.618   2.164   3.267 -0.4515 -0.5191 -0.1802
10043TIP3    H151620   0.680   2.181   3.196  0.6772 -1.2277  0.5909
10043TIP3    H251621   0.613   2.068   3.271 -1.3792 -0.4663 -0.0361
10044TIP3   OH251622   6.560   2.273   3.965  0.1094 -0.3100  0.3240
10044TIP3    H151623   6.502   2.348   3.975  0.9425  0.3954 -0.0533
10044TIP3    H251624   6.639   2.308   3.923  0.2855 -1.4904 -0.3977
10045TIP3   OH251625   4.325   1.231   4.292  0.0996  0.0909  0.1001
10045TIP3    H151626   4.324   1.325   4.275  0.4903  0.2468  0.9072
10045TIP3    H251627   4.254   1.217   4.355 -0.7326 -0.3409 -0.8996
10046TIP3   OH251628   3.843   3.690   5.503  0.3488  0.2822 -0.1388
10046TIP3    H151629   3.784   3.627   5.544 -0.7892  1.2172 -0.2918
10046TIP3    H251630   3.901   3.636   5.449 -2.7847 -0.4979 -3.0833
10047TIP3   OH251631   2.608   2.986   5.804 -0.1010  0.6347  0.0948
10047TIP3    H151632   2.619   3.049   5.875 -0.0916  0.4696  0.2419
10047TIP3    H251633   2.691   2.989   5.757  0.3195 -0.0598  0.7549
10048TIP3   OH251634   1.794   1.400  13.633  0.5956 -0.3421  0.1486
10048TIP3    H151635   1.839   1.329  13.679  2.0318 -0.9920 -2.1274
10048TIP3    H251636   1.788   1.370  13.543  0.0559  1.9094 -0.6143
10049TIP3   OH251637   4.702   2.539   6.483 -0.2290 -0.0940 -0.5602
10049TIP3    H151638   4.781   2.578   6.519 -1.5550  0.7424  1.6052
10049TIP3    H251639   4.666   2.605   6.424  0.3090 -0.2252 -1.0489
10050TIP3   OH251640   5.496   5.229   1.919 -0.4228  0.1338  0.5008
10050TIP3    H151641   5.485   5.144   1.877 -2.0828 -0.2366  1.5948
10050TIP3    H251642   5.573   5.267   1.876  1.1213 -2.4073  0.8011
10051TIP3   OH251643   4.191   0.589   2.701 -0.6758  0.0983 -0.0418
10051TIP3    H151644   4.143   0.645   2.763 -1.9734 -1.4461  0.4143
10051TIP3    H251645   4.147   0.504   2.707  0.7118 -0.7487 -1.3284
10052TIP3   OH251646   2.667   3.079  15.008 -0.4591  0.1764  0.1559
10052TIP3    H151647   2.678   3.153  14.949  1.8591  0.1132  0.4138
10052TIP3    H251648   2.592   3.103  15.062 -0.6392  1.6835 -0.7073
10053TIP3   OH251649   5.424   5.025  17.082  0.0251 -0.0942 -0.1079
10053TIP3    H151650   5.352   5.003  17.141  0.2073 -0.9706 -0.2054
10053TIP3    H251651   5.482   5.081  17.134  0.6482 -1.5970  0.8482
10054TIP3   OH251652   5.602   4.591   2.613 -0.3171  0.8078 -0.0085
10054TIP3    H151653   5.692   4.562   2.623 -0.6556 -0.2818 -0.0146
10054TIP3    H251654   5.549   4.512   2.626 -1.2831  1.4659  0.2188
10055TIP3   OH251655   0.493   4.490   2.866 -0.0598  0.1948  0.0906
10055TIP3    H151656   0.574   4.485   2.815 -0.9371 -1.4256 -1.2424
10055TIP3    H251657   0.501   4.422   2.932  0.1253  0.7846  0.6825
10056TIP3   OH251658   5.128   6.804  13.132 -0.2316  0.4464 -0.2491
10056TIP3    H151659   5.209   6.838  13.170  0.6534 -0.0633 -1.6356
10056TIP3    H251660   5.110   6.724  13.180 -0.7435  1.2996  1.0530
10057TIP3   OH251661   6.397   3.934   1.026  0.2140  0.6427  0.0416
10057TIP3    H151662   6.413   3.988   1.104 -0.1223 -1.1769  1.4409
10057TIP3    H251663   6.339   3.865   1.057  2.3125 -1.7673 -1.1138
10058TIP3   OH251664   3.511   4.107   1.550 -0.1828  0.0882 -0.4364
10058TIP3    H151665   3.549   4.020   1.557 -0.1661  0.2321  2.9806
10058TIP3    H251666   3.416   4.092   1.553 -0.2145  0.1285 -1.1777
10059TIP3   OH251667   5.238   3.947  16.981 -0.1932 -0.0863  0.3894
10059TIP3    H151668   5.148   3.921  16.965  0.2750 -0.8694 -1.2160
10059TIP3    H251669   5.251   4.023  16.924  0.4521 -0.6399 -0.2221
10060TIP3   OH251670   1.065   1.563  16.205  0.3140 -0.1858 -0.4952
10060TIP3    H151671   1.049   1.657  16.201  1.9095  0.1410 -0.0155
10060TIP3    H251672   1.137   1.554  16.268  0.3438 -1.7032 -0.7104
10061TIP3   OH251673   1.135   4.813  13.152  0.5295  0.4146 -0.4643
10061TIP3    H151674   1.044   4.832  13.128  0.7936 -0.2960 -2.1507
10061TIP3    H251675   1.185   4.883  13.109  0.9093 -0.1204 -0.8943
10062TIP3   OH251676   4.506   4.918   1.790 -0.0070 -0.7951 -0.1443
10062TIP3    H151677   4.580   4.939   1.846  0.1704 -2.3828  0.2670
10062TIP3    H251678   4.545   4.894   1.707 -0.1300 -0.7386 -0.2191
10063TIP3   OH251679   4.295   5.729   4.795 -0.2835 -0.0269  0.1768
10063TIP3    H151680   4.387   5.749   4.814 -0.0257 -1.5607  0.6984
10063TIP3    H251681   4.247   5.760   4.872 -0.4556  2.1924 -0.7389
10064TIP3   OH251682   3.150   2.804  12.697 -0.6648 -0.0881 -0.0548
10064TIP3    H151683   3.228   2.855  12.678  0.1032 -1.5612 -1.0813
10064TIP3    H251684   3.181   2.714  12.702 -1.9881 -0.4984  1.5770
10065TIP3   OH251685   1.592   3.693  11.432  0.4125  0.4121  0.2263
10065TIP3    H151686   1.591   3.744  11.351 -1.2477 -1.1942 -0.8342
10065TIP3    H251687   1.617   3.605  11.405  0.6733  0.0301  1.6181
10066TIP3   OH251688   3.463   2.256   5.985  0.2229  0.1861  0.7456
10066TIP3    H151689   3.551   2.281   5.955  1.3506 -0.0935  3.5356
10066TIP3    H251690   3.449   2.306   6.065 -1.2535 -1.3752  1.5405
10067TIP3   OH251691   4.336   0.927   2.356  0.5737 -0.2783  0.0033
10067TIP3    H151692   4.370   0.928   2.446 -1.6494  1.5060  0.9206
10067TIP3    H251693   4.304   0.837   2.345 -2.9013  0.4060  2.6788
10068TIP3   OH251694   3.105   0.264  15.784  0.2122 -1.0180  0.2510
10068TIP3    H151695   3.166   0.248  15.856  1.5518  0.0400 -0.6074
10068TIP3    H251696   3.075   0.354  15.797  1.5268 -0.3306 -1.2379
10069TIP3   OH251697   6.601   6.569   6.491 -0.1001  0.0795 -0.3324
10069TIP3    H151698   6.547   6.533   6.561 -1.1149  0.7596 -0.7426
10069TIP3    H251699   6.674   6.507   6.482 -1.8003 -1.9316 -1.0420
10070TIP3   OH251700   6.195   3.693  14.237 -0.4929 -0.1019  0.5324
10070TIP3    H151701   6.192   3.599  14.253 -1.2718  0.1545  2.0285
10070TIP3    H251702   6.256   3.727  14.302 -2.0538  0.7092  1.6371
10071TIP3   OH251703   2.182   5.399  11.394  0.1289 -0.2875  0.0936
10071TIP3    H151704   2.099   5.409  11.346  0.8096 -0.9666 -1.2706
10071TIP3    H251705   2.248   5.387  11.326  1.2652 -0.4317  1.1880
10072TIP3   OH251706   3.396   0.187   3.893  0.6128  0.5240  0.2900
10072TIP3    H151707   3.484   0.209   3.924  0.9610 -1.3870  0.7298
10072TIP3    H251708   3.355   0.142   3.966 -0.7427  1.3286  0.0627
10073TIP3   OH251709   5.588   6.293   5.030  0.2499  0.1248  0.0828
10073TIP3    H151710   5.547   6.365   5.078 -0.7638 -0.7533  0.5709
10073TIP3    H251711   5.680   6.318   5.023 -0.0974  1.4866  0.1889
10074TIP3   OH251712   0.031   5.594  14.437 -0.4440 -0.1414  0.0431
10074TIP3    H151713  -0.053   5.548  14.430 -0.1984 -0.4783 -0.8907
10074TIP3    H251714   0.014   5.667  14.496 -1.6128  0.2613 -0.7601
10075TIP3   OH251715   2.586   0.131   0.108  0.2401 -0.2119  0.4358
10075TIP3    H151716   2.495   0.134   0.137 -0.1273 -0.5416 -0.6458
10075TIP3    H251717   2.636   0.156   0.185 -0.6909 -1.1727  1.3978
10076TIP3   OH251718   2.368   0.346   5.149  0.5589  0.2483  0.0010
10076TIP3    H151719   2.306   0.302   5.090 -0.9418  0.3938  1.3952
10076TIP3    H251720   2.429   0.277   5.175 -1.8879 -1.2389  2.3359
10077TIP3   OH251721   2.733   3.585  13.167 -0.0510 -0.1005  0.0634
10077TIP3    H151722   2.769   3.521  13.105 -0.0778  2.0937 -2.3586
10077TIP3    H251723   2.799   3.655  13.170 -0.4685  0.2770  1.8971
10078TIP3   OH251724   3.648   3.445   4.814  0.0332  0.1846 -0.6955
10078TIP3    H151725   3.732   3.471   4.775  1.0381 -1.2137  0.4182
10078TIP3    H251726   3.670   3.369   4.867 -2.3763 -1.6093 -2.1354
10079TIP3   OH251727   5.911   1.305   1.133 -0.3063  0.1936  0.4125
10079TIP3    H151728   5.977   1.291   1.065 -2.8877 -1.9465 -1.9373
10079TIP3    H251729   5.951   1.273   1.213  1.9554  0.2919 -0.6102
10080TIP3   OH251730   6.266   3.493  15.083  1.0122 -0.1696 -0.0989
10080TIP3    H151731   6.197   3.433  15.056 -0.0836  1.6638 -1.6474
10080TIP3    H251732   6.241   3.521  15.171 -0.8982  1.2706 -1.0180
10081TIP3   OH251733   3.768   3.370   2.288  0.4566 -0.0175  0.1077
10081TIP3    H151734   3.679   3.394   2.309  0.7056 -0.4977  1.8444
10081TIP3    H251735   3.799   3.438   2.228 -0.5065  1.0865  0.8446
10082TIP3   OH251736   6.797   6.690  11.407  0.4055 -0.0652  0.4179
10082TIP3    H151737   6.843   6.736  11.477 -2.6730  2.6709  0.8598
10082TIP3    H251738   6.704   6.710  11.421 -0.7666 -3.0601 -1.9229
10083TIP3   OH251739   0.085   4.896  13.906 -0.0124  0.3185 -0.8452
10083TIP3    H151740   0.099   4.809  13.943 -0.5390  0.6113  0.0518
10083TIP3    H251741   0.107   4.885  13.813  0.2401 -0.6889 -0.6851
10084TIP3   OH251742   2.219   6.617   2.463  0.0475  0.4681  0.7458
10084TIP3    H151743   2.202   6.523   2.461 -1.0179  0.6554  0.2268
10084TIP3    H251744   2.271   6.634   2.385 -3.5111  0.9214 -1.8018
10085TIP3   OH251745   5.821   6.647  10.628 -0.2593  0.0780  0.0087
10085TIP3    H151746   5.737   6.692  10.641 -0.0054  0.0965  1.8622
10085TIP3    H251747   5.816   6.570  10.685  0.6080 -0.4572 -0.6162
10086TIP3   OH251748   6.065   5.067   6.227  0.3792  0.2913  0.0247
10086TIP3    H151749   6.117   5.090   6.304 -0.5359  0.1824  0.6911
10086TIP3    H251750   6.125   5.019   6.171  0.8766 -0.2384  0.9871
10087TIP3   OH251751   1.103   4.774   5.273 -0.3334 -0.2847  0.4819
10087TIP3    H151752   1.116   4.721   5.194 -0.3799  1.0231 -0.4327
10087TIP3    H251753   1.191   4.806   5.294 -0.4083 -0.1766  0.6310
10088TIP3   OH251754   4.746   1.697   0.075 -0.2566  0.3446 -0.0981
10088TIP3    H151755   4.731   1.617   0.025  0.7507  0.6332 -0.8953
10088TIP3    H251756   4.809   1.671   0.143  1.0629  0.7090 -1.1343
10089TIP3   OH251757   1.549   5.300  14.200  0.1206  0.4131 -0.0231
10089TIP3    H151758   1.610   5.289  14.273 -1.4723  4.0673  2.1595
10089TIP3    H251759   1.487   5.228  14.209  1.3808 -0.6232  0.6606
10090TIP3   OH251760   3.496   0.140   5.156 -0.1189  0.0143 -0.2986
10090TIP3    H151761   3.523   0.194   5.230  2.3980 -0.3308 -0.8525
10090TIP3    H251762   3.527   0.187   5.079 -1.8098 -0.1125 -1.1011
10091TIP3   OH251763   2.421   6.485   3.741  0.0006 -0.2733  0.4960
10091TIP3    H151764   2.392   6.457   3.827  0.0405  1.0160  0.9447
10091TIP3    H251765   2.374   6.428   3.680 -0.3097 -0.9446  1.3468
10092TIP3   OH251766   0.668   0.921  14.038 -0.0318 -0.5262  0.7160
10092TIP3    H151767   0.723   0.975  14.095  0.8646  0.0486 -0.6537
10092TIP3    H251768   0.699   0.831  14.053 -0.3301 -0.4726  1.6970
10093TIP3   OH251769   0.542   2.347   5.253 -0.1371  0.3433  0.2058
10093TIP3    H151770   0.531   2.408   5.180  0.6814  0.4306  0.1439
10093TIP3    H251771   0.629   2.368   5.288  0.1767 -0.8201  0.1501
10094TIP3   OH251772   2.517   1.296  12.279  0.7000 -0.1206 -0.3077
10094TIP3    H151773   2.527   1.201  12.291 -0.1548 -0.3248 -1.0567
10094TIP3    H251774   2.424   1.307  12.259  1.2498  0.5726 -2.8382
10095TIP3   OH251775   1.750   6.336   3.194  0.1042 -0.1150 -0.4928
10095TIP3    H151776   1.765   6.429   3.175  2.2199  0.0074  1.3063
10095TIP3    H251777   1.666   6.334   3.240  1.3091  1.4206  2.0362
10096TIP3   OH251778   4.385   4.542  12.476  0.3835  0.2287  0.6442
10096TIP3    H151779   4.299   4.544  12.518 -0.3317  0.1515 -0.7332
10096TIP3    H251780   4.385   4.462  12.424  1.2789  0.2375  0.6128
10097TIP3   OH251781   4.861   5.433   5.292  0.1161 -0.7083 -0.2447
10097TIP3    H151782   4.911   5.457   5.370  0.7180 -1.1806 -0.4759
10097TIP3    H251783   4.771   5.427   5.323  0.4001 -1.2983  0.5157
10098TIP3   OH251784   0.397   3.938   2.360 -0.4190 -0.2649 -0.1265
10098TIP3    H151785   0.435   4.024   2.377 -0.8611  0.0050 -0.4568
10098TIP3    H251786   0.303   3.956   2.350 -0.7025 -0.9614  1.0469
10099TIP3   OH251787   5.106   2.484   5.962  0.4081  0.1013 -0.4355
10099TIP3    H151788   5.164   2.410   5.944  0.0415 -0.8257  1.9328
10099TIP3    H251789   5.154   2.539   6.023 -1.0588 -0.5987  1.4393
10100TIP3   OH251790   0.967   5.246  12.047 -0.4249 -0.5154  0.0412
10100TIP3    H151791   0.950   5.211  12.135 -2.0168 -0.3933 -0.1889
10100TIP3    H251792   1.012   5.329  12.063 -1.3938 -0.1143  0.7892
10101TIP3   OH251793   5.333   2.940   3.584 -0.1426  0.4537 -0.2245
10101TIP3    H151794   5.239   2.928   3.567 -0.0807  1.9973 -1.8637
10101TIP3    H251795   5.372   2.953   3.498  1.6474 -0.3634  0.4085
10102TIP3   OH251796   4.179   4.364   6.308 -0.1883 -0.1733 -0.3413
10102TIP3    H151797   4.106   4.364   6.369 -0.6937  0.7907 -0.9206
10102TIP3    H251798   4.169   4.446   6.258  1.9444  0.6065  0.3679
10103TIP3   OH251799   3.530   6.271  10.367 -0.1412  0.0105  0.3805
10103TIP3    H151800   3.538   6.244  10.276  2.1261 -1.6411  0.9746
10103TIP3    H251801   3.451   6.225  10.398 -0.4267 -0.1221 -0.5074
10104TIP3   OH251802   2.099   4.668  14.365  0.1068  0.0049 -0.6734
10104TIP3    H151803   2.005   4.654  14.350  0.0394  1.1671 -1.4602
10104TIP3    H251804   2.110   4.658  14.460 -1.2667  2.1686 -0.2189
10105TIP3   OH251805   0.040   6.070   4.609  0.3162 -0.2546 -0.0695
10105TIP3    H151806   0.107   6.139   4.602  0.0764  0.2429  2.0552
10105TIP3    H251807  -0.028   6.108   4.664 -0.2517 -1.8809  0.3967
10106TIP3   OH251808   6.481   0.402  11.530 -0.4957  0.5654  0.7531
10106TIP3    H151809   6.511   0.485  11.566 -0.0976 -0.2282  2.3262
10106TIP3    H251810   6.400   0.382  11.577  0.6495 -1.0631  2.1958
10107TIP3   OH251811   4.145   2.475  14.616 -0.0179 -0.4962 -0.1664
10107TIP3    H151812   4.153   2.479  14.712  0.8462  0.1572 -0.2512
10107TIP3    H251813   4.153   2.382  14.595 -1.3950 -0.7891  0.4726
10108TIP3   OH251814   4.113   2.629  13.593  0.6058  0.0605 -0.1660
10108TIP3    H151815   4.022   2.658  13.605 -0.0783 -2.0798  0.1057
10108TIP3    H251816   4.145   2.682  13.520 -0.3866  1.8268  0.6092
10109TIP3   OH251817   5.570   5.355   4.745 -0.2760 -0.4059  0.1169
10109TIP3    H151818   5.530   5.389   4.665  1.1962  0.7013 -0.1968
10109TIP3    H251819   5.661   5.338   4.720 -0.1139 -1.3021  1.2258
10110TIP3   OH251820   2.801   3.281   4.056 -0.0652 -0.1632  0.1933
10110TIP3    H151821   2.760   3.209   4.104 -0.5907 -0.8605 -1.2403
10110TIP3    H251822   2.883   3.296   4.102  0.6118 -2.4594 -0.1044
10111TIP3   OH251823   1.484   2.490   2.562  0.9254  0.0479 -1.1540
10111TIP3    H151824   1.519   2.558   2.620 -2.7678  0.6472  0.6510
10111TIP3    H251825   1.504   2.521   2.474  0.4976  2.8955 -0.3542
10112TIP3   OH251826   4.741   4.014   3.392  0.0171 -0.2773 -0.3974
10112TIP3    H151827   4.707   4.070   3.462 -0.0203 -0.0531 -0.5956
10112TIP3    H251828   4.781   4.074   3.330  1.6065 -0.5888  0.2734
10113TIP3   OH251829   3.776   0.015  13.911  0.4384  0.0245 -0.3487
10113TIP3    H151830   3.843  -0.044  13.945 -0.8270 -1.6056 -0.5371
10113TIP3    H251831   3.694  -0.034  13.922 -0.7887  2.0832  0.2337
10114TIP3   OH251832   6.568   4.145   5.296 -0.3106 -0.2883 -0.1222
10114TIP3    H151833   6.645   4.136   5.353  1.1475 -0.4782 -2.0023
10114TIP3    H251834   6.531   4.230   5.319  2.1595  1.1228 -1.0696
10115TIP3   OH251835   6.761   6.414   4.037 -0.1324  0.2638  0.1302
10115TIP3    H151836   6.701   6.457   3.976 -0.7593  2.3683  2.0710
10115TIP3    H251837   6.707   6.349   4.082 -0.4515  0.7604  0.4746
10116TIP3   OH251838   0.091   2.851   1.797  0.4918  0.4577  0.2784
10116TIP3    H151839   0.180   2.843   1.832  0.0257  2.5401  2.2032
10116TIP3    H251840   0.042   2.782   1.841  0.9509 -0.1581 -0.1521
10117TIP3   OH251841   1.864   5.447  11.832 -0.0198 -0.2254  0.3426
10117TIP3    H151842   1.877   5.368  11.885  1.5285 -0.1362  0.1436
10117TIP3    H251843   1.952   5.484  11.822 -0.5483  0.8312 -0.6429
10118TIP3   OH251844   6.200   3.530  11.020 -0.0096 -0.2259  0.6628
10118TIP3    H151845   6.267   3.536  11.087  0.3978 -1.6332  0.4055
10118TIP3    H251846   6.170   3.621  11.008 -0.1185  0.0480  2.7331
10119TIP3   OH251847   6.744   0.937   1.558  0.3566  0.2824  0.3464
10119TIP3    H151848   6.703   0.996   1.621  0.0166  0.0511  0.3403
10119TIP3    H251849   6.671   0.895   1.513  0.5977 -0.2930  0.4874
10120TIP3   OH251850   5.519   0.852  13.549 -0.3154  0.6075 -0.2338
10120TIP3    H151851   5.479   0.938  13.537  0.1959  0.8364 -0.3204
10120TIP3    H251852   5.583   0.846  13.478 -0.3314  0.1644 -0.2109
10121TIP3   OH251853   2.119   0.741   5.472 -0.1502 -0.0132  0.0292
10121TIP3    H151854   2.132   0.773   5.561  0.7593 -0.7268  0.1698
10121TIP3    H251855   2.093   0.818   5.422  2.3366  1.0914  0.2706
10122TIP3   OH251856   2.727   3.556  13.888 -0.1106 -0.1939  0.5630
10122TIP3    H151857   2.808   3.578  13.841  0.0884 -0.8570  0.5854
10122TIP3    H251858   2.748   3.476  13.936 -0.3060  0.4774  1.8076
10123TIP3   OH251859   3.693   2.262   5.817 -0.1598  0.4056 -0.5372
10123TIP3    H151860   3.743   2.328   5.866  1.1272 -1.5560  0.9325
10123TIP3    H251861   3.757   2.196   5.792 -1.6583 -1.1991 -0.3647
10124TIP3   OH251862   5.744   5.748   1.917  0.1889  0.0028  0.5112
10124TIP3    H151863   5.788   5.824   1.955  0.3543 -0.5604  1.4775
10124TIP3    H251864   5.659   5.746   1.959 -0.3499  0.4254 -0.5180
10125TIP3   OH251865   2.482   4.028  10.506  0.7585  0.5767  0.0403
10125TIP3    H151866   2.544   4.094  10.475  0.6662  0.8961  0.5125
10125TIP3    H251867   2.398   4.074  10.507  0.9134  0.8688  1.6452
10126TIP3   OH251868   5.720   3.176  14.907 -0.4163  0.5637  0.1472
10126TIP3    H151869   5.736   3.176  15.001  0.1773  0.2841  0.0504
10126TIP3    H251870   5.650   3.111  14.895  0.8798 -0.9077  0.1923
10127TIP3   OH251871   3.662   3.751   1.846  0.1705  0.4419  0.2175
10127TIP3    H151872   3.664   3.674   1.790  1.3612  0.5671  0.0585
10127TIP3    H251873   3.580   3.743   1.895 -0.7541  0.1761 -1.2972
10128TIP3   OH251874   3.715   4.311  11.864 -0.3266  0.2606  0.5236
10128TIP3    H151875   3.693   4.349  11.779 -1.4973  3.3959  2.0495
10128TIP3    H251876   3.791   4.361  11.894 -0.9927  0.4431  2.0184
10129TIP3   OH251877   3.183   6.265  11.285 -0.1290  0.0944  0.4525
10129TIP3    H151878   3.151   6.299  11.368 -0.1598  0.4846  0.2824
10129TIP3    H251879   3.278   6.280  11.288 -0.2816  1.2779 -0.1084
10130TIP3   OH251880   2.590   4.085   4.163  0.0620  0.7121  0.2665
10130TIP3    H151881   2.598   4.094   4.068  0.4234 -0.4851  0.1656
10130TIP3    H251882   2.538   4.005   4.175  3.6664 -1.7722  1.0591
10131TIP3   OH251883   2.975   4.232   0.924 -0.6062  0.8854 -0.0637
10131TIP3    H151884   3.021   4.206   1.004 -0.0209  1.6650 -0.1411
10131TIP3    H251885   2.904   4.167   0.916  2.0987 -2.1719 -1.4828
10132TIP3   OH251886   6.513   4.959   0.406 -0.3596  0.0516 -0.5326
10132TIP3    H151887   6.461   5.039   0.400 -0.8355 -0.1255  0.9238
10132TIP3    H251888   6.544   4.944   0.316 -3.4185 -0.2639 -1.6440
10133TIP3   OH251889   2.109   1.664   2.367 -0.1206 -0.6051 -0.5276
10133TIP3    H151890   2.031   1.685   2.420  0.6476 -0.3080  0.5223
10133TIP3    H251891   2.074   1.620   2.290 -1.3323 -0.5146 -0.0604
10134TIP3   OH251892   6.678   0.613   1.564 -0.3651  0.0241  0.0743
10134TIP3    H151893   6.725   0.646   1.640 -0.5889  1.1396 -0.2536
10134TIP3    H251894   6.586   0.629   1.584 -0.4933 -0.5037 -0.0586
10135TIP3   OH251895   2.615   1.640  11.896 -0.4400  0.9107 -0.3340
10135TIP3    H151896   2.548   1.695  11.856  0.1305  1.7500 -0.1616
10135TIP3    H251897   2.651   1.693  11.967  0.2600  0.3906 -0.2884
10136TIP3   OH251898   5.036   3.633   4.894 -0.5344  0.3774 -0.6023
10136TIP3    H151899   5.081   3.712   4.865 -1.0232  0.0204 -2.4841
10136TIP3    H251900   4.956   3.665   4.935  0.5921  0.9380  1.2889
10137TIP3   OH251901   4.304   0.749  16.460 -0.7143  0.7939  0.5347
10137TIP3    H151902   4.295   0.665  16.414 -0.0256  1.2331 -0.4266
10137TIP3    H251903   4.320   0.812  16.391  0.4527  1.4698  1.3980
10138TIP3   OH251904   1.319   5.505  13.283 -0.3431 -0.3473 -0.4979
10138TIP3    H151905   1.246   5.521  13.342 -0.6743 -1.7812 -0.4703
10138TIP3    H251906   1.281   5.513  13.195 -0.6097 -1.3330 -0.4825
10139TIP3   OH251907   0.225   6.620   0.588  0.2896 -0.4981 -0.3482
10139TIP3    H151908   0.224   6.559   0.662 -0.3292 -0.8915 -0.6765
10139TIP3    H251909   0.241   6.565   0.512 -1.7016 -0.4835 -0.8390
10140TIP3   OH251910   0.771   2.536   4.692  0.6252  0.1394 -0.4688
10140TIP3    H151911   0.839   2.601   4.674  0.4752  0.2002 -0.8142
10140TIP3    H251912   0.766   2.532   4.788  3.3312 -2.1442 -0.2832
10141TIP3   OH251913   4.081   1.634   4.615 -0.1071  0.3435  0.1940
10141TIP3    H151914   4.152   1.659   4.556 -0.6508 -1.5762 -1.3656
10141TIP3    H251915   4.120   1.637   4.703  1.4948  0.6200 -0.5071
10142TIP3   OH251916   6.671   3.042   0.538 -0.3212 -0.3299 -0.5276
10142TIP3    H151917   6.638   3.046   0.628 -0.6916  0.3320 -0.6891
10142TIP3    H251918   6.731   3.116   0.531 -0.3277 -0.3513 -0.8325
10143TIP3   OH251919   3.886   2.495  14.520 -0.1829 -0.1777  0.3088
10143TIP3    H151920   3.862   2.415  14.473 -0.7919 -0.2740  0.7780
10143TIP3    H251921   3.977   2.481  14.547 -0.3478 -0.7966  0.5619
10144TIP3   OH251922   4.229   6.608   0.249  0.1751  0.0898 -0.1416
10144TIP3    H151923   4.226   6.700   0.275 -0.2985  0.5892 -1.8238
10144TIP3    H251924   4.182   6.562   0.318  1.4329  0.9313  1.3348
10145TIP3   OH251925   6.738   3.931   2.088 -0.2252 -0.5334 -0.9238
10145TIP3    H151926   6.706   3.871   2.021 -2.0387 -0.6144 -0.0480
10145TIP3    H251927   6.812   3.884   2.128 -1.5042 -2.1768 -0.3599
10146TIP3   OH251928   6.164   1.357  14.517  0.1954  0.1312  0.0518
10146TIP3    H151929   6.163   1.435  14.462 -1.5806  0.3209  0.2845
10146TIP3    H251930   6.213   1.383  14.595 -0.5944  1.1130  0.2372
10147TIP3   OH251931   1.429   1.362   6.686 -0.4241 -1.1029  0.4744
10147TIP3    H151932   1.478   1.318   6.616 -1.1445  0.5608 -1.1550
10147TIP3    H251933   1.484   1.352   6.763  1.5003 -1.0746 -0.8207
10148TIP3   OH251934   2.039   1.485  13.916 -0.6319 -0.0541 -0.4711
10148TIP3    H151935   2.122   1.451  13.950 -1.0890 -0.3260  0.3808
10148TIP3    H251936   2.027   1.438  13.833 -0.1334 -0.3018 -0.4087
10149TIP3   OH251937   1.127   2.182  10.343 -0.3552  0.2404  0.0724
10149TIP3    H151938   1.182   2.258  10.322  0.7197 -0.8079 -1.0481
10149TIP3    H251939   1.112   2.140  10.258  0.2752 -1.6014  0.8293
10150TIP3   OH251940   4.753   6.237  14.820 -0.7125  0.1361 -0.4002
10150TIP3    H151941   4.833   6.188  14.842 -0.1005  0.4702 -1.7330
10150TIP3    H251942   4.785   6.316  14.777 -1.7208  1.3106  0.9278
10151TIP3   OH251943   5.139   5.561   0.846  0.2122  0.5524 -0.0861
10151TIP3    H151944   5.155   5.507   0.924  1.6045  0.2071 -0.5920
10151TIP3    H251945   5.062   5.613   0.869  1.4768  1.5554  2.1082
10152TIP3   OH251946   3.475   0.985  13.481 -0.5483 -0.5969  0.3748
10152TIP3    H151947   3.548   0.937  13.442 -1.3029 -2.6741  1.3506
10152TIP3    H251948   3.408   0.918  13.496 -1.1934  0.5110  2.9651
10153TIP3   OH251949   6.566   1.946   1.567  0.1671 -0.2824  0.1273
10153TIP3    H151950   6.523   1.860   1.562  0.8855 -0.7336  1.1754
10153TIP3    H251951   6.571   1.964   1.661  0.7363  0.5435 -0.0533
10154TIP3   OH251952   2.224   4.860   4.676  0.0587  0.5181  0.8298
10154TIP3    H151953   2.277   4.781   4.690  0.6345  0.4031 -1.5564
10154TIP3    H251954   2.149   4.849   4.735 -0.5373 -2.4628 -0.3138
10155TIP3   OH251955   3.025   4.811   5.148  0.5330  0.4629 -0.4900
10155TIP3    H151956   3.016   4.904   5.171  0.3688  0.5663 -0.9595
10155TIP3    H251957   3.066   4.813   5.062  0.0481  0.1070 -0.7292
10156TIP3   OH251958   5.042   2.970   0.030  0.2510 -0.7799  0.2967
10156TIP3    H151959   4.955   2.932   0.026  0.6265 -1.7640  1.0614
10156TIP3    H251960   5.058   3.004  -0.058 -1.2755  0.3053  0.4114
10157TIP3   OH251961   6.795   1.497  14.900 -0.1009  0.3026 -0.3551
10157TIP3    H151962   6.735   1.526  14.968  1.3426 -0.9490  1.5312
10157TIP3    H251963   6.829   1.577  14.862 -0.3447  1.0326  0.9221
10158TIP3   OH251964   4.882   3.340  13.682  0.4839  0.3930 -0.3123
10158TIP3    H151965   4.912   3.418  13.635  0.7352  0.5361  0.0842
10158TIP3    H251966   4.839   3.375  13.761 -2.6893  0.3417 -1.8585
10159TIP3   OH251967   5.354   3.630  10.578 -0.0940  0.5515 -0.4169
10159TIP3    H151968   5.264   3.658  10.561 -0.2981  0.7711  0.9517
10159TIP3    H251969   5.366   3.553  10.521 -1.3732  0.1011 -0.1107
10160TIP3   OH251970   4.483   1.301  12.278  0.1570 -0.0315 -0.7022
10160TIP3    H151971   4.512   1.235  12.215 -0.0040 -0.3656 -0.4320
10160TIP3    H251972   4.397   1.328  12.246  0.7463  0.9476 -1.4940
10161TIP3   OH251973   2.174   5.233  16.592  0.4835  0.3640  0.1480
10161TIP3    H151974   2.202   5.275  16.674  0.8287 -1.1278  0.8423
10161TIP3    H251975   2.194   5.296  16.524  2.4159  0.7235  0.9858
10162TIP3   OH251976   4.093   3.298   5.692 -0.2662 -0.4021 -0.2422
10162TIP3    H151977   4.032   3.331   5.758 -0.3480 -1.0150 -0.0102
10162TIP3    H251978   4.062   3.210   5.672  1.0633 -1.0746  0.5489
10163TIP3   OH251979   3.046   1.102  13.572 -0.2038  0.6528  0.7423
10163TIP3    H151980   3.042   1.107  13.668  0.3021  3.8678  0.6941
10163TIP3    H251981   3.038   1.193  13.543  0.0519 -0.1928 -2.2864
10164TIP3   OH251982   2.785   4.216   1.819  0.1740  0.4772  0.1326
10164TIP3    H151983   2.817   4.236   1.731  0.4826  1.2130  0.4077
10164TIP3    H251984   2.822   4.131   1.839  0.4634  0.5052 -0.2765
10165TIP3   OH251985   5.357   2.305  11.250  0.0837  0.0392  0.4282
10165TIP3    H151986   5.437   2.294  11.200  0.2185  0.4315  0.5533
10165TIP3    H251987   5.295   2.344  11.189 -0.2731 -1.0184  0.0959
10166TIP3   OH251988   3.033   6.248   6.015 -0.2282 -0.2425 -0.2499
10166TIP3    H151989   2.995   6.336   6.009  0.9773  0.2162 -2.5219
10166TIP3    H251990   3.000   6.203   5.938  1.3635 -0.8321 -0.6196
10167TIP3   OH251991   3.306   2.283   2.100 -0.4421  0.1431  0.6936
10167TIP3    H151992   3.261   2.302   2.017 -1.6043  1.1439  1.5169
10167TIP3    H251993   3.371   2.352   2.109  1.8727 -1.7049 -0.8446
10168TIP3   OH251994   0.648   6.681  10.639  0.2890 -0.2892  0.5693
10168TIP3    H151995   0.615   6.666  10.551 -0.5303  0.4507  0.7375
10168TIP3    H251996   0.710   6.610  10.654  0.8833 -0.0940 -0.8171
10169TIP3   OH251997   2.730   3.077   0.898 -0.2684  0.1077  0.0586
10169TIP3    H151998   2.737   3.154   0.953  1.4371 -0.4099  0.6240
10169TIP3    H251999   2.727   3.112   0.808  2.7231  0.8459  0.1410
10170TIP3   OH252000   1.667   3.717   5.652 -0.9210 -0.0062 -0.9535
10170TIP3    H152001   1.664   3.634   5.605  0.1327 -1.3035  1.1368
10170TIP3    H252002   1.753   3.753   5.633 -0.6541 -0.3323 -0.4054
10171TIP3   OH252003   2.757   0.587   4.559  0.0662  0.2291  0.6505
10171TIP3    H152004   2.758   0.644   4.636  0.6046  3.1875 -1.3852
10171TIP3    H252005   2.841   0.601   4.517 -0.4721 -0.8008 -0.8490
10172TIP3   OH252006   0.717   2.021   3.630 -0.2921 -0.4092 -0.4620
10172TIP3    H152007   0.710   2.086   3.700 -0.4481 -0.1170 -0.7409
10172TIP3    H252008   0.627   2.000   3.608 -0.3257  1.0781 -1.9879
10173TIP3   OH252009   2.623   4.566   0.138  0.7185 -0.1689 -0.2242
10173TIP3    H152010   2.609   4.644   0.084 -1.2959 -0.2242  0.1641
10173TIP3    H252011   2.682   4.595   0.208 -0.9183  1.3476  0.5889
10174TIP3   OH252012   0.519   1.545   1.563  0.4777  0.3221  0.7911
10174TIP3    H152013   0.569   1.541   1.645  1.1968  0.8756  0.3941
10174TIP3    H252014   0.445   1.602   1.582  0.6428  0.4490  1.0535
10175TIP3   OH252015   1.980   1.476   0.810  0.0853 -0.1512 -0.5704
10175TIP3    H152016   1.959   1.422   0.885 -0.5033  0.4816 -0.2668
10175TIP3    H252017   2.045   1.539   0.842 -0.3077  0.2422 -0.5327
10176TIP3   OH252018   1.069   1.665   3.634  0.1511 -0.5754  0.2912
10176TIP3    H152019   1.028   1.751   3.637  0.7641 -0.1999 -1.2112
10176TIP3    H252020   1.163   1.683   3.628  0.1968 -1.2188 -2.2781
10177TIP3   OH252021   2.463   1.221   1.913 -0.3444 -0.7105 -0.1007
10177TIP3    H152022   2.450   1.225   1.818 -1.6390  1.5250  0.1065
10177TIP3    H252023   2.550   1.182   1.924 -0.4711 -1.7304 -2.1441
10178TIP3   OH252024   4.067   0.543  13.698  0.0916 -0.8846 -0.0989
10178TIP3    H152025   4.152   0.585  13.687 -0.1711 -0.2359  0.3171
10178TIP3    H252026   4.051   0.545  13.792 -0.8392 -0.0820 -0.2650
10179TIP3   OH252027   4.995   3.233   2.905  0.2253  0.4303  0.4252
10179TIP3    H152028   4.950   3.269   2.828  0.2265 -1.3957 -0.4666
10179TIP3    H252029   5.066   3.295   2.922 -1.0012  1.9564  0.2486
10180TIP3   OH252030   0.849   0.152   2.709 -0.5605  0.3218 -0.3987
10180TIP3    H152031   0.922   0.193   2.662 -0.3397 -0.9968 -1.2747
10180TIP3    H252032   0.849   0.061   2.678 -1.0521 -0.3407  1.4187
10181TIP3   OH252033   0.979   6.202   0.114  0.0500  0.6327  0.0786
10181TIP3    H152034   0.912   6.136   0.130  0.7707 -0.4425 -1.0874
10181TIP3    H252035   0.941   6.259   0.048  0.3776 -0.1920 -0.8544
10182TIP3   OH252036   2.264   3.209  11.686  0.0031  1.0789  0.3673
10182TIP3    H152037   2.333   3.155  11.724  0.0200  0.7202 -0.1633
10182TIP3    H252038   2.194   3.148  11.665  0.0617  1.2492 -0.3318
10183TIP3   OH252039   4.002   1.333   5.773 -0.1039  0.3211 -0.1090
10183TIP3    H152040   3.934   1.296   5.716 -0.1350 -0.8839  0.6858
10183TIP3    H252041   3.956   1.401   5.823 -0.1731  1.0929 -1.1930
10184TIP3   OH252042   0.003   4.232   0.838 -0.3179 -0.0092 -0.3798
10184TIP3    H152043   0.030   4.204   0.925 -0.2225  0.2945 -0.3092
10184TIP3    H252044   0.048   4.173   0.778 -0.2186 -0.0845 -0.2306
10185TIP3   OH252045   5.765   2.881  14.388  0.2373  0.6332 -0.0029
10185TIP3    H152046   5.831   2.931  14.340  1.8383 -1.3253  0.0304
10185TIP3    H252047   5.798   2.791  14.388 -1.4532 -0.0629  1.7597
10186TIP3   OH252048   1.895   0.059  15.342  0.2262 -0.2536  0.0125
10186TIP3    H152049   1.929  -0.029  15.325 -0.7553 -0.6150 -0.1649
10186TIP3    H252050   1.849   0.052  15.425  0.5353  0.2140  0.2288
10187TIP3   OH252051   2.119   4.626  11.755  0.4220 -0.0412  0.0334
10187TIP3    H152052   2.068   4.588  11.828 -0.6610  0.6855 -0.3253
10187TIP3    H252053   2.089   4.578  11.678  1.3271 -0.5796  0.0047
10188TIP3   OH252054   4.587   4.375   4.652  0.0794 -0.3150  0.1378
10188TIP3    H152055   4.619   4.298   4.700 -2.0488  0.1070  2.4187
10188TIP3    H252056   4.578   4.443   4.719 -3.5055  0.1795 -0.6669
10189TIP3   OH252057   5.276   0.005  16.268  0.5795 -0.0796  0.2717
10189TIP3    H152058   5.192   0.017  16.222 -0.1404 -0.2216  1.4928
10189TIP3    H252059   5.265   0.052  16.350  1.0018 -1.6269  1.2627
10190TIP3   OH252060   4.869   2.483  13.009  0.3063 -0.5354  0.5348
10190TIP3    H152061   4.938   2.445  12.954 -0.4230 -0.5480 -0.4057
10190TIP3    H252062   4.903   2.477  13.098  1.6768 -0.1856  0.0588
10191TIP3   OH252063   2.084   5.806  13.879 -0.4106  0.0564  0.1797
10191TIP3    H152064   2.039   5.741  13.826  1.3341 -0.3724 -0.8605
10191TIP3    H252065   2.121   5.868  13.816 -0.8527  1.2919  1.0807
10192TIP3   OH252066   5.724   3.540  13.605 -0.1322 -0.0012 -0.0762
10192TIP3    H152067   5.639   3.501  13.626 -1.0368  2.6298  1.5652
10192TIP3    H252068   5.704   3.606  13.539  0.6466  0.5663  0.2500
10193TIP3   OH252069   4.438   0.061   5.795 -0.3350  0.3067 -0.2579
10193TIP3    H152070   4.387   0.106   5.862 -1.0331  1.3740 -1.4639
10193TIP3    H252071   4.529   0.085   5.813 -0.4882  0.3336  0.4844
10194TIP3   OH252072   5.247   2.612   4.465 -0.1123 -0.2769 -0.5129
10194TIP3    H152073   5.326   2.567   4.434 -0.3494 -1.5103  0.5823
10194TIP3    H252074   5.255   2.612   4.560 -2.0221 -1.5774 -0.3055
10195TIP3   OH252075   0.537   3.511   1.248  0.1156 -0.2924 -0.4681
10195TIP3    H152076   0.519   3.504   1.342  0.4227  2.3690 -0.1376
10195TIP3    H252077   0.455   3.545   1.211  0.7830  1.0935 -0.7279
10196TIP3   OH252078   4.314   3.250   4.601  0.2206 -0.4091 -0.3621
10196TIP3    H152079   4.295   3.172   4.550  1.3223  1.0669 -3.2266
10196TIP3    H252080   4.410   3.252   4.608  0.1615  0.2109  0.4750
10197TIP3   OH252081   3.480   4.688   5.199 -0.0124  0.2287 -0.0990
10197TIP3    H152082   3.397   4.694   5.247  0.0819  1.1732 -0.0306
10197TIP3    H252083   3.499   4.594   5.195 -0.2539  0.0988  1.3186
10198TIP3   OH252084   3.261   0.779  11.563  0.0407 -0.3976 -0.4700
10198TIP3    H152085   3.199   0.720  11.604  1.2424 -2.3074 -1.2722
10198TIP3    H252086   3.292   0.732  11.485  1.0948  1.2668 -1.1180
10199TIP3   OH252087   2.757   5.854   3.754 -0.3587 -0.0245  0.2576
10199TIP3    H152088   2.665   5.871   3.732 -0.5697 -1.9610 -0.5299
10199TIP3    H252089   2.754   5.826   3.845 -0.4192  0.7208  0.4964
10200TIP3   OH252090   3.006   1.996   3.453 -0.1446  0.0658 -0.3055
10200TIP3    H152091   3.048   2.081   3.469 -0.5385  0.7615 -2.5724
10200TIP3    H252092   2.913   2.016   3.448 -0.0950 -0.0437 -2.9879
10201TIP3   OH252093   0.994   6.076   4.864 -0.3601  0.6968  0.2137
10201TIP3    H152094   1.035   6.084   4.778 -0.3688  0.0336  0.1432
10201TIP3    H252095   0.911   6.122   4.855 -0.4220  0.5148 -0.1775
10202TIP3   OH252096   4.640   6.281   0.677 -0.1449  0.0203 -0.2119
10202TIP3    H152097   4.728   6.269   0.714  0.2676  0.2977 -1.0874
10202TIP3    H252098   4.594   6.200   0.699  0.8287 -0.8005 -1.1194
10203TIP3   OH252099   1.791   3.031   2.129  0.3574 -0.2187  0.2482
10203TIP3    H152100   1.766   3.001   2.216 -1.0029  1.3233  0.4315
10203TIP3    H252101   1.778   3.125   2.131  0.0191 -0.1798 -1.7120
10204TIP3   OH252102   3.280   6.462  14.686 -0.2796 -0.2450  0.1001
10204TIP3    H152103   3.217   6.430  14.751 -0.1932 -0.2464  0.1838
10204TIP3    H252104   3.243   6.435  14.602 -2.3415  2.8969 -0.2105
10205TIP3   OH252105   1.026   4.972  16.917  0.0525 -0.1915 -0.3529
10205TIP3    H152106   1.085   5.032  16.871  0.0386  0.1193  0.0326
10205TIP3    H252107   1.083   4.900  16.945 -0.1720 -1.1245 -2.0863
10206TIP3   OH252108   6.305   2.094   1.767  0.0205  0.1708 -0.0356
10206TIP3    H152109   6.303   2.001   1.788  1.0822 -0.6276 -2.8933
10206TIP3    H252110   6.380   2.128   1.815 -1.6872  0.1838  2.8469
10207TIP3   OH252111   5.294   1.658   5.321 -0.4661  0.3677 -0.3494
10207TIP3    H152112   5.204   1.677   5.294 -0.3589  0.0604 -0.9488
10207TIP3    H252113   5.331   1.608   5.248 -0.6433 -1.9234  1.0092
10208TIP3   OH252114   6.754   6.082  10.450 -0.8692  0.4325  0.4503
10208TIP3    H152115   6.770   6.109  10.540 -1.7656  0.3848  0.6287
10208TIP3    H252116   6.666   6.045  10.451  0.2705 -2.6118  0.2485
10209TIP3   OH252117   1.197   0.648  16.340 -0.0684  0.0524 -0.2254
10209TIP3    H152118   1.224   0.604  16.421 -0.0440  0.6435  0.0869
10209TIP3    H252119   1.121   0.597  16.310 -0.2525  0.0018  0.3195
10210TIP3   OH252120   4.197   6.676  17.200 -0.0942 -0.0143 -0.3923
10210TIP3    H152121   4.191   6.632  17.285  0.9693 -3.8504 -2.0576
10210TIP3    H252122   4.106   6.689  17.174 -0.4486 -0.2115  0.6733
10211TIP3   OH252123   5.322   1.581  14.968  0.4007  0.2165  0.3597
10211TIP3    H152124   5.324   1.490  14.936  0.0722  0.2441  0.2533
10211TIP3    H252125   5.232   1.593  15.000  0.7115  0.2083  1.2507
10212TIP3   OH252126   4.056   6.377   3.425  1.1841 -0.5498 -0.1320
10212TIP3    H152127   4.100   6.420   3.352  1.5469  0.9586  0.9127
10212TIP3    H252128   4.112   6.396   3.501 -1.0492  1.2586  1.2147
10213TIP3   OH252129   2.127   5.139  11.540  0.5658 -0.7792  0.1664
10213TIP3    H152130   2.035   5.157  11.519  0.7231 -1.7777 -1.6620
10213TIP3    H252131   2.174   5.216  11.507  0.5964 -1.4031 -1.3399
10214TIP3   OH252132   0.843   0.366  15.057 -0.5364  0.4148  0.4945
10214TIP3    H152133   0.809   0.406  15.137  0.4490  1.5013  0.3942
10214TIP3    H252134   0.924   0.413  15.040 -0.2485 -0.4604 -0.6211
10215TIP3   OH252135   6.345   2.967   1.808 -0.0569  0.4333 -0.1827
10215TIP3    H152136   6.392   2.939   1.730 -0.1193 -0.1807 -0.0088
10215TIP3    H252137   6.414   3.000   1.866 -0.0579  1.2839 -0.6502
10216TIP3   OH252138   2.027   0.944   5.329  0.3487  0.9051 -0.1017
10216TIP3    H152139   1.983   1.012   5.278  0.1776  1.3790  0.6592
10216TIP3    H252140   2.117   0.975   5.336  0.2790  1.0441  0.2151
10217TIP3   OH252141   6.202   0.359  11.631 -0.5078  0.1692  0.4595
10217TIP3    H152142   6.180   0.360  11.724  0.3097 -0.5075  0.6759
10217TIP3    H252143   6.180   0.271  11.602  0.5488 -0.0675  0.3518
10218TIP3   OH252144   3.508   4.139  10.336 -0.0113  0.0579  0.2750
10218TIP3    H152145   3.566   4.166  10.264 -0.2662 -1.4351 -0.5298
10218TIP3    H252146   3.553   4.066  10.377 -0.0712  0.6361  1.3919
10219TIP3   OH252147   5.835   2.589  11.390 -0.0912  0.4338  0.2140
10219TIP3    H152148   5.798   2.502  11.377 -0.7395  0.2496  2.8015
10219TIP3    H252149   5.928   2.574  11.405  0.4023  0.5320 -2.3748
10220TIP3   OH252150   6.452   3.525   2.808 -0.5604  0.0198 -0.2398
10220TIP3    H152151   6.434   3.609   2.851 -1.3269 -0.2291 -0.0564
10220TIP3    H252152   6.477   3.548   2.719  0.5902  0.5174  0.1875
10221TIP3   OH252153   2.062   2.137  16.980  0.3841  0.0817  0.5522
10221TIP3    H152154   2.004   2.199  17.025  1.4729 -0.3774  2.7586
10221TIP3    H252155   2.144   2.185  16.967  0.4590 -0.1598  0.1187
10222TIP3   OH252156   3.042   2.672   5.664 -0.1576 -0.1151  0.0877
10222TIP3    H152157   3.099   2.749   5.657  0.7342 -0.8644 -1.4765
10222TIP3    H252158   3.050   2.645   5.756 -2.5346  3.1097  1.4278
10223TIP3   OH252159   6.593   4.342   0.929 -0.0563  0.0375  0.5581
10223TIP3    H152160   6.648   4.274   0.890 -3.1723 -1.9007 -0.7360
10223TIP3    H252161   6.587   4.410   0.861 -1.0648 -0.8117 -0.2218
10224TIP3   OH252162   3.720   0.272  13.415 -0.7281 -0.2331 -0.3380
10224TIP3    H152163   3.755   0.362  13.418  0.1308 -0.5062 -1.3927
10224TIP3    H252164   3.658   0.268  13.488  0.8609  0.5333  1.1266
10225TIP3   OH252165   0.476   3.580   1.888  0.3990  0.2345  0.3788
10225TIP3    H152166   0.454   3.507   1.831  1.7631 -0.2823  0.4689
10225TIP3    H252167   0.487   3.655   1.830  0.7091 -0.0395  0.0840
10226TIP3   OH252168   3.452   6.376  15.420 -0.1849 -0.4140  0.0553
10226TIP3    H152169   3.430   6.321  15.495  1.3988 -0.0726  0.8249
10226TIP3    H252170   3.543   6.354  15.400 -0.2209  0.3314 -1.0556
10227TIP3   OH252171   5.807   2.253   0.372 -0.5070 -0.2281  0.3949
10227TIP3    H152172   5.782   2.346   0.375 -0.9514 -0.2802 -0.8653
10227TIP3    H252173   5.899   2.255   0.347 -0.7248 -0.1210 -0.4462
10228TIP3   OH252174   2.610   6.240   2.655  0.0852  0.4223  0.2339
10228TIP3    H152175   2.661   6.215   2.577  1.1991  2.4227  0.2665
10228TIP3    H252176   2.660   6.311   2.694 -1.8926  1.3174  1.2515
10229TIP3   OH252177   4.574   5.209  15.289  1.3215  0.5970  0.0431
10229TIP3    H152178   4.635   5.259  15.343  1.3219 -0.1969  0.7910
10229TIP3    H252179   4.490   5.250  15.303  0.9110 -0.8594  2.3504
10230TIP3   OH252180   2.829   3.809   2.522 -0.2589 -0.1909 -0.0840
10230TIP3    H152181   2.818   3.714   2.527 -1.0457 -0.0651  1.0951
10230TIP3    H252182   2.907   3.826   2.574 -0.6362 -0.1174  0.4647
10231TIP3   OH252183   2.487   5.220   5.307 -0.4002  0.3231  0.2114
10231TIP3    H152184   2.479   5.316   5.304 -0.5159  0.3846  1.6705
10231TIP3    H252185   2.581   5.204   5.294 -0.5128  0.5617 -1.0032
10232TIP3   OH252186   6.460   4.700   3.237 -0.2313 -0.8977 -0.0477
10232TIP3    H152187   6.481   4.635   3.304 -0.8069 -0.9929  0.0483
10232TIP3    H252188   6.455   4.649   3.155 -0.2183 -0.9010 -0.0462
10233TIP3   OH252189   0.709   4.124   3.449 -0.3024 -0.4559 -0.4338
10233TIP3    H152190   0.736   4.052   3.392 -0.8935  0.5793 -2.0942
10233TIP3    H252191   0.777   4.129   3.517  1.7372 -0.2246 -2.3927
10234TIP3   OH252192   3.590   5.407   5.038  0.2377 -0.0198 -0.4466
10234TIP3    H152193   3.553   5.325   5.007  0.4480 -1.0356  1.8174
10234TIP3    H252194   3.649   5.435   4.968  0.1086 -1.7626 -1.2974
10235TIP3   OH252195   1.209   5.436  14.965 -0.0974  0.1018 -0.1154
10235TIP3    H152196   1.237   5.526  14.955  0.4930 -0.1433 -0.7336
10235TIP3    H252197   1.282   5.392  15.009  0.1047 -0.3262 -0.8664
10236TIP3   OH252198   3.848   6.175  13.119 -0.2126 -0.4564  0.4270
10236TIP3    H152199   3.909   6.112  13.080  0.8975  0.0780  1.2426
10236TIP3    H252200   3.844   6.247  13.056  0.3316 -0.3039  0.5674
10237TIP3   OH252201   1.214   4.933   0.899 -0.1389  0.0465 -0.0228
10237TIP3    H152202   1.130   4.924   0.855  0.1575 -0.8507 -0.4293
10237TIP3    H252203   1.194   4.917   0.992 -0.4282 -0.1247 -0.1133
10238TIP3   OH252204   4.447   0.038  12.847 -0.5730  0.0212  0.5616
10238TIP3    H152205   4.487   0.013  12.764  1.1621  1.4862  0.8915
10238TIP3    H252206   4.436  -0.045  12.894  1.9230 -0.5406  0.3250
10239TIP3   OH252207   5.928   2.704  11.649 -0.1819  0.4674 -0.0730
10239TIP3    H152208   5.936   2.777  11.711 -2.6283  0.1263  0.7345
10239TIP3    H252209   5.843   2.717  11.607 -0.4499 -1.6290 -0.2957
10240TIP3   OH252210   1.539   2.662   5.156  0.0001 -0.1541  0.0945
10240TIP3    H152211   1.546   2.713   5.075  2.1405 -0.9574 -0.2968
10240TIP3    H252212   1.447   2.666   5.179 -0.2600  2.1718 -1.0328
10241TIP3   OH252213   4.798   0.925  12.605  0.0385  0.4272  0.0770
10241TIP3    H152214   4.769   0.995  12.547  1.1888  0.2974 -0.6838
10241TIP3    H252215   4.893   0.931  12.605  0.1344 -0.7503  0.4640
10242TIP3   OH252216   2.773   1.970   2.192 -0.6291 -0.0609  0.3013
10242TIP3    H152217   2.834   1.921   2.137 -0.5903  0.7869 -0.4353
10242TIP3    H252218   2.815   1.974   2.278  1.5227  2.4343 -0.7186
10243TIP3   OH252219   0.798   0.681  15.149 -0.0612  0.0749  0.2078
10243TIP3    H152220   0.736   0.620  15.187  0.5283 -1.4814 -1.2344
10243TIP3    H252221   0.763   0.702  15.063  0.6041  0.4572  0.0212
10244TIP3   OH252222   0.277   6.622  11.145 -0.7912  0.1180  0.3062
10244TIP3    H152223   0.183   6.610  11.131 -0.9962 -0.0608  1.7232
10244TIP3    H252224   0.315   6.535  11.130 -0.4689  0.6524 -2.6792
10245TIP3   OH252225   3.515   4.881   5.784 -0.1540 -0.5600  0.1240
10245TIP3    H152226   3.437   4.919   5.824 -0.6863 -0.1010 -1.2915
10245TIP3    H252227   3.585   4.895   5.849 -0.9625  0.1770  0.8583
10246TIP3   OH252228   1.955   6.079   1.807  0.3059  0.1076 -0.5885
10246TIP3    H152229   2.012   6.037   1.871  1.8538 -1.0115 -2.5604
10246TIP3    H252230   1.919   6.155   1.852  3.2868  0.8014  0.8687
10247TIP3   OH252231   1.059   5.117   4.956 -0.2526  0.8747  0.0063
10247TIP3    H152232   0.994   5.072   4.902  0.2478  0.7677 -0.5164
10247TIP3    H252233   1.063   5.065   5.036  1.5268 -1.0669 -1.2192
10248TIP3   OH252234   6.774   0.268  13.670 -0.4859  0.1032  0.2433
10248TIP3    H152235   6.768   0.173  13.675  0.3340  0.0186 -0.2052
10248TIP3    H252236   6.786   0.297  13.761 -0.5893 -0.2333  0.3641
10249TIP3   OH252237   3.272   4.664  16.841  0.3407 -0.3050 -0.1423
10249TIP3    H152238   3.195   4.625  16.883 -0.2151 -0.7330 -1.4984
10249TIP3    H252239   3.285   4.611  16.763  1.9407 -0.1399 -0.0146
10250TIP3   OH252240   3.047   1.105   1.360  0.1261  0.7331  0.0418
10250TIP3    H152241   3.059   1.057   1.442 -0.1280  0.2435 -0.2037
10250TIP3    H252242   3.136   1.127   1.332  0.2860 -0.1341 -0.1588
10251TIP3   OH252243   1.559   0.662  13.736  0.5722 -0.8352 -0.4107
10251TIP3    H152244   1.647   0.698  13.723 -0.1803  0.7013 -1.6262
10251TIP3    H252245   1.528   0.644  13.647 -1.1839  0.8721 -0.1957
10252TIP3   OH252246   5.707   5.425  14.721 -0.1427  0.7358 -0.4307
10252TIP3    H152247   5.712   5.520  14.733  0.0104  0.4708  2.0858
10252TIP3    H252248   5.616   5.409  14.698 -0.7184  1.3484  1.2418
10253TIP3   OH252249   4.880   0.433  16.561  0.7310  0.0063  0.2713
10253TIP3    H152250   4.794   0.446  16.601 -0.2478  0.8681 -1.9005
10253TIP3    H252251   4.860   0.393  16.476  2.6311 -1.2083  0.3491
10254TIP3   OH252252   5.906   5.998   4.079 -0.3362 -0.2004 -0.1893
10254TIP3    H152253   5.895   6.087   4.114 -1.3144 -0.6811  0.7716
10254TIP3    H252254   5.989   5.968   4.115  0.0757  0.3546 -0.6361
10255TIP3   OH252255   0.346   0.054  16.286 -0.2082  0.0375 -0.0605
10255TIP3    H152256   0.395   0.115  16.231  0.7145 -1.4042 -0.9180
10255TIP3    H252257   0.292   0.004  16.226 -0.5400 -0.3623  0.5555
10256TIP3   OH252258   1.696   0.943  13.623 -0.5015 -0.3403  0.2613
10256TIP3    H152259   1.730   0.934  13.712  1.1831 -1.1065 -0.4057
10256TIP3    H252260   1.712   0.857  13.584 -3.1255 -0.6979 -0.1934
10257TIP3   OH252261   1.597   5.344   3.269  0.0670  0.1084 -0.1795
10257TIP3    H152262   1.521   5.388   3.231  0.8985  2.4304  0.6969
10257TIP3    H252263   1.667   5.409   3.264  1.2943 -1.0160  1.4994
10258TIP3   OH252264   6.168   0.117   1.015 -0.6240  0.3030  0.4089
10258TIP3    H152265   6.199   0.118   1.105 -1.6510  1.0290  0.7737
10258TIP3    H252266   6.206   0.197   0.976  2.4211 -1.5228 -0.7871
10259TIP3   OH252267   5.405   3.514   1.066  0.3171  0.4498 -0.2174
10259TIP3    H152268   5.316   3.518   1.030  0.9888  0.9142 -1.9064
10259TIP3    H252269   5.418   3.599   1.107 -0.3425  0.0303  0.9154
10260TIP3   OH252270   0.620   3.474   0.830  0.3454  0.3197 -0.1646
10260TIP3    H152271   0.622   3.569   0.839 -0.8159  0.1936  2.3295
10260TIP3    H252272   0.709   3.450   0.804  0.2301  2.1457 -2.5838
10261TIP3   OH252273   0.970   5.243   0.326 -0.2362 -0.5395  0.2371
10261TIP3    H152274   0.970   5.319   0.384 -2.7186  0.4080 -0.8650
10261TIP3    H252275   1.054   5.246   0.282 -0.2903  1.6096  0.1998
10262TIP3   OH252276   0.079   6.680   4.244 -0.4727 -0.2329 -0.4022
10262TIP3    H152277   0.133   6.728   4.308 -1.6515  1.0445 -0.3246
10262TIP3    H252278   0.129   6.685   4.163  0.2659 -0.4403  0.0257
10263TIP3   OH252279   0.194   6.109  12.590 -0.3840 -0.1679  0.4258
10263TIP3    H152280   0.196   6.198  12.554 -0.2882 -0.6216 -0.7360
10263TIP3    H252281   0.266   6.064  12.546 -0.8185 -0.9880  0.5352
10264TIP3   OH252282   1.339   6.098  12.508  0.1325 -0.1014  0.4310
10264TIP3    H152283   1.284   6.171  12.536  0.7446  0.3373  0.5127
10264TIP3    H252284   1.372   6.124  12.422 -0.3342 -0.6648  0.0742
10265TIP3   OH252285   6.143   0.059  12.785 -0.1759 -0.1957 -0.0622
10265TIP3    H152286   6.087  -0.014  12.757  0.1724  0.3535 -2.3855
10265TIP3    H252287   6.087   0.136  12.776 -0.0142  0.0192  0.7257
10266TIP3   OH252288   0.775   2.797   0.243 -0.1558 -0.5317  0.2493
10266TIP3    H152289   0.860   2.820   0.204  0.1483 -0.3685  0.9934
10266TIP3    H252290   0.711   2.840   0.187  0.2670 -0.4076 -0.1478
10267TIP3   OH252291   1.799   6.300  14.910 -0.2662  0.3275  0.4258
10267TIP3    H152292   1.882   6.303  14.862  0.0820 -3.6867  0.4744
10267TIP3    H252293   1.821   6.326  14.999  1.7188 -3.3326  1.1607
10268TIP3   OH252294   2.678   6.087  16.046 -0.2580 -0.1107  0.1464
10268TIP3    H152295   2.767   6.066  16.016  0.6127  1.8948  1.1795
10268TIP3    H252296   2.673   6.049  16.134 -0.3763 -0.1060  0.1420
10269TIP3   OH252297   3.337   0.789   3.873 -0.3599  0.4462 -0.3281
10269TIP3    H152298   3.245   0.771   3.853 -0.2235 -0.2554 -0.3444
10269TIP3    H252299   3.386   0.724   3.823  0.0775 -0.1359  0.8100
10270TIP3   OH252300   3.644   2.950  10.790 -0.5239  0.1523  0.4471
10270TIP3    H152301   3.711   2.886  10.814  2.2290  2.6035 -0.1949
10270TIP3    H252302   3.628   2.934  10.697  0.2690  0.4669  0.2516
10271TIP3   OH252303   0.962   0.026   2.184 -0.1679  0.9603 -0.0182
10271TIP3    H152304   1.026   0.077   2.134  0.7027 -0.3356 -0.2791
10271TIP3    H252305   1.014  -0.022   2.248 -0.8992  0.0130 -0.1124
10272TIP3   OH252306   1.278   0.435   3.194 -0.1143  0.3889 -1.2292
10272TIP3    H152307   1.317   0.376   3.130 -0.1226 -0.5332 -0.4165
10272TIP3    H252308   1.202   0.472   3.149 -0.2806 -0.4573 -1.6668
10273TIP3   OH252309   6.548   3.915   6.722  0.6842 -0.0912  0.0926
10273TIP3    H152310   6.474   3.888   6.667  1.1568  0.4092 -0.8192
10273TIP3    H252311   6.534   3.870   6.805 -1.2439  0.8504  0.3445
10274TIP3   OH252312   1.270   3.575   2.247  0.7141 -0.2193  0.1367
10274TIP3    H152313   1.200   3.640   2.254  2.5405  1.7759  0.7583
10274TIP3    H252314   1.248   3.525   2.169  0.1456  2.3411 -1.4610
10275TIP3   OH252315   1.551   3.402  14.360 -0.0455 -0.6798 -0.4782
10275TIP3    H152316   1.645   3.394  14.343 -0.0869 -0.6254 -0.7376
10275TIP3    H252317   1.540   3.370  14.449  0.2636 -0.4178 -0.3433
10276TIP3   OH252318   0.921   0.256   0.186 -0.5469 -0.0279 -0.3699
10276TIP3    H152319   0.881   0.176   0.218 -1.0632 -0.0800 -1.1266
10276TIP3    H252320   0.996   0.271   0.244 -0.4819 -1.0255 -0.1887
10277TIP3   OH252321   5.503   4.949   1.365 -0.1042  0.9862  0.4441
10277TIP3    H152322   5.420   4.996   1.369 -1.0591 -0.3577 -1.6716
10277TIP3    H252323   5.520   4.939   1.271  2.2728  0.8789  0.8286
10278TIP3   OH252324   2.667   5.518  12.258 -0.0956  0.2541  0.0227
10278TIP3    H152325   2.713   5.589  12.303 -0.6460  0.4992  0.2053
10278TIP3    H252326   2.656   5.450  12.325 -1.5749  0.9176  0.4890
10279TIP3   OH252327   1.702   5.089  13.141 -0.3182  0.1885 -0.2194
10279TIP3    H152328   1.624   5.135  13.110 -0.6194  0.0671  0.3412
10279TIP3    H252329   1.775   5.145  13.117 -0.7910  2.0316  2.2454
10280TIP3   OH252330   4.250   3.699   1.643 -1.0092  0.1901  0.2977
10280TIP3    H152331   4.164   3.734   1.618 -1.6333 -0.7899  1.0105
10280TIP3    H252332   4.302   3.705   1.563 -1.6606  1.0291 -0.0842
10281TIP3   OH252333   4.999   6.517  10.907 -0.6211 -0.1749  0.1597
10281TIP3    H152334   5.065   6.448  10.897 -0.6853 -0.2885  0.5341
10281TIP3    H252335   4.943   6.507  10.830  0.0588  0.2096 -0.4003
10282TIP3   OH252336   6.666   5.088   2.192 -0.4248 -0.2405 -0.0304
10282TIP3    H152337   6.696   5.122   2.276  0.1428  1.7864 -0.9946
10282TIP3    H252338   6.682   4.994   2.197 -0.8324 -0.2443  2.2796
10283TIP3   OH252339   6.189   6.647  11.679  0.5734  0.2070  0.2043
10283TIP3    H152340   6.189   6.656  11.774  3.2330  0.2753  0.2640
10283TIP3    H252341   6.274   6.682  11.651  0.1479 -0.4365 -2.1368
10284TIP3   OH252342   2.400   1.101   2.569 -0.2363 -0.1640 -0.6684
10284TIP3    H152343   2.477   1.118   2.624 -1.5589  1.1861  0.8771
10284TIP3    H252344   2.418   1.146   2.487 -0.0728  1.6925  0.3259
10285TIP3   OH252345   5.519   3.129  14.170  0.1210  0.1702  0.3092
10285TIP3    H152346   5.490   3.140  14.261 -2.2028 -0.2644 -0.3073
10285TIP3    H252347   5.504   3.037  14.151  2.3734 -0.1874 -0.0012
10286TIP3   OH252348   6.497   1.438   2.093 -0.2545 -0.0629  0.4152
10286TIP3    H152349   6.410   1.475   2.086 -0.7048 -1.0208  0.8144
10286TIP3    H252350   6.556   1.511   2.072 -1.1278  0.6697  0.4563
10287TIP3   OH252351   3.365   0.685   6.321  0.5737 -0.0525  0.1421
10287TIP3    H152352   3.417   0.764   6.307  0.5956 -0.3673 -1.7069
10287TIP3    H252353   3.338   0.691   6.413  3.0860  0.5619  0.9204
10288TIP3   OH252354   1.471   0.499  12.545  1.1899  0.0682  0.4552
10288TIP3    H152355   1.517   0.467  12.467  1.5270 -1.0436  1.0955
10288TIP3    H252356   1.399   0.438  12.557  0.6933  0.6719  0.5924
10289TIP3   OH252357   1.828   1.170   4.494  0.0846  0.4497  0.1535
10289TIP3    H152358   1.771   1.179   4.570 -1.4048 -0.4719 -0.8056
10289TIP3    H252359   1.864   1.258   4.480 -0.3227  0.8285  1.3696
10290TIP3   OH252360   5.560   1.020  17.191  0.0342 -0.0475 -0.0722
10290TIP3    H152361   5.582   1.107  17.225  0.3238 -0.0244 -0.3156
10290TIP3    H252362   5.516   1.037  17.108 -0.6572 -0.1052  0.2748
10291TIP3   OH252363   4.270   0.651   2.042 -0.7270 -0.6655 -0.7393
10291TIP3    H152364   4.347   0.632   1.988 -1.4510 -1.0530 -1.6660
10291TIP3    H252365   4.260   0.573   2.098 -0.3458 -0.5342 -0.4844
10292TIP3   OH252366   3.773   0.010   4.593  0.1660 -0.2892 -0.1045
10292TIP3    H152367   3.867   0.029   4.591  0.5755 -2.2083 -1.6573
10292TIP3    H252368   3.737   0.060   4.520  0.0786 -0.0623  0.0925
10293TIP3   OH252369   3.691   4.408   2.932 -0.2368 -0.2503 -0.6566
10293TIP3    H152370   3.764   4.465   2.907  0.8675 -0.0252  2.7082
10293TIP3    H252371   3.671   4.358   2.852  0.9471  2.4304 -2.7751
10294TIP3   OH252372   0.879   6.490   1.074 -0.5153 -0.3517 -0.0200
10294TIP3    H152373   0.833   6.513   1.155 -2.8009 -1.3844 -0.9518
10294TIP3    H252374   0.943   6.560   1.062 -1.4375  0.8453  1.6672
10295TIP3   OH252375   0.563   4.296  12.915 -0.2756 -0.1328 -0.0410
10295TIP3    H152376   0.634   4.341  12.869 -1.7337  0.9943 -1.2630
10295TIP3    H252377   0.504   4.366  12.942 -1.6852 -1.1672 -0.3658
10296TIP3   OH252378   3.458   4.031  15.638 -0.5593 -0.0686 -0.2631
10296TIP3    H152379   3.370   4.005  15.611 -0.5978 -1.2037  0.8349
10296TIP3    H252380   3.467   3.995  15.726  1.2411 -0.5577 -0.5991
10297TIP3   OH252381   3.621   2.274  10.975 -0.0174  0.1961  0.9114
10297TIP3    H152382   3.636   2.341  11.042 -1.3453  0.8621  0.5501
10297TIP3    H252383   3.693   2.211  10.989  0.9630  1.4110  1.5724
10298TIP3   OH252384   4.438   4.875   4.180  0.0447  0.1263  0.1245
10298TIP3    H152385   4.372   4.854   4.246 -0.1994  0.8805  0.1348
10298TIP3    H252386   4.390   4.875   4.097  0.7225 -2.7649 -0.3705
10299TIP3   OH252387   0.683   4.595  17.040  0.1049  0.5858 -0.3344
10299TIP3    H152388   0.689   4.516  16.986  0.3545 -0.0920  0.6719
10299TIP3    H252389   0.596   4.630  17.021  0.3071  0.5307 -1.4113
10300TIP3   OH252390   1.531   3.206   0.890  0.0288  0.2036 -0.4323
10300TIP3    H152391   1.572   3.195   0.804 -0.1896  0.1426 -0.5313
10300TIP3    H252392   1.593   3.166   0.951  0.1214  0.1227 -0.5776
10301TIP3   OH252393   4.914   3.917  16.514  0.3500 -0.5148  0.8288
10301TIP3    H152394   4.904   3.973  16.591 -2.4567  0.5594 -0.1944
10301TIP3    H252395   4.825   3.899  16.485  1.2783 -0.7944 -2.2257
10302TIP3   OH252396   4.039   5.985   3.376 -0.9230  0.1070  0.1326
10302TIP3    H152397   3.980   6.034   3.434 -0.1770 -0.4781  1.4371
10302TIP3    H252398   4.018   5.893   3.392 -0.6139 -0.0636 -0.4241
10303TIP3   OH252399   1.085   5.920  12.061 -0.1791  0.1766  0.4177
10303TIP3    H152400   1.049   5.992  12.113 -0.3764 -0.9127  1.8761
10303TIP3    H252401   1.023   5.909  11.989  0.2183  1.8776 -0.2246
10304TIP3   OH252402   6.239   1.525  16.856  0.1056  0.3762  0.1574
10304TIP3    H152403   6.208   1.494  16.771 -1.0410 -2.2172  1.4175
10304TIP3    H252404   6.334   1.526  16.848  0.0166  2.5729 -1.8528
10305TIP3   OH252405   1.606   0.306   1.198  0.6653 -0.1870 -0.0016
10305TIP3    H152406   1.610   0.285   1.291  0.6645 -0.7305 -0.1165
10305TIP3    H252407   1.691   0.278   1.163  0.5542 -0.2649 -0.2141
10306TIP3   OH252408   5.286   0.772  14.640 -0.1738 -0.5314  0.1586
10306TIP3    H152409   5.293   0.803  14.550 -0.4283 -1.2816 -0.1232
10306TIP3    H252410   5.374   0.786  14.676  0.0518 -0.6438 -0.3377
10307TIP3   OH252411   5.006   1.995  14.257 -0.9751 -0.1631  0.1087
10307TIP3    H152412   5.024   2.081  14.295  1.1645  0.0003 -1.0726
10307TIP3    H252413   5.086   1.944  14.272 -0.5727 -0.5691 -2.6818
10308TIP3   OH252414   5.013   4.362   0.202  0.3214 -0.1632  0.1339
10308TIP3    H152415   4.928   4.356   0.158  0.5779 -0.0252 -0.3831
10308TIP3    H252416   5.077   4.357   0.131  0.7252  3.3779  0.0860
10309TIP3   OH252417   4.285   3.006  14.434  0.7488  0.2245 -0.1512
10309TIP3    H152418   4.367   2.962  14.457  0.1766 -0.3669  0.7860
10309TIP3    H252419   4.220   2.936  14.432  0.1454  0.7816 -0.3094
10310TIP3   OH252420   1.122   1.213   4.068 -0.0401 -0.3108 -0.5211
10310TIP3    H152421   1.179   1.256   4.132  1.3056 -0.7965 -1.3540
10310TIP3    H252422   1.041   1.264   4.070 -0.2995 -0.6827  2.0023
10311TIP3   OH252423   1.417   5.635  14.898  0.1360  0.4591  0.3600
10311TIP3    H152424   1.435   5.656  14.990  1.6561  2.0372 -0.2424
10311TIP3    H252425   1.500   5.649  14.853 -0.5438 -0.4033 -1.2595
10312TIP3   OH252426   4.135   0.834  15.698 -0.1184 -0.5074  0.0300
10312TIP3    H152427   4.120   0.915  15.748  0.4416 -0.8496  0.7677
10312TIP3    H252428   4.083   0.768  15.743  1.6087 -1.1675  1.1621
10313TIP3   OH252429   2.659   5.653  15.614 -0.3910 -0.6027  0.0431
10313TIP3    H152430   2.579   5.706  15.610  0.0691  0.0336 -1.8284
10313TIP3    H252431   2.713   5.686  15.542  0.9652 -1.9708  0.3864
10314TIP3   OH252432   3.746   6.314   3.225 -0.2795 -0.0239 -0.9073
10314TIP3    H152433   3.717   6.228   3.195  0.3928 -0.2799 -0.8242
10314TIP3    H252434   3.778   6.300   3.314  0.3287  0.2111 -1.0839
10315TIP3   OH252435   4.487   1.139   2.966  0.3326 -0.1586 -0.1276
10315TIP3    H152436   4.398   1.112   2.943 -0.3233  0.7143  1.2091
10315TIP3    H252437   4.529   1.159   2.883 -1.0422  0.3168 -0.7327
10316TIP3   OH252438   2.055   6.278  12.829  0.4440  0.0856 -0.3025
10316TIP3    H152439   2.084   6.305  12.916  1.3911 -0.6827 -0.3636
10316TIP3    H252440   2.054   6.182  12.832  2.3712 -0.0353 -1.6893
10317TIP3   OH252441   3.459   1.526   0.453 -0.4324 -0.1276 -0.4433
10317TIP3    H152442   3.438   1.448   0.504  0.9338  0.4501  1.0509
10317TIP3    H252443   3.412   1.597   0.497  0.2703  0.2807 -0.3441
10318TIP3   OH252444   2.237   0.796  12.568 -0.7738 -0.4170 -0.3454
10318TIP3    H152445   2.190   0.801  12.485 -1.7261  0.6154  0.2240
10318TIP3    H252446   2.176   0.752  12.628 -1.1387  1.1081  0.4579
10319TIP3   OH252447   4.979   3.183  14.065 -0.0466  0.8518 -0.1467
10319TIP3    H152448   4.938   3.188  14.151  1.0311 -0.0381  0.4305
10319TIP3    H252449   5.072   3.196  14.081  0.1439  0.9122 -1.2134
10320TIP3   OH252450   3.552   1.165   2.977 -0.0877 -0.2880 -0.1144
10320TIP3    H152451   3.521   1.205   3.058 -2.2703 -0.1402 -0.9254
10320TIP3    H252452   3.493   1.200   2.910 -0.2946 -2.6550 -1.2842
10321TIP3   OH252453   2.899   6.094   5.803  0.4442 -0.5305  0.1852
10321TIP3    H152454   2.854   6.025   5.754 -0.9552 -0.2236  1.0014
10321TIP3    H252455   2.913   6.163   5.739 -1.1784 -0.2176  0.1425
10322TIP3   OH252456   4.895   4.704   5.494  0.1048  0.1367 -0.2913
10322TIP3    H152457   4.935   4.785   5.526  0.2045  0.2165 -0.6097
10322TIP3    H252458   4.887   4.718   5.399  0.5665 -0.4199 -0.4142
10323TIP3   OH252459   2.182   3.824   2.410 -0.1182 -0.1624 -0.2026
10323TIP3    H152460   2.131   3.844   2.332 -1.9921 -0.2311  0.9385
10323TIP3    H252461   2.169   3.900   2.467  2.4396  0.5756 -0.4829
10324TIP3   OH252462   0.292   4.894  15.009 -0.2290 -0.7106  0.6805
10324TIP3    H152463   0.264   4.847  14.930  0.5050  1.7401 -1.1982
10324TIP3    H252464   0.222   4.957  15.026  0.7209  0.4881  0.3765
10325TIP3   OH252465   0.101   4.398  15.199  0.2453  0.2974  0.2650
10325TIP3    H152466   0.079   4.371  15.288 -1.6417 -1.0940 -0.5689
10325TIP3    H252467   0.193   4.371  15.188 -0.5747 -3.0530  0.5921
10326TIP3   OH252468   2.272   0.493  15.206  0.1406 -0.2709  0.3163
10326TIP3    H152469   2.204   0.460  15.265  0.5298 -1.3474  0.1810
10326TIP3    H252470   2.243   0.468  15.118  1.2910 -1.8718  0.3476
10327TIP3   OH252471   3.335   2.046   0.613 -0.2005 -0.1326 -0.0162
10327TIP3    H152472   3.261   2.060   0.671  0.5827 -0.9939  1.2296
10327TIP3    H252473   3.313   2.095   0.534 -1.0795  1.4898  1.1719
10328TIP3   OH252474   3.210   0.864  13.455  0.1131  0.5614  0.2683
10328TIP3    H152475   3.147   0.935  13.454  0.2801  0.7018 -0.4911
10328TIP3    H252476   3.158   0.786  13.472 -0.0103  0.9067  1.5783
10329TIP3   OH252477   0.927   6.147   5.214 -0.4147  0.1372  0.1066
10329TIP3    H152478   0.978   6.089   5.270 -1.5782 -0.9738  0.0770
10329TIP3    H252479   0.846   6.163   5.264  0.8441  3.8563  1.2732
10330TIP3   OH252480   0.577   0.120   5.620 -0.6379 -0.4772 -0.2009
10330TIP3    H152481   0.508   0.186   5.627 -0.7346 -0.7003  1.5829
10330TIP3    H252482   0.567   0.067   5.699  1.3374 -0.7514 -0.0780
10331TIP3   OH252483   4.064   0.462  16.469 -0.3138  0.1008 -0.8823
10331TIP3    H152484   3.994   0.515  16.508 -0.0442  1.3189 -1.9584
10331TIP3    H252485   4.033   0.445  16.380 -0.1864 -1.1947 -0.6924
10332TIP3   OH252486   5.287   0.107  14.122  0.2022 -0.0946 -0.5205
10332TIP3    H152487   5.236   0.164  14.064  0.0306 -1.8200 -2.1948
10332TIP3    H252488   5.266   0.018  14.092 -0.1923 -1.1380  2.4868
10333TIP3   OH252489   6.503   3.531  15.891  0.1412  0.1574 -0.0939
10333TIP3    H152490   6.592   3.566  15.885  0.3057 -0.3747 -1.0298
10333TIP3    H252491   6.462   3.557  15.808 -0.3866 -0.0832  0.0901
10334TIP3   OH252492   2.326   1.515  10.440 -0.1679  0.3536  0.3038
10334TIP3    H152493   2.313   1.609  10.423 -0.0485  0.0786 -1.4396
10334TIP3    H252494   2.415   1.509  10.473  0.4835  0.6936 -1.3020
10335TIP3   OH252495   1.032   0.659  16.625  0.4075  0.3893 -0.3632
10335TIP3    H152496   1.055   0.575  16.665  0.2771 -0.4482 -1.9657
10335TIP3    H252497   0.941   0.648  16.597  0.1830  1.3065 -0.0302
10336TIP3   OH252498   1.252   6.788  12.864 -0.4502  0.1889  0.5555
10336TIP3    H152499   1.191   6.724  12.827 -1.7254  0.7408  1.6280
10336TIP3    H252500   1.248   6.862  12.804 -1.5828  0.5969  1.1000
10337TIP3   OH252501   3.152   4.983   4.916 -0.5639 -0.0730 -0.4500
10337TIP3    H152502   3.197   5.031   4.847  0.4576 -0.1143  0.1729
10337TIP3    H252503   3.165   4.891   4.894  0.6103 -0.1077  0.2990
10338TIP3   OH252504   1.294   5.424   3.768  0.5087 -0.3038  0.1591
10338TIP3    H152505   1.307   5.352   3.830  1.8949  1.8727  2.6218
10338TIP3    H252506   1.199   5.431   3.759  0.3387 -2.8187 -0.7507
10339TIP3   OH252507   5.646   6.765  15.468 -0.3704 -0.0483 -0.1869
10339TIP3    H152508   5.596   6.684  15.465 -0.3909 -0.0702  0.5671
10339TIP3    H252509   5.735   6.737  15.489 -0.5854  0.2010  1.0992
10340TIP3   OH252510   1.696   4.127  13.923  0.2753  0.1594 -0.2843
10340TIP3    H152511   1.785   4.111  13.890 -0.0719  1.7305 -2.1647
10340TIP3    H252512   1.672   4.046  13.967  1.6864 -1.2750 -1.9716
10341TIP3   OH252513   4.603   4.751   4.464 -0.3728 -0.3304 -0.2630
10341TIP3    H152514   4.687   4.787   4.492 -0.0744  1.6337 -3.2184
10341TIP3    H252515   4.546   4.827   4.453 -2.6337 -1.6243  1.6718
10342TIP3   OH252516   3.023   3.061  14.600  0.1095  0.5238  0.2938
10342TIP3    H152517   2.996   3.015  14.680  0.1121  0.1696  0.0935
10342TIP3    H252518   2.996   3.003  14.529 -0.8708  1.3375 -0.0164
10343TIP3   OH252519   4.233   0.868   0.001  0.1000 -0.1864 -0.0558
10343TIP3    H152520   4.185   0.882  -0.081 -0.6487 -0.8309  0.2596
10343TIP3    H252521   4.170   0.824   0.058  0.2320  1.2810  1.2808
10344TIP3   OH252522   2.297   4.366  11.806 -0.1047 -0.3772  0.4034
10344TIP3    H152523   2.233   4.298  11.786 -0.5905 -0.0457  0.8084
10344TIP3    H252524   2.254   4.423  11.869 -0.6463  1.6949 -1.6590
10345TIP3   OH252525   3.468   3.656   5.016  0.2661 -0.1719  0.5156
10345TIP3    H152526   3.495   3.626   5.103  2.1047  0.8928  0.3689
10345TIP3    H252527   3.376   3.678   5.026  0.5920  0.5527  2.3900
10346TIP3   OH252528   2.628   4.738  14.131  0.1403 -0.3449  0.1921
10346TIP3    H152529   2.674   4.666  14.174  1.0575  0.5545  0.7567
10346TIP3    H252530   2.697   4.788  14.087 -0.2896  0.9647  0.9582
10347TIP3   OH252531   1.714   3.259   2.387 -0.5518 -0.5395 -0.3394
10347TIP3    H152532   1.636   3.301   2.423 -2.1791 -2.2403 -1.7153
10347TIP3    H252533   1.709   3.275   2.293  0.9813 -0.3629 -0.4201
10348TIP3   OH252534   0.919   4.197   0.447  0.0225  0.2908 -0.3988
10348TIP3    H152535   0.879   4.154   0.523  0.7434 -0.6818 -0.5493
10348TIP3    H252536   0.892   4.288   0.454  2.5863  1.0019  2.8026
10349TIP3   OH252537   4.276   1.798   3.037 -0.0258  0.4541 -0.3535
10349TIP3    H152538   4.307   1.713   3.004  1.7085  1.4497 -1.4418
10349TIP3    H252539   4.324   1.810   3.119 -0.3885  0.3280 -0.1202
10350TIP3   OH252540   1.298   6.133   2.044  0.0873  0.5323 -0.4183
10350TIP3    H152541   1.207   6.158   2.060  0.1763  1.1906 -0.9069
10350TIP3    H252542   1.319   6.172   1.959  1.0644  1.0330  0.0430
10351TIP3   OH252543   3.055   0.263   2.288  0.0027 -0.2544 -0.3937
10351TIP3    H152544   3.096   0.184   2.324  1.4527 -0.2332 -1.8549
10351TIP3    H252545   3.093   0.271   2.200 -0.8632  1.5238 -0.6439
10352TIP3   OH252546   1.001   3.818   3.162  0.4475 -0.0651  0.2609
10352TIP3    H152547   1.014   3.819   3.256  2.9400 -2.2668  0.0618
10352TIP3    H252548   1.042   3.736   3.133 -1.2179 -0.0147 -2.6125
10353TIP3   OH252549   1.858   4.682   4.247 -0.4546  0.2752 -0.4975
10353TIP3    H152550   1.929   4.721   4.298 -0.6958 -1.6406  1.4900
10353TIP3    H252551   1.779   4.721   4.283 -0.5114  0.7416 -1.1316
10354TIP3   OH252552   6.692   6.804  15.331 -0.9132 -0.5575 -0.1425
10354TIP3    H152553   6.741   6.866  15.385 -2.7967  0.7381  0.1735
10354TIP3    H252554   6.609   6.794  15.376 -1.7663 -1.0206 -1.7470
10355TIP3   OH252555   4.073   0.385  17.163  0.8028 -0.3891  0.5902
10355TIP3    H152556   4.083   0.427  17.077 -1.1790 -0.8773  0.0617
10355TIP3    H252557   4.139   0.426  17.218  0.4816  1.7391 -0.5248
10356TIP3   OH252558   4.958   6.313   5.346 -0.1398  0.0677  0.4312
10356TIP3    H152559   4.962   6.286   5.254 -0.3941 -0.7608  0.6534
10356TIP3    H252560   5.031   6.374   5.356 -1.1160  1.4889 -0.7378
10357TIP3   OH252561   5.052   2.413   3.483 -0.2773 -0.5074  0.3361
10357TIP3    H152562   4.963   2.442   3.461 -1.0565 -1.1427  2.4610
10357TIP3    H252563   5.083   2.371   3.403 -1.3803  0.8597 -0.8685
10358TIP3   OH252564   1.876   2.850   4.018 -0.7761 -0.3677 -0.5515
10358TIP3    H152565   1.833   2.848   3.932  1.6918  2.1495 -2.0301
10358TIP3    H252566   1.952   2.907   4.005  0.6447 -1.2147  2.9314
10359TIP3   OH252567   4.873   3.326   0.857  0.8189  0.0136 -0.2119
10359TIP3    H152568   4.906   3.396   0.913 -0.0037 -0.2817  0.6676
10359TIP3    H252569   4.786   3.356   0.829 -0.3465 -1.4042  1.6671
10360TIP3   OH252570   2.509   0.692  14.278 -0.0050 -0.2211 -0.3269
10360TIP3    H152571   2.474   0.645  14.354  0.6647  1.5605  1.1749
10360TIP3    H252572   2.588   0.644  14.254  1.0421  0.3965  1.6096
10361TIP3   OH252573   1.223   5.730   1.781  0.7947  0.0237  0.4082
10361TIP3    H152574   1.247   5.755   1.870 -0.3048  1.4029  0.3567
10361TIP3    H252575   1.305   5.734   1.732  1.1060  1.0520  0.9834
10362TIP3   OH252576   3.193   4.738  13.946 -0.1362  0.3545 -0.6462
10362TIP3    H152577   3.214   4.802  14.014 -0.2330  0.0900 -0.3603
10362TIP3    H252578   3.214   4.653  13.986 -1.4922  0.0932 -0.4305
10363TIP3   OH252579   2.372   2.646  12.490 -0.6734 -0.4362 -0.6140
10363TIP3    H152580   2.436   2.717  12.499 -1.6249  0.6085 -1.6358
10363TIP3    H252581   2.418   2.568  12.522  0.0123  0.8104  1.6496
10364TIP3   OH252582   3.770   5.841  10.074 -0.1186 -0.9057 -0.1928
10364TIP3    H152583   3.718   5.895  10.013  1.3160 -0.6492 -1.2257
10364TIP3    H252584   3.731   5.754  10.067 -0.8168 -0.5850 -0.4660
10365TIP3   OH252585   4.955   2.892   0.966  0.2293  0.1587  0.7856
10365TIP3    H152586   4.985   2.963   0.908 -0.3871 -1.5220 -1.7815
10365TIP3    H252587   4.860   2.902   0.969  0.1786 -0.3019  0.7376
10366TIP3   OH252588   1.941   6.110  15.301 -0.1424 -0.5932 -0.2485
10366TIP3    H152589   1.858   6.063  15.315  1.3720 -2.8405  2.1221
10366TIP3    H252590   1.983   6.062  15.229  0.0534 -0.8918  0.0629
10367TIP3   OH252591   4.031   0.134   2.150  0.5721  0.0013  0.0028
10367TIP3    H152592   3.952   0.148   2.098 -0.3134 -1.0100  1.0281
10367TIP3    H252593   4.020   0.189   2.227 -0.1392 -1.6526  1.1428
10368TIP3   OH252594   6.096   6.255   0.988 -0.2924 -0.1278 -0.2916
10368TIP3    H152595   6.078   6.337   0.943  0.3374  1.3399  1.9711
10368TIP3    H252596   6.076   6.187   0.924 -3.7487  1.6556 -1.3161
10369TIP3   OH252597   4.041   3.691  15.886 -0.2189 -0.2918  0.2785
10369TIP3    H152598   4.074   3.613  15.842 -0.7607  0.4778 -1.5997
10369TIP3    H252599   3.947   3.674  15.895 -0.4598  0.3717 -0.7506
10370TIP3   OH252600   6.195   0.299  12.950  0.7118 -0.0580 -0.0821
10370TIP3    H152601   6.190   0.238  12.876  0.2988  0.7714 -0.7579
10370TIP3    H252602   6.118   0.355  12.940 -0.6684 -1.3544  2.2999
10371TIP3   OH252603   2.465   2.658   1.013  0.2163 -0.2540 -0.2266
10371TIP3    H152604   2.428   2.604   1.082  2.0093  0.4367  1.3801
10371TIP3    H252605   2.458   2.748   1.046 -0.1508  0.2487 -1.5861
10372TIP3   OH252606   1.602   1.565  13.808  0.2760  0.1236 -0.0164
10372TIP3    H152607   1.659   1.520  13.871 -1.0775 -0.3019  0.9409
10372TIP3    H252608   1.655   1.570  13.728  1.4124 -0.8402  0.6400
10373TIP3   OH252609   0.934   4.368  15.081 -0.2068  0.7590 -0.4105
10373TIP3    H152610   1.021   4.356  15.119 -0.5150 -0.5153 -0.0726
10373TIP3    H252611   0.877   4.308  15.130 -1.3857  1.9286 -0.2828
10374TIP3   OH252612   1.488   3.605  14.611  0.3436 -0.0691 -0.2540
10374TIP3    H152613   1.493   3.514  14.641  0.6058 -0.2219 -0.7386
10374TIP3    H252614   1.564   3.614  14.553  0.7524  0.6844  0.3792
10375TIP3   OH252615   5.736   0.734   0.319 -0.5952  0.0371  0.2852
10375TIP3    H152616   5.777   0.810   0.360  4.2299 -1.8591 -0.4318
10375TIP3    H252617   5.740   0.753   0.225  0.1231 -0.8170  0.1323
10376TIP3   OH252618   0.642   0.121  10.723  0.2869  0.1673 -0.1186
10376TIP3    H152619   0.618   0.042  10.676 -1.8660  0.3729  0.5290
10376TIP3    H252620   0.714   0.158  10.672  2.1183 -2.7364  0.1894
10377TIP3   OH252621   4.209   6.647   4.066 -0.6019 -0.2243 -0.6197
10377TIP3    H152622   4.146   6.632   4.137  0.3400 -1.1861  0.0530
10377TIP3    H252623   4.160   6.695   4.000 -1.4552  0.9103  0.7799
10378TIP3   OH252624   4.474   3.053   3.975  0.0957 -0.4285 -0.2610
10378TIP3    H152625   4.423   2.982   4.015  0.0314  0.7663  1.9490
10378TIP3    H252626   4.410   3.122   3.960  0.7352  0.4900  1.0467
10379TIP3   OH252627   2.658   5.570   3.688 -0.0719  0.1217 -0.4088
10379TIP3    H152628   2.737   5.529   3.655 -0.3890  0.3099 -1.4285
10379TIP3    H252629   2.645   5.647   3.632 -2.1706 -1.0767 -1.7289
10380TIP3   OH252630   0.807   0.513  15.755  0.0968 -0.1215  0.2401
10380TIP3    H152631   0.797   0.428  15.796 -0.8031  0.9836  2.4825
10380TIP3    H252632   0.801   0.495  15.661  0.9967 -2.6159  0.5882
10381TIP3   OH252633   0.952   5.807  13.689  0.4040  0.1360 -0.5022
10381TIP3    H152634   1.044   5.827  13.705  0.0764  0.5778  0.8929
10381TIP3    H252635   0.913   5.890  13.663 -0.2140  0.6504  1.8760
10382TIP3   OH252636   0.996   4.742  12.009  0.1043  0.5937 -0.0041
10382TIP3    H152637   0.978   4.673  11.944 -0.7250 -0.3805  1.2235
10382TIP3    H252638   0.926   4.806  11.997 -0.4254  0.0910  0.3440
10383TIP3   OH252639   5.549   6.474   0.107 -0.4444 -0.0155  0.5749
10383TIP3    H152640   5.594   6.423   0.040  0.1638  1.5601 -0.2563
10383TIP3    H252641   5.565   6.424   0.188  2.1345  0.0201  0.1882
10384TIP3   OH252642   0.482   3.120  13.192  0.2939  0.3144 -0.3478
10384TIP3    H152643   0.515   3.154  13.276 -1.6653  0.8475  0.2499
10384TIP3    H252644   0.559   3.079  13.152  1.4073  0.4671  1.4813
10385TIP3   OH252645   3.612   4.778   4.642 -1.0734 -0.0009  0.0691
10385TIP3    H152646   3.561   4.756   4.720  1.0346 -2.5523  0.8889
10385TIP3    H252647   3.586   4.714   4.577 -1.2386  0.7463 -0.6151
10386TIP3   OH252648   0.963   0.312   1.991 -0.4787 -0.0473 -0.1691
10386TIP3    H152649   0.884   0.318   2.045 -1.0573 -0.5287 -0.9422
10386TIP3    H252650   0.944   0.242   1.928  1.6571 -2.2069  1.4078
10387TIP3   OH252651   2.566   0.398   6.321 -0.0554  0.3895 -0.0327
10387TIP3    H152652   2.646   0.424   6.276  1.1730 -0.6761  1.4087
10387TIP3    H252653   2.590   0.396   6.413 -2.6231  3.0411  0.8388
10388TIP3   OH252654   3.319   1.965  13.397  0.2345 -0.6069  0.0366
10388TIP3    H152655   3.285   2.040  13.349  0.2898 -0.4228  0.2862
10388TIP3    H252656   3.304   1.986  13.489 -1.4749 -1.7292  0.0505
10389TIP3   OH252657   3.246   2.535  16.011  0.0430 -0.2570 -0.0019
10389TIP3    H152658   3.192   2.457  16.026  0.2500 -0.8153 -1.8639
10389TIP3    H252659   3.186   2.608  16.025 -0.4682 -0.7837  0.6505
10390TIP3   OH252660   2.580   5.527  12.743 -0.3308  0.3096  0.5763
10390TIP3    H152661   2.594   5.490  12.655  0.3182  0.1799  0.7327
10390TIP3    H252662   2.624   5.612  12.740  0.6026 -0.1539  1.1126
10391TIP3   OH252663   5.104   4.397   3.618  0.6557 -0.2638  0.7354
10391TIP3    H152664   5.102   4.490   3.596 -1.0577 -0.4604 -0.0967
10391TIP3    H252665   5.183   4.364   3.575  1.8876  0.9639  1.9302
10392TIP3   OH252666   6.135   0.461  14.227 -0.3350  0.1466 -0.7051
10392TIP3    H152667   6.066   0.411  14.271 -0.1485  0.5696  0.0942
10392TIP3    H252668   6.197   0.395  14.195 -1.0029 -0.2259 -1.2636
10393TIP3   OH252669   4.148   1.033  12.690 -0.5083  0.5938 -0.3615
10393TIP3    H152670   4.147   1.055  12.597 -1.6424  0.8008 -0.3115
10393TIP3    H252671   4.215   1.090  12.727  0.0951  0.3704 -1.0728
10394TIP3   OH252672   5.304   5.277   3.105  0.3788  0.4731 -0.0368
10394TIP3    H152673   5.261   5.359   3.129 -1.6959 -0.6755  0.4014
10394TIP3    H252674   5.243   5.208   3.133  2.3454 -1.2741  0.2527
10395TIP3   OH252675   1.246   5.216  10.527 -0.1203  0.0107 -0.3475
10395TIP3    H152676   1.182   5.147  10.542  2.6411 -2.5880  0.5997
10395TIP3    H252677   1.258   5.258  10.612  0.7318 -0.7695 -0.0723
10396TIP3   OH252678   5.828   2.099  11.781 -0.6502 -0.3949 -0.9914
10396TIP3    H152679   5.838   2.039  11.707 -1.3056  0.1916 -1.5625
10396TIP3    H252680   5.734   2.109  11.791 -0.5717 -0.4217 -0.0974
10397TIP3   OH252681   2.942   5.083  16.682 -0.1278 -0.4524  0.1002
10397TIP3    H152682   2.940   5.034  16.600  0.8842 -0.9851  0.3763
10397TIP3    H252683   2.858   5.127  16.686 -1.0958 -2.1946 -0.1383
10398TIP3   OH252684   3.051   1.628  15.771 -0.1677  0.2552  0.8487
10398TIP3    H152685   3.114   1.576  15.720  0.3614  1.6947 -0.0337
10398TIP3    H252686   2.993   1.564  15.811 -1.0832 -0.9371 -2.1887
10399TIP3   OH252687   6.401   1.506  11.301  0.7326  0.1747 -0.1171
10399TIP3    H152688   6.317   1.483  11.260 -0.3234  0.4881  1.7501
10399TIP3    H252689   6.453   1.544  11.230 -0.4935 -0.5231 -1.4429
10400TIP3   OH252690   6.509   4.569   1.717  0.1090 -0.3667  0.1378
10400TIP3    H152691   6.514   4.623   1.796 -0.5026 -0.2134  0.0799
10400TIP3    H252692   6.436   4.606   1.668 -0.2894 -1.2128  0.0743
10401TIP3   OH252693   3.344   1.497   0.960  0.0647  0.0696  0.7111
10401TIP3    H152694   3.322   1.575   1.010  0.1562 -0.1295  1.0653
10401TIP3    H252695   3.276   1.492   0.892 -1.0134 -0.5657  1.8084
10402TIP3   OH252696   0.207   3.580  10.799  0.0084  0.7364 -0.0764
10402TIP3    H152697   0.164   3.580  10.713 -1.6132 -0.7735  0.6707
10402TIP3    H252698   0.184   3.664  10.838 -0.5411  0.7952 -0.5188
10403TIP3   OH252699   2.394   2.799  12.961 -0.1699  0.6432 -0.5556
10403TIP3    H152700   2.371   2.828  13.049 -0.9987  0.1201 -0.5843
10403TIP3    H252701   2.483   2.765  12.969  0.8018  2.9778 -0.4872
10404TIP3   OH252702   6.755   5.011   4.395  0.0108 -0.6897 -0.6290
10404TIP3    H152703   6.704   5.025   4.315  2.5484  0.7663 -2.1356
10404TIP3    H252704   6.738   5.089   4.448  0.8368 -0.0354 -1.2857
10405TIP3   OH252705   2.367   5.619   3.624  0.2675  0.3088 -0.3415
10405TIP3    H152706   2.404   5.569   3.697  1.9982  1.4894 -0.3415
10405TIP3    H252707   2.366   5.557   3.551  0.8116 -0.2042  0.0750
10406TIP3   OH252708   5.158   1.422   0.956 -0.5178 -0.0540 -0.3988
10406TIP3    H152709   5.179   1.453   0.868  1.3219  2.3449  0.7662
10406TIP3    H252710   5.068   1.390   0.949  0.0922 -1.5465 -3.4696
10407TIP3   OH252711   1.218   1.502  12.670 -0.1475  0.4493 -0.2144
10407TIP3    H152712   1.223   1.416  12.711 -0.6202 -0.6562 -2.3281
10407TIP3    H252713   1.124   1.517  12.657 -0.2424  2.2847  2.0030
10408TIP3   OH252714   6.373   4.630   2.027  0.5849 -0.5070 -0.0151
10408TIP3    H152715   6.416   4.591   2.103  0.5419  1.1672  0.9196
10408TIP3    H252716   6.435   4.696   1.996  1.1603 -1.9886 -2.2594
10409TIP3   OH252717   1.129   2.404   0.985  0.2022  0.4533  0.0042
10409TIP3    H152718   1.082   2.452   0.917 -1.5821  0.1873  0.9915
10409TIP3    H252719   1.105   2.447   1.067  2.5634  0.9719  0.5072
10410TIP3   OH252720   2.969   0.089  17.046  0.0991 -0.3740 -0.3546
10410TIP3    H152721   2.898   0.040  17.089  0.2204  0.5623  0.9471
10410TIP3    H252722   3.048   0.064  17.094  0.5700 -0.9056 -1.3806
10411TIP3   OH252723   4.156   4.423  16.322  0.1401 -0.0999  0.2199
10411TIP3    H152724   4.229   4.479  16.294 -0.0958  0.4679  0.7231
10411TIP3    H252725   4.078   4.469  16.291 -0.1361  0.6119  1.8867
10412TIP3   OH252726   1.442   2.515  15.186  0.5187 -0.0112 -0.0693
10412TIP3    H152727   1.424   2.609  15.190  2.3602  0.3308  0.8122
10412TIP3    H252728   1.370   2.475  15.235 -0.7501  0.8249 -1.1564
10413TIP3   OH252729   4.039   4.611   4.887  0.4750  0.4089  0.1424
10413TIP3    H152730   4.092   4.663   4.947  0.4039  2.5694 -1.5632
10413TIP3    H252731   3.963   4.665   4.868 -1.4125 -1.8011  0.9698
10414TIP3   OH252732   5.371   2.980  11.595 -0.0795 -0.3714 -0.2995
10414TIP3    H152733   5.312   2.919  11.551 -1.7355  1.5844 -0.9803
10414TIP3    H252734   5.443   2.992  11.533  0.2919 -1.6570 -0.1269
10415TIP3   OH252735   4.956   0.864   5.509  0.1447 -0.0278 -0.3970
10415TIP3    H152736   4.907   0.787   5.538  0.6322 -0.2120 -0.0639
10415TIP3    H252737   4.909   0.938   5.547 -1.8717  0.0503 -2.8073
10416TIP3   OH252738   2.759   4.158  15.516 -0.1976 -0.7470  0.2287
10416TIP3    H152739   2.726   4.085  15.568 -2.0507 -0.2673 -0.1994
10416TIP3    H252740   2.696   4.167  15.444  0.7960  0.3546 -0.5445
10417TIP3   OH252741   6.132   1.335   3.525 -0.8704  0.0641 -0.2759
10417TIP3    H152742   6.191   1.302   3.458 -0.6783  0.7688 -0.4559
10417TIP3    H252743   6.093   1.414   3.486 -1.5076 -0.0783  0.0545
10418TIP3   OH252744   2.967   5.446   4.286 -0.1159  0.0766 -0.3050
10418TIP3    H152745   3.009   5.390   4.352 -1.1930  0.6812  0.9219
10418TIP3    H252746   2.884   5.403   4.267  0.1096 -0.0002 -1.1642
10419TIP3   OH252747   0.467   0.950   4.788  0.3545 -0.5054 -0.1091
10419TIP3    H152748   0.514   0.871   4.813  2.0506  0.5606  0.1998
10419TIP3    H252749   0.428   0.982   4.869 -1.6856 -1.8284 -0.5038
10420TIP3   OH252750   3.962   3.099  12.508 -0.7080 -0.3841  0.3576
10420TIP3    H152751   3.877   3.143  12.520  0.6531  2.7461 -0.4906
10420TIP3    H252752   3.995   3.086  12.597 -1.5465 -0.5486  0.6551
10421TIP3   OH252753   1.055   3.640   6.068 -0.1923  0.3780  0.3734
10421TIP3    H152754   1.025   3.709   6.009 -0.7454  0.3193  0.5758
10421TIP3    H252755   1.021   3.559   6.029 -0.3300  0.3124  0.6306
10422TIP3   OH252756   3.466   3.182   1.311 -0.1233  0.1557 -0.4168
10422TIP3    H152757   3.531   3.112   1.312 -1.5322 -1.2583  1.8328
10422TIP3    H252758   3.446   3.197   1.403 -0.5769  2.9361 -0.8627
10423TIP3   OH252759   5.902   3.545  15.198 -0.1366 -0.1639  0.2382
10423TIP3    H152760   5.846   3.598  15.141  1.1242  0.3635 -0.5423
10423TIP3    H252761   5.937   3.477  15.140 -2.1598 -2.2797  1.3305
10424TIP3   OH252762   3.479   4.730  12.520 -0.0848  0.6242  0.3599
10424TIP3    H152763   3.436   4.702  12.439  0.7283  2.0079 -0.5954
10424TIP3    H252764   3.533   4.804  12.494 -0.1187  1.3829  2.2688
10425TIP3   OH252765   2.207   1.157  13.832  0.4839  0.0213  0.8997
10425TIP3    H152766   2.237   1.240  13.871 -0.2315  0.4413  0.5805
10425TIP3    H252767   2.145   1.122  13.896 -1.0818  0.9626 -0.0395
10426TIP3   OH252768   1.558   4.003   0.826  0.1200 -0.5280 -0.0020
10426TIP3    H152769   1.644   3.984   0.862 -0.6399 -2.1653  1.0488
10426TIP3    H252770   1.508   3.922   0.838 -0.9720 -0.3050 -2.4384
10427TIP3   OH252771   3.226   1.502   2.169 -0.0816  0.0900 -0.3672
10427TIP3    H152772   3.278   1.486   2.090 -1.5888  0.0537 -1.3994
10427TIP3    H252773   3.136   1.485   2.142 -1.0448  3.1933  0.4284
10428TIP3   OH252774   0.667   3.481  12.257 -0.0999 -0.8240  0.1002
10428TIP3    H152775   0.585   3.465  12.304  0.1459 -0.2656  0.7352
10428TIP3    H252776   0.735   3.449  12.316  0.3170  1.2434  0.8488
10429TIP3   OH252777   2.069   0.898   2.322  0.3303  0.7265  0.4369
10429TIP3    H152778   2.096   0.973   2.376  1.2214  0.4521  0.3973
10429TIP3    H252779   2.105   0.822   2.368 -1.4321  0.2120  1.0247
10430TIP3   OH252780   4.165   4.248   3.777  0.1838  0.0049  0.1689
10430TIP3    H152781   4.212   4.262   3.695 -0.7473 -1.4592 -0.6623
10430TIP3    H252782   4.122   4.163   3.766 -1.4345  0.5957  1.4591
10431TIP3   OH252783   1.417   3.413   5.314 -0.4150  0.2905 -0.1835
10431TIP3    H152784   1.360   3.424   5.390 -0.9937 -1.0548 -0.3872
10431TIP3    H252785   1.470   3.336   5.335  0.8201  1.0814 -0.3222
10432TIP3   OH252786   2.513   5.384   1.250  0.2492  0.1139 -0.0704
10432TIP3    H152787   2.567   5.306   1.262 -1.5715 -1.0910  0.8249
10432TIP3    H252788   2.475   5.401   1.336 -3.6420 -1.3827 -1.2755
10433TIP3   OH252789   4.217   4.823  10.330 -0.2878 -0.1099 -0.0112
10433TIP3    H152790   4.179   4.738  10.307 -2.7915  0.0419  2.9078
10433TIP3    H252791   4.169   4.886  10.276  0.5509 -0.3880 -1.1171
10434TIP3   OH252792   4.075   3.959   2.167 -0.5746  0.2202  0.1344
10434TIP3    H152793   4.069   3.873   2.127 -1.2540  0.0917  0.5007
10434TIP3    H252794   4.168   3.970   2.187 -0.2990  0.0624 -0.9683
10435TIP3   OH252795   0.503   3.989  16.480 -0.2137  0.3458  0.0349
10435TIP3    H152796   0.417   4.028  16.498 -0.8053 -1.2279  0.7670
10435TIP3    H252797   0.497   3.960  16.390 -0.4164  0.3163  0.0556
10436TIP3   OH252798   1.059   1.103  12.242  0.0102  0.0745 -0.1605
10436TIP3    H152799   1.012   1.176  12.201  0.3658  0.5478  0.2517
10436TIP3    H252800   1.133   1.145  12.287  1.1884 -0.7081 -1.2961
10437TIP3   OH252801   3.480   3.405   2.257 -0.1426 -0.2971  0.3395
10437TIP3    H152802   3.405   3.350   2.280  1.2800 -1.9719  1.1235
10437TIP3    H252803   3.459   3.490   2.296 -2.3407 -0.2188 -0.8318
10438TIP3   OH252804   0.537   6.776  11.056  0.3414  0.2334 -0.5631
10438TIP3    H152805   0.495   6.761  11.141 -0.0970  0.1770 -0.7892
10438TIP3    H252806   0.492   6.717  10.996  0.8086  0.1065 -0.7910
10439TIP3   OH252807   5.260   4.989   2.501 -0.1426 -0.2860  0.0105
10439TIP3    H152808   5.345   5.028   2.521 -0.7149  1.4401 -0.7411
10439TIP3    H252809   5.265   4.965   2.409 -0.5663  0.0795 -0.1107
10440TIP3   OH252810   0.431   4.381   6.479  0.1246 -0.3882  0.4207
10440TIP3    H152811   0.514   4.348   6.514  0.3852  1.4950  1.7313
10440TIP3    H252812   0.364   4.338   6.531  0.5085  2.8393  4.0424
10441TIP3   OH252813   3.039   4.989   1.334 -0.1413 -0.1798  0.1917
10441TIP3    H152814   3.006   4.900   1.321 -1.6121 -0.0975  2.7465
10441TIP3    H252815   3.113   4.979   1.394 -0.0496  0.3015  0.1628
10442TIP3   OH252816   0.070   5.589  12.569 -0.1853  0.2947  0.0538
10442TIP3    H152817   0.114   5.528  12.628  1.3252 -1.3213 -2.5504
10442TIP3    H252818   0.137   5.654  12.547 -0.9731  1.3576  0.6658
10443TIP3   OH252819   1.105   1.402   5.194  0.1455 -0.0760  0.3888
10443TIP3    H152820   1.122   1.418   5.101  2.7330 -2.9827  0.2012
10443TIP3    H252821   1.176   1.448   5.239  1.5480 -2.1864  0.5014
10444TIP3   OH252822   0.405   5.334  12.773 -0.4473  0.4159 -0.2853
10444TIP3    H152823   0.468   5.383  12.720 -0.2781 -0.5486 -1.0197
10444TIP3    H252824   0.320   5.371  12.749 -0.3020  0.5132 -0.6673
10445TIP3   OH252825   3.709   5.784   4.953 -0.3515 -0.1125 -0.5141
10445TIP3    H152826   3.769   5.710   4.967  0.9508  1.1958  1.3470
10445TIP3    H252827   3.750   5.835   4.884 -1.3805 -1.1941 -1.9794
10446TIP3   OH252828   1.775   5.019   1.123  0.1673 -0.3509  0.0042
10446TIP3    H152829   1.842   4.987   1.062  0.2571  0.1689 -0.1840
10446TIP3    H252830   1.825   5.059   1.194  0.0852  0.7878 -0.5378
10447TIP3   OH252831   4.847   2.281   3.774  0.2861  0.6902  0.1496
10447TIP3    H152832   4.823   2.220   3.705  0.0488  0.6842  0.2371
10447TIP3    H252833   4.903   2.230   3.833 -0.5753  0.3239  0.6590
10448TIP3   OH252834   1.166   6.439   5.491  0.5592  0.4710 -0.1792
10448TIP3    H152835   1.175   6.444   5.396  0.3507  0.3728 -0.2057
10448TIP3    H252836   1.237   6.494   5.525  1.7624 -0.8969 -0.3627
10449TIP3   OH252837   6.374   2.954  13.829 -0.0156 -0.0172  0.6235
10449TIP3    H152838   6.330   2.869  13.839  0.0621 -0.1321  0.0468
10449TIP3    H252839   6.463   2.931  13.804  0.5545  0.2013  2.3584
10450TIP3   OH252840   4.094   4.351   1.907  0.2962  0.2911  0.1442
10450TIP3    H152841   4.158   4.280   1.921  0.1068  0.2010  0.5588
10450TIP3    H252842   4.024   4.332   1.969  0.2189  0.8154  0.2210
10451TIP3   OH252843   5.741   1.582  16.304  0.0773 -0.4747 -0.1208
10451TIP3    H152844   5.718   1.674  16.315 -0.1295 -0.5730  0.2813
10451TIP3    H252845   5.678   1.548  16.241 -0.5340 -0.6039  0.5503
10452TIP3   OH252846   2.334   0.555  10.777 -0.2039 -0.2659  0.0770
10452TIP3    H152847   2.340   0.586  10.687 -0.0063 -2.1419 -0.6010
10452TIP3    H252848   2.415   0.584  10.818 -0.2281  0.4685 -0.3768
10453TIP3   OH252849   1.274   3.451   1.379 -0.7240  0.6698  0.6461
10453TIP3    H152850   1.253   3.534   1.422  0.1604  1.6143 -0.6558
10453TIP3    H252851   1.310   3.477   1.294  1.6912 -0.9377  1.0890
10454TIP3   OH252852   2.011   4.611   3.076  0.0971 -0.7968  0.3615
10454TIP3    H152853   2.025   4.525   3.115 -0.4993 -1.4056 -0.7322
10454TIP3    H252854   1.956   4.595   2.999  1.2224  0.3411 -0.7553
10455TIP3   OH252855   5.342   2.820  14.594 -0.0727  0.1112  0.1193
10455TIP3    H152856   5.256   2.821  14.552 -2.2269  1.0576  4.0314
10455TIP3    H252857   5.391   2.890  14.551 -0.7174 -1.1749 -2.9722
10456TIP3   OH252858   4.699   3.588   5.913 -0.3873  0.3676 -0.0372
10456TIP3    H152859   4.698   3.656   5.979 -0.1331 -0.1171  0.4772
10456TIP3    H252860   4.613   3.591   5.873 -0.5046  0.7370  0.2466
10457TIP3   OH252861   5.318   2.778  11.764  0.2721 -0.3785 -0.1902
10457TIP3    H152862   5.339   2.869  11.744  0.5870 -0.3906  0.0696
10457TIP3    H252863   5.235   2.762  11.720 -0.7685  0.5936  1.3497
10458TIP3   OH252864   0.487   0.745   1.543 -0.3266  0.4288  0.4594
10458TIP3    H152865   0.420   0.743   1.611 -0.7510 -2.2481  0.0769
10458TIP3    H252866   0.568   0.767   1.589 -0.7715 -0.3612  1.6619
10459TIP3   OH252867   5.741   5.241   3.034 -0.1618  0.3575 -0.1014
10459TIP3    H152868   5.720   5.213   3.123  1.1968 -1.3177 -0.2616
10459TIP3    H252869   5.719   5.166   2.979  0.9232  0.6087 -0.9126
10460TIP3   OH252870   6.177   6.098  16.909 -0.0342 -0.2776  0.2480
10460TIP3    H152871   6.126   6.139  16.839 -0.3005 -1.6074 -0.3614
10460TIP3    H252872   6.160   6.005  16.899 -0.7129 -0.4540  2.5967
10461TIP3   OH252873   4.955   5.634   6.032 -0.1099 -0.1487  0.3798
10461TIP3    H152874   4.906   5.667   5.957  2.7920 -0.5289 -1.8721
10461TIP3    H252875   4.939   5.540   6.033  0.3995 -0.2469 -0.2397
10462TIP3   OH252876   3.951   6.585  11.848  0.3477 -0.2376  0.0735
10462TIP3    H152877   4.032   6.553  11.886 -1.3755 -2.4806  2.2111
10462TIP3    H252878   3.918   6.648  11.913 -0.8073 -1.2936  0.5639
10463TIP3   OH252879   6.089   3.353   4.210  0.5326 -0.0312 -0.3923
10463TIP3    H152880   6.042   3.328   4.130 -0.2125  1.0810 -0.3209
10463TIP3    H252881   6.181   3.345   4.186  0.3714 -2.6056 -0.4214
10464TIP3   OH252882   2.966   2.258   1.799  0.2590  0.2615 -0.8382
10464TIP3    H152883   2.930   2.191   1.856  2.3572  0.9404  1.4669
10464TIP3    H252884   2.892   2.289   1.747 -0.9796 -3.0459 -1.2714
10465TIP3   OH252885   2.937   5.327  11.720  0.0663  0.3962 -0.0005
10465TIP3    H152886   2.895   5.342  11.805  0.1659  0.1634  0.0888
10465TIP3    H252887   2.992   5.404  11.707  1.5981 -0.4593  1.0627
10466TIP3   OH252888   1.305   4.512  16.855  0.6092  0.4748 -0.5468
10466TIP3    H152889   1.275   4.597  16.825  1.7359  1.0723 -0.0454
10466TIP3    H252890   1.225   4.463  16.874 -0.0439  1.6258 -0.2505
10467TIP3   OH252891   4.934   3.738   0.618 -0.0335  0.2084 -0.0216
10467TIP3    H152892   5.022   3.760   0.649 -0.3219 -0.1284  1.0960
10467TIP3    H252893   4.900   3.821   0.584  0.2917  0.6168  0.6195
10468TIP3   OH252894   6.181   2.319   1.008  0.7546  0.2006 -0.5385
10468TIP3    H152895   6.193   2.414   1.009  0.7703  0.2194  1.2250
10468TIP3    H252896   6.250   2.286   1.065 -0.4135 -0.6922  0.4026
10469TIP3   OH252897   5.556   4.453  15.668 -0.4844  0.0334  0.1290
10469TIP3    H152898   5.534   4.368  15.706 -2.7415 -1.3619 -3.7804
10469TIP3    H252899   5.472   4.500  15.664  0.6423  2.4308  1.8311
10470TIP3   OH252900   6.168   4.740  13.134  0.0705  0.0885 -0.0386
10470TIP3    H152901   6.171   4.782  13.219 -0.6500  0.4825 -0.2049
10470TIP3    H252902   6.075   4.723  13.117 -0.3875  3.8680 -2.5739
10471TIP3   OH252903   1.068   2.954   3.539  0.2177  0.2679  0.1649
10471TIP3    H152904   1.020   3.034   3.520  0.4178  0.3144 -0.1359
10471TIP3    H252905   1.149   2.961   3.489  0.4615  0.1059  0.5292
10472TIP3   OH252906   1.422   4.856   5.938  1.1638  0.3551  0.0335
10472TIP3    H152907   1.447   4.777   5.985  2.7643  0.8295  0.0249
10472TIP3    H252908   1.476   4.855   5.859  1.9155  1.9248  0.4909
10473TIP3   OH252909   5.907   4.529   4.406 -0.4565  0.1327  0.4485
10473TIP3    H152910   5.852   4.452   4.421  0.3888 -0.4414  0.7021
10473TIP3    H252911   5.994   4.503   4.439 -0.0306  1.0033  0.0451
10474TIP3   OH252912   0.342   3.247   3.324  0.3455  0.2111  0.1861
10474TIP3    H152913   0.427   3.205   3.309  0.7845  1.3277 -0.6241
10474TIP3    H252914   0.363   3.340   3.333 -0.8133  0.5301 -0.2309
10475TIP3   OH252915   1.236   0.366  15.460 -0.0389  0.1132 -0.3025
10475TIP3    H152916   1.163   0.418  15.425  0.5706  0.8900 -0.4463
10475TIP3    H252917   1.271   0.319  15.385  0.3464  0.6510 -0.4627
10476TIP3   OH252918   4.070   1.432   1.615 -0.0140  0.5183 -0.2823
10476TIP3    H152919   3.995   1.427   1.556  1.0450 -1.4197 -1.5464
10476TIP3    H252920   4.146   1.444   1.558  0.8067  1.0315  0.8691
10477TIP3   OH252921   5.935   3.130  15.740  0.6618 -0.0045 -0.2526
10477TIP3    H152922   5.905   3.106  15.653  1.2822 -1.7927 -0.0015
10477TIP3    H252923   5.948   3.047  15.786  0.3629  0.8829  1.5537
10478TIP3   OH252924   6.089   5.540   5.885  0.0113 -0.0255  0.2603
10478TIP3    H152925   6.095   5.618   5.939 -1.5734  1.4409 -1.5418
10478TIP3    H252926   6.068   5.469   5.946  2.5815  0.6538  2.0808
10479TIP3   OH252927   3.130   5.707   5.452  0.7712  0.0300  0.1403
10479TIP3    H152928   3.115   5.705   5.546 -0.6287 -1.8514 -0.0779
10479TIP3    H252929   3.215   5.664   5.440  0.8491  0.0779  0.5040
10480TIP3   OH252930   3.196   6.732  15.993 -0.2684 -0.3436 -0.3288
10480TIP3    H152931   3.165   6.670  15.927 -0.1321  0.0982 -0.8106
10480TIP3    H252932   3.262   6.683  16.043 -1.6746 -1.3018  0.7041
10481TIP3   OH252933   0.678   0.631   4.468 -0.4577 -0.2640  0.0974
10481TIP3    H152934   0.587   0.659   4.477 -0.0237  1.1126  0.4791
10481TIP3    H252935   0.682   0.547   4.514 -1.5836 -0.4630 -0.1471
10482TIP3   OH252936   2.021   5.651   1.599 -0.3588  0.6514 -0.0900
10482TIP3    H152937   1.950   5.603   1.556 -0.0344 -0.0090  0.0958
10482TIP3    H252938   2.097   5.637   1.542  0.3098 -1.0217  1.1386
10483TIP3   OH252939   2.758   1.277  14.265 -0.4152  0.6095  0.2634
10483TIP3    H152940   2.671   1.257  14.230 -0.1013 -0.6744  0.1889
10483TIP3    H252941   2.772   1.210  14.332  0.2062  1.2797  0.8145
10484TIP3   OH252942   0.441   0.854  15.511  0.1796 -0.2630 -0.1498
10484TIP3    H152943   0.437   0.769  15.468  0.5584 -0.2789 -0.1615
10484TIP3    H252944   0.451   0.917  15.439  0.4870 -0.2626 -0.1120
10485TIP3   OH252945   1.125   0.342  13.744 -0.2566 -0.3024 -0.1838
10485TIP3    H152946   1.104   0.351  13.651  1.7957 -0.2561 -0.6862
10485TIP3    H252947   1.089   0.256  13.767 -2.2866  0.3903 -0.5272
10486TIP3   OH252948   0.272   4.471  13.873  0.9656  0.4918 -0.2331
10486TIP3    H152949   0.260   4.432  13.960 -1.3849  1.2091 -0.1638
10486TIP3    H252950   0.338   4.539  13.886  2.1877 -0.7754  0.4991
10487TIP3   OH252951   0.446   1.967   6.465  0.0432 -0.2037  1.0455
10487TIP3    H152952   0.512   2.011   6.519 -0.7052  0.3649  1.5190
10487TIP3    H252953   0.496   1.907   6.409  1.0787  1.0137  0.6099
10488TIP3   OH252954   4.729   0.034  14.246 -0.0779 -0.8123  0.0100
10488TIP3    H152955   4.818   0.005  14.227 -0.0244 -0.8519  0.3065
10488TIP3    H252956   4.697   0.071  14.164  0.2108 -0.8009 -0.0985
10489TIP3   OH252957   4.427   6.223  13.771 -0.0977  0.3259  0.6150
10489TIP3    H152958   4.435   6.241  13.677  1.5234 -1.5425  0.3340
10489TIP3    H252959   4.340   6.257  13.794 -0.3930  1.1688 -1.4574
10490TIP3   OH252960   1.169   6.050  14.771 -0.1170  0.0402  0.7974
10490TIP3    H152961   1.264   6.053  14.786  0.2963 -2.3955 -0.7693
10490TIP3    H252962   1.132   6.049  14.859  1.2388  1.5970  1.4445
10491TIP3   OH252963   6.395   5.261   0.060  0.8088  0.3420 -0.2305
10491TIP3    H152964   6.428   5.304  -0.019  0.4741  0.8888 -0.0763
10491TIP3    H252965   6.467   5.268   0.123  1.4912 -1.0331 -0.8044
10492TIP3   OH252966   0.297   0.340   5.256 -0.1338  0.2483 -0.0287
10492TIP3    H152967   0.328   0.308   5.171  0.5464 -0.5008  0.4919
10492TIP3    H252968   0.233   0.407   5.233  0.3398  0.3578 -1.1410
10493TIP3   OH252969   5.809   0.229   4.182  0.1662 -0.0015 -0.2998
10493TIP3    H152970   5.808   0.315   4.141 -1.4303  0.0991 -0.1210
10493TIP3    H252971   5.772   0.243   4.269  1.4869 -0.5936  0.4018
10494TIP3   OH252972   0.090   1.888  15.525 -0.0715 -0.3571  0.2826
10494TIP3    H152973   0.066   1.956  15.587 -1.1631 -0.5711  0.1104
10494TIP3    H252974   0.011   1.874  15.472  0.9418  0.1258 -1.4405
10495TIP3   OH252975   4.038   3.537  11.834 -0.7700 -0.4331  0.2179
10495TIP3    H152976   4.064   3.603  11.898  1.0485  0.1618 -1.0449
10495TIP3    H252977   4.017   3.460  11.887 -0.1249  0.2754  1.5784
10496TIP3   OH252978   5.735   2.315  16.109  0.1209 -0.3064 -0.5546
10496TIP3    H152979   5.786   2.266  16.173  0.5845  0.2903 -0.4562
10496TIP3    H252980   5.797   2.378  16.071 -0.4321  0.1488 -0.7292
10497TIP3   OH252981   5.443   1.035  16.951  0.2987  0.4505  0.2526
10497TIP3    H152982   5.453   1.106  16.887 -0.1673  0.0863 -0.2248
10497TIP3    H252983   5.470   0.956  16.905 -0.7731  0.0674  0.2415
10498TIP3   OH252984   3.806   1.547  15.202  0.6457 -0.7935 -0.1766
10498TIP3    H152985   3.902   1.541  15.202  0.7798  0.1900 -2.9561
10498TIP3    H252986   3.787   1.629  15.157 -1.5321 -0.6795  0.8253
10499TIP3   OH252987   1.391   3.820   5.343 -0.0760 -0.2445 -0.0701
10499TIP3    H152988   1.365   3.907   5.314  0.4881 -0.3067 -0.7650
10499TIP3    H252989   1.485   3.827   5.361  0.3014 -1.0783 -1.5766
10500TIP3   OH252990   0.765   4.761  13.842  0.0657  0.2296 -0.4851
10500TIP3    H152991   0.702   4.695  13.814  1.7769 -1.1859 -1.1999
10500TIP3    H252992   0.764   4.826  13.772  0.3617 -0.4927 -1.1814
10501TIP3   OH252993   1.990   5.630   4.080  0.1735  0.5144 -0.0937
10501TIP3    H152994   2.075   5.657   4.116 -0.2291  1.2199  0.3405
10501TIP3    H252995   1.999   5.536   4.066  0.6278  0.3750  1.0392
10502TIP3   OH252996   4.043   6.553   0.446  0.4559  0.0666 -0.0812
10502TIP3    H152997   4.005   6.472   0.412  0.4377  0.4811 -1.0677
10502TIP3    H252998   4.092   6.525   0.524  0.9649 -0.9981 -0.7485
10503TIP3   OH252999   0.804   2.747  16.596  0.3126 -0.2968 -0.3169
10503TIP3    H153000   0.861   2.814  16.557 -0.2110 -0.5634 -1.6193
10503TIP3    H253001   0.851   2.717  16.673  2.0855 -0.7027 -1.4953
10504TIP3   OH253002   1.098   1.760   1.327  0.3733  0.4435  0.7844
10504TIP3    H153003   1.059   1.715   1.252  0.8254  0.2987  0.6313
10504TIP3    H253004   1.085   1.853   1.308  1.0881  0.4262  0.1918
10505TIP3   OH253005   5.209   1.801   1.388 -0.2617  0.0634 -0.5252
10505TIP3    H153006   5.203   1.718   1.342  0.5507 -1.0186  1.2364
10505TIP3    H253007   5.119   1.822   1.413 -0.4431 -0.3718 -0.8186
10506TIP3   OH253008   5.457   1.086  12.142 -0.1472  0.0290 -0.6656
10506TIP3    H153009   5.464   1.121  12.054  1.3113 -0.4151 -0.7524
10506TIP3    H253010   5.506   1.149  12.197  0.3406 -0.5403 -0.4377
10507TIP3   OH253011   4.654   1.512  12.750  0.1407  0.4404  0.3808
10507TIP3    H153012   4.604   1.582  12.708 -1.3160  0.9630  2.7395
10507TIP3    H253013   4.712   1.478  12.682 -2.3159  0.8840 -2.1126
10508TIP3   OH253014   6.782   4.712   4.695 -0.1945  0.4109  0.1957
10508TIP3    H153015   6.699   4.702   4.742 -0.8836  0.1692 -1.0308
10508TIP3    H253016   6.822   4.790   4.733  0.2256 -0.8632  2.5393
10509TIP3   OH253017   5.918   0.357  16.355 -0.4755 -0.1116 -0.3821
10509TIP3    H153018   5.849   0.297  16.384  0.6990 -0.2862  2.2613
10509TIP3    H253019   5.915   0.351  16.259 -3.1118 -1.2251 -0.3158
10510TIP3   OH253020   0.053   4.271  13.850  0.3966  0.2728 -0.1858
10510TIP3    H153021   0.091   4.204  13.792  2.1378  0.6477  0.4552
10510TIP3    H253022   0.121   4.338  13.857 -1.6816  2.7693 -1.7183
10511TIP3   OH253023   5.512   0.089   1.054  0.5313  0.2026 -0.0908
10511TIP3    H153024   5.515   0.144   1.132 -0.4936  0.7407 -0.4092
10511TIP3    H253025   5.601   0.094   1.018  0.3592  2.0468 -0.3654
10512TIP3   OH253026   6.552   5.934  14.450 -0.0015 -0.0732  0.0605
10512TIP3    H153027   6.501   5.982  14.516 -0.6484  0.0531 -0.5256
10512TIP3    H253028   6.535   5.842  14.469 -0.9845 -0.0256 -0.5345
10513TIP3   OH253029   0.443   1.766   1.935  0.2094  0.0798 -0.0664
10513TIP3    H153030   0.419   1.840   1.991  1.3914 -1.0929  2.0950
10513TIP3    H253031   0.521   1.796   1.888  1.2058 -0.0377  1.4503
10514TIP3   OH253032   5.902   0.183   4.898 -0.3777 -0.3458 -0.1801
10514TIP3    H153033   5.946   0.098   4.893  0.4476 -0.1049  2.0947
10514TIP3    H253034   5.845   0.176   4.974  0.2669  1.3662  0.4914
10515TIP3   OH253035   5.927   1.328   4.033  0.3064 -0.6769  0.6574
10515TIP3    H153036   6.019   1.326   4.059  0.0661 -1.3653  1.5107
10515TIP3    H253037   5.879   1.333   4.116 -0.4296 -0.4211  0.2210
10516TIP3   OH253038   1.565   4.939  15.320 -0.5884 -0.0094 -0.1471
10516TIP3    H153039   1.492   4.878  15.318 -0.2637 -0.3946 -1.5555
10516TIP3    H253040   1.642   4.884  15.304  0.1608  0.2356  2.2472
10517TIP3   OH253041   0.842   0.268  10.895  0.2120  0.2830 -0.4550
10517TIP3    H153042   0.840   0.262  10.799 -1.6629 -2.8325 -0.3391
10517TIP3    H253043   0.770   0.327  10.917  0.4753  0.7932 -0.9384
10518TIP3   OH253044   3.155   1.746  12.840  0.2642  0.5043  0.6665
10518TIP3    H153045   3.243   1.708  12.836  0.4537  0.7809 -3.9103
10518TIP3    H253046   3.097   1.671  12.853  1.0036 -0.5315 -1.5357
10519TIP3   OH253047   1.453   1.099  10.636 -0.2700 -0.2251 -0.1324
10519TIP3    H153048   1.403   1.136  10.709  0.5541  0.9069 -0.1214
10519TIP3    H253049   1.387   1.075  10.571 -1.1196 -2.1372  1.3205
10520TIP3   OH253050   5.984   4.083   3.882  0.2884 -0.6805 -0.0214
10520TIP3    H153051   5.941   4.004   3.850 -0.4205 -0.8780  1.3631
10520TIP3    H253052   6.075   4.055   3.898  0.4205 -0.8115 -0.9211
10521TIP3   OH253053   4.813   6.547   6.411 -0.0941 -0.0163 -0.1832
10521TIP3    H153054   4.757   6.604   6.463  0.2420 -0.1395  0.3255
10521TIP3    H253055   4.847   6.602   6.341 -3.3742 -0.6712 -2.4986
10522TIP3   OH253056   1.386   4.905   3.389  0.6189  0.7276 -0.1397
10522TIP3    H153057   1.413   4.813   3.387 -0.3982  0.3772  1.3105
10522TIP3    H253058   1.427   4.943   3.310  0.2443 -1.1696 -1.3143
10523TIP3   OH253059   2.588   4.147  15.927 -0.0715  0.3252 -0.0492
10523TIP3    H153060   2.522   4.182  15.987  0.6177 -1.1534  1.6627
10523TIP3    H253061   2.630   4.077  15.976  0.7888 -0.7233 -2.1675
10524TIP3   OH253062   4.905   2.167   5.040 -0.1465 -0.3362 -0.0802
10524TIP3    H153063   4.879   2.108   4.969  1.3768  1.4204 -2.2537
10524TIP3    H253064   4.975   2.120   5.086 -0.8369 -1.3110  0.0114
10525TIP3   OH253065   1.312   6.300   4.296  0.0093  0.2999  0.4423
10525TIP3    H153066   1.376   6.286   4.366 -0.0117  1.7394  0.7850
10525TIP3    H253067   1.285   6.392   4.306 -2.2093 -0.2819  0.3997
10526TIP3   OH253068   1.926   1.365   6.227 -0.1578  0.8557 -0.1382
10526TIP3    H153069   1.857   1.408   6.278 -0.3284  0.3203  0.0908
10526TIP3    H253070   1.968   1.306   6.289  0.1771  0.8044 -0.4109
10527TIP3   OH253071   5.176   2.401   0.181 -0.0005  0.0765  0.5546
10527TIP3    H153072   5.089   2.383   0.216 -0.1771  0.5630  0.3799
10527TIP3    H253073   5.193   2.492   0.206  0.0595  0.2854 -0.2146
10528TIP3   OH253074   1.286   3.804  12.856 -0.7601 -0.5426  0.0128
10528TIP3    H153075   1.240   3.738  12.804  0.7520 -2.2104  0.6703
10528TIP3    H253076   1.351   3.842  12.797 -0.2687 -1.1312  0.1614
10529TIP3   OH253077   5.609   3.556   6.661  0.4932  0.4919 -0.0067
10529TIP3    H153078   5.664   3.553   6.740 -0.0388  2.0831  0.4823
10529TIP3    H253079   5.530   3.602   6.690 -0.3596 -0.2429 -1.1200
10530TIP3   OH253080   3.433   1.942   1.420  0.6517 -0.0452  0.2098
10530TIP3    H153081   3.457   1.978   1.505 -0.1238  0.7026  0.1286
10530TIP3    H253082   3.361   1.882   1.439 -0.5247  1.2126 -0.0424
10531TIP3   OH253083   0.153   4.782   3.519  0.3669  0.1165 -0.3165
10531TIP3    H153084   0.152   4.724   3.443  2.6961 -0.7250  0.2068
10531TIP3    H253085   0.241   4.773   3.555  0.6573  3.5446  0.1647
10532TIP3   OH253086   1.484   2.585  15.757  0.5649 -0.6171 -0.1615
10532TIP3    H153087   1.512   2.639  15.683 -0.2598  0.8096  0.5129
10532TIP3    H253088   1.390   2.601  15.764  0.5513 -1.0843  0.8947
10533TIP3   OH253089   5.114   3.346   4.399  0.0893 -0.1044 -0.2142
10533TIP3    H153090   5.040   3.358   4.339  0.6674 -0.9616 -1.1200
10533TIP3    H253091   5.123   3.431   4.442  0.1620  0.7880 -1.9186
10534TIP3   OH253092   4.966   6.687   2.640  0.3087  0.3057 -0.1368
10534TIP3    H153093   4.903   6.759   2.646  1.5494  1.5660 -1.3827
10534TIP3    H253094   4.979   6.675   2.546  2.3601  0.5104  0.0776
10535TIP3   OH253095   2.416   1.585  12.337 -0.1382  0.0233  0.0986
10535TIP3    H153096   2.380   1.640  12.268 -1.3474  0.4451  1.0196
10535TIP3    H253097   2.475   1.525  12.292 -2.6903 -1.3178 -1.6661
10536TIP3   OH253098   2.638   6.024  13.202 -0.5133 -0.6616  0.1039
10536TIP3    H153099   2.642   6.118  13.214 -2.5661 -0.8006  3.0686
10536TIP3    H253100   2.689   5.988  13.274 -0.2018 -1.8225 -0.6681
10537TIP3   OH253101   3.160   1.465   3.211  0.0302 -0.2698 -0.0660
10537TIP3    H153102   3.240   1.453   3.262 -1.7076 -1.7495  2.5442
10537TIP3    H253103   3.097   1.503   3.272 -1.0260  1.9703 -2.3532
10538TIP3   OH253104   4.145   3.707   2.117  0.1499 -0.1847  0.2417
10538TIP3    H153105   4.239   3.721   2.127  0.3088 -1.0494  0.0389
10538TIP3    H253106   4.128   3.625   2.161 -0.1905 -0.9636 -1.2600
10539TIP3   OH253107   1.369   1.745   1.210 -0.3686  0.2923  0.0683
10539TIP3    H153108   1.383   1.839   1.213  1.3242  0.0556  1.0571
10539TIP3    H253109   1.295   1.728   1.268  1.2142  0.7576  2.3488
10540TIP3   OH253110   6.187   0.981   1.924  0.0025 -0.2398  0.3271
10540TIP3    H153111   6.194   0.950   2.014 -1.0521  0.1357  0.5524
10540TIP3    H253112   6.097   0.961   1.898  0.1881 -0.0280 -0.5256
10541TIP3   OH253113   0.174   0.092   3.256 -0.0628  0.4139  0.1400
10541TIP3    H153114   0.105   0.066   3.195 -0.1650  0.7201  0.1264
10541TIP3    H253115   0.148   0.179   3.287  0.0749  0.3317  0.4906
10542TIP3   OH253116   0.850   5.434   2.789  0.1791 -0.6606  0.7776
10542TIP3    H153117   0.884   5.503   2.846 -0.7473 -0.8817  1.6212
10542TIP3    H253118   0.915   5.364   2.797  0.4380 -0.4029  0.9788
10543TIP3   OH253119   3.455   0.958  15.174  0.2535 -0.2959 -0.2836
10543TIP3    H153120   3.495   0.880  15.211  0.8179  0.0805 -0.0694
10543TIP3    H253121   3.386   0.983  15.236  0.5645 -0.2082  0.0321
10544TIP3   OH253122   6.569   0.017  10.335 -0.4687 -0.3503  0.0396
10544TIP3    H153123   6.630   0.007  10.408  0.0334 -0.1282 -0.3426
10544TIP3    H253124   6.588  -0.057  10.278  0.3946  0.4517 -0.7481
10545TIP3   OH253125   5.368   5.493   5.445  0.6801  0.2445  0.8295
10545TIP3    H153126   5.333   5.536   5.366  0.3375 -0.2269  0.7203
10545TIP3    H253127   5.461   5.514   5.444  0.9304 -0.7812 -0.3795
10546TIP3   OH253128   0.769   6.296  12.386  0.6290 -0.2660 -0.5272
10546TIP3    H153129   0.719   6.251  12.454 -1.3701  0.8439 -1.1647
10546TIP3    H253130   0.788   6.382  12.422  0.2979  0.0234 -1.0178
10547TIP3   OH253131   4.883   1.163   4.678 -0.0522  0.8034  0.4094
10547TIP3    H153132   4.810   1.225   4.678  0.4971  1.5942 -2.4770
10547TIP3    H253133   4.956   1.213   4.717 -0.9226 -0.0023  3.3336
10548TIP3   OH253134   5.706   2.394   4.728 -0.3742 -0.1511 -0.3377
10548TIP3    H153135   5.707   2.390   4.633 -2.6486 -2.4520 -0.3770
10548TIP3    H253136   5.736   2.307   4.756 -2.8016 -0.6907  0.8779
10549TIP3   OH253137   1.296   3.794  12.561 -0.5478  0.5865  0.1893
10549TIP3    H153138   1.252   3.876  12.535 -1.4352 -0.6474 -2.5408
10549TIP3    H253139   1.364   3.782  12.495 -0.6952 -1.0469  0.3069
10550TIP3   OH253140   4.170   5.885  16.722  0.2498 -0.1948  0.3054
10550TIP3    H153141   4.196   5.793  16.709  0.5064 -0.0870  0.0381
10550TIP3    H253142   4.086   5.893  16.677 -0.4674 -0.6543  1.5286
10551TIP3   OH253143   0.447   2.154  14.042  0.1365 -0.2615  0.0320
10551TIP3    H153144   0.365   2.177  13.999 -0.4599  0.5733  1.5437
10551TIP3    H253145   0.513   2.159  13.972 -0.8707  0.4283 -0.9013
10552TIP3   OH253146   5.994   0.811  14.457 -0.2720 -0.1828  0.1191
10552TIP3    H153147   6.058   0.752  14.417  1.3450  1.1272  0.6599
10552TIP3    H253148   5.997   0.890  14.404 -0.3149  0.4491  1.0378
10553TIP3   OH253149   5.716   4.534   0.839 -0.1821  0.0194  0.4131
10553TIP3    H153150   5.682   4.568   0.922 -1.8271 -0.0204 -0.2096
10553TIP3    H253151   5.807   4.511   0.859  0.6746  3.4672  1.2242
10554TIP3   OH253152   4.278   5.025  16.531  0.3145 -0.3600  0.8837
10554TIP3    H153153   4.252   5.009  16.441 -1.1305 -1.9921  1.5248
10554TIP3    H253154   4.196   5.028  16.580  1.1049 -0.9607  2.3295
10555TIP3   OH253155   3.370   5.902  15.193  0.3790 -0.2012  0.0118
10555TIP3    H153156   3.287   5.932  15.229  0.7371  0.6729  0.1501
10555TIP3    H253157   3.377   5.811  15.221  0.4945  0.3471  1.9264
10556TIP3   OH253158   4.448   2.694   2.734 -0.2453 -0.0311  0.0829
10556TIP3    H153159   4.446   2.790   2.733  1.2729  0.0305  0.2414
10556TIP3    H253160   4.357   2.668   2.746 -0.5535  1.4190  1.1893
10557TIP3   OH253161   3.258   0.454   3.828 -0.1710  0.7143  0.5521
10557TIP3    H153162   3.177   0.475   3.782  0.9799  2.1963 -0.9006
10557TIP3    H253163   3.258   0.358   3.835 -2.0700  0.6922  0.6929
10558TIP3   OH253164   0.553   3.880   4.526  0.0416  0.0948 -0.0949
10558TIP3    H153165   0.566   3.833   4.443  1.3985 -0.0376  0.1603
10558TIP3    H253166   0.521   3.966   4.500  0.1076 -0.0684 -0.7410
10559TIP3   OH253167   3.502   4.177  14.185  0.2748  0.3354  0.1564
10559TIP3    H153168   3.490   4.138  14.099 -0.2736  1.0858 -0.1228
10559TIP3    H253169   3.434   4.138  14.239  0.9625 -0.5470  0.4089
10560TIP3   OH253170   0.915   4.939   5.144  0.2341 -0.0409 -0.8220
10560TIP3    H153171   0.888   4.986   5.223 -1.2664 -1.0096 -0.6953
10560TIP3    H253172   0.952   4.857   5.177  1.1390  0.2551 -1.0876
10561TIP3   OH253173   0.360   1.036   0.188  0.0321 -0.0324  0.1184
10561TIP3    H153174   0.267   1.060   0.181  0.7796  2.8570 -1.4046
10561TIP3    H253175   0.401   1.078   0.113  2.5058 -1.9473  0.2707
10562TIP3   OH253176   1.754   0.867   1.133 -0.4590 -0.1680  0.5141
10562TIP3    H153177   1.716   0.896   1.216 -0.6836  0.3085  0.2472
10562TIP3    H253178   1.733   0.774   1.128 -0.0104 -0.3162  1.2276
10563TIP3   OH253179   3.511   3.643  11.231  0.0418 -0.4402 -0.3117
10563TIP3    H153180   3.479   3.721  11.185  1.7010 -0.8000 -2.2122
10563TIP3    H253181   3.438   3.581  11.226 -1.2067  0.8265  0.9912
10564TIP3   OH253182   0.996   1.282   0.092 -0.6001  0.1049 -0.2644
10564TIP3    H153183   1.026   1.342   0.023 -1.2255 -1.0019 -1.5491
10564TIP3    H253184   0.902   1.271   0.075 -0.6994 -0.4539  0.5754
10565TIP3   OH253185   2.293   6.557  15.730 -0.0558  0.2375  0.3823
10565TIP3    H153186   2.211   6.599  15.703  0.4307 -1.2498 -4.1417
10565TIP3    H253187   2.361   6.620  15.707  0.2628  0.8153  2.6731
10566TIP3   OH253188   1.698   6.071  12.928  0.7287 -0.0601  0.4293
10566TIP3    H153189   1.604   6.059  12.916  0.5469  2.6109 -1.7857
10566TIP3    H253190   1.735   6.056  12.841  1.8137  2.6955  0.3331
10567TIP3   OH253191   5.882   2.597   1.391  0.1822 -0.0556  0.2513
10567TIP3    H153192   5.948   2.531   1.369 -0.4455 -0.6203 -0.0082
10567TIP3    H253193   5.924   2.681   1.375  0.7626 -0.4128 -0.1160
10568TIP3   OH253194   0.128   2.623   0.557 -0.2742  0.0515 -0.3549
10568TIP3    H153195   0.112   2.529   0.550  1.2349 -0.4211  1.4980
10568TIP3    H253196   0.180   2.645   0.479  1.1183 -1.1306  0.1905
10569TIP3   OH253197   6.215   5.689  12.543  0.4011 -0.0135  0.7288
10569TIP3    H153198   6.153   5.735  12.486  1.8155  1.2880  0.1667
10569TIP3    H253199   6.253   5.621  12.487 -0.6118 -0.9189  1.1211
10570TIP3   OH253200   3.287   1.456   6.425  0.5201 -0.2617 -0.2432
10570TIP3    H153201   3.308   1.454   6.518 -1.4746 -2.5216  0.2693
10570TIP3    H253202   3.262   1.366   6.405  2.9850 -0.3916 -3.5505
10571TIP3   OH253203   3.503   3.642   0.835 -0.0540 -0.1191  0.5947
10571TIP3    H153204   3.521   3.578   0.766 -1.0742 -1.5585  1.6145
10571TIP3    H253205   3.576   3.632   0.896  1.4989  1.9976 -0.7759
10572TIP3   OH253206   3.666   5.907   0.457 -0.0436  0.8166  0.8175
10572TIP3    H153207   3.664   5.815   0.483 -0.6853  0.8704  0.9909
10572TIP3    H253208   3.593   5.916   0.395  1.3373  0.7419 -0.8755
10573TIP3   OH253209   2.077   6.075   4.228 -0.0349  0.2436  0.2930
10573TIP3    H153210   2.075   6.124   4.146 -2.8582  1.0248  0.7400
10573TIP3    H253211   2.139   6.123   4.282  1.1951  0.2290 -1.0311
10574TIP3   OH253212   6.624   1.255  13.900  0.3194 -0.6073  0.4823
10574TIP3    H153213   6.696   1.255  13.837 -0.7054 -1.7831 -0.7975
10574TIP3    H253214   6.631   1.338  13.947  2.4880 -0.7164  0.4202
10575TIP3   OH253215   1.748   5.307  17.158 -0.3316 -0.5281  0.2070
10575TIP3    H153216   1.734   5.257  17.077  0.5194 -0.4603  0.0010
10575TIP3    H253217   1.844   5.314  17.165 -0.4092 -0.1788  1.0038
10576TIP3   OH253218   3.545   4.350  12.339  0.1213  0.3290  0.1750
10576TIP3    H153219   3.599   4.310  12.271  0.5741  0.4687  0.4508
10576TIP3    H253220   3.496   4.418  12.292 -0.5698 -0.4559 -0.2697
10577TIP3   OH253221   0.154   2.259  17.166 -0.1616  0.6093 -0.1408
10577TIP3    H153222   0.182   2.224  17.081 -1.5316  0.0809 -0.4177
10577TIP3    H253223   0.181   2.193  17.229  0.7285  0.9312 -0.1740
10578TIP3   OH253224   5.941   4.051   6.374  0.0709  0.2037 -0.4404
10578TIP3    H153225   5.851   4.021   6.383 -0.0873  0.0939 -2.1438
10578TIP3    H253226   5.991   3.992   6.431 -0.7022 -0.9678 -0.9304
10579TIP3   OH253227   4.226   0.939   0.839 -0.3558 -0.2178  0.0814
10579TIP3    H153228   4.176   0.985   0.772  0.3727  0.2519 -0.1475
10579TIP3    H253229   4.259   0.861   0.796  0.2091  0.1424 -0.1486
10580TIP3   OH253230   0.146   1.341  11.861  0.3000  0.2789 -0.1608
10580TIP3    H153231   0.138   1.247  11.847  0.9275  0.2720 -0.4970
10580TIP3    H253232   0.171   1.376  11.776 -3.7524  1.2974 -1.1535
10581TIP3   OH253233   5.794   5.228  14.877 -0.2214 -0.6180 -0.4747
10581TIP3    H153234   5.719   5.171  14.895  0.3064 -0.8948  0.9799
10581TIP3    H253235   5.761   5.292  14.814 -1.4684 -1.1578 -0.4059
10582TIP3   OH253236   5.121   2.553  15.150 -0.3903 -0.0292  0.2936
10582TIP3    H153237   5.117   2.648  15.147  0.3551  0.0014 -1.0939
10582TIP3    H253238   5.040   2.524  15.108  0.1069  0.0540 -0.7786
10583TIP3   OH253239   5.503   6.389  12.184  0.1673 -0.1496  0.1704
10583TIP3    H153240   5.578   6.445  12.168 -0.1476  0.4592  0.7635
10583TIP3    H253241   5.499   6.331  12.108  0.5776  0.5431 -0.3888
10584TIP3   OH253242   0.474   3.794  11.103  0.2931 -0.1047  0.0342
10584TIP3    H153243   0.430   3.717  11.138  0.4710 -0.1791  0.0943
10584TIP3    H253244   0.426   3.815  11.023 -1.1212  1.0086  1.1146
10585TIP3   OH253245   2.144   0.904   0.976  0.2178 -0.3253 -0.1701
10585TIP3    H153246   2.121   0.911   1.069 -0.6095  1.5813 -0.4674
10585TIP3    H253247   2.129   0.811   0.955 -0.2027 -0.6632  1.4350
10586TIP3   OH253248   0.947   0.193   6.037 -0.1712  0.2584  0.2091
10586TIP3    H153249   0.961   0.101   6.060  0.7856  0.2374 -0.4060
10586TIP3    H253250   0.852   0.201   6.029 -0.2059 -1.0762 -1.2988
10587TIP3   OH253251   0.406   6.603   2.753 -0.2443 -0.3069 -0.5730
10587TIP3    H153252   0.437   6.686   2.789 -1.2830 -0.8336  1.7326
10587TIP3    H253253   0.421   6.539   2.824 -0.7691 -1.7938 -1.7507
10588TIP3   OH253254   3.567   6.698   0.093 -0.0940  0.3592  0.3320
10588TIP3    H153255   3.571   6.745   0.009  0.4087 -0.3369 -0.0347
10588TIP3    H253256   3.595   6.609   0.072  0.8608  0.4018  1.4114
10589TIP3   OH253257   0.618   2.546  15.789 -0.0985 -0.2049  0.1844
10589TIP3    H153258   0.570   2.473  15.828 -2.5988  0.1153 -1.9364
10589TIP3    H253259   0.549   2.609  15.766  0.9681 -0.3941 -4.6102
10590TIP3   OH253260   1.484   0.656   3.159  0.0400 -0.0601  0.1552
10590TIP3    H153261   1.408   0.602   3.183  0.0537  0.1188  0.6059
10590TIP3    H253262   1.507   0.702   3.239 -0.2086  0.9253 -0.3284
10591TIP3   OH253263   6.652   5.791  14.168  0.6164  0.1165  0.2042
10591TIP3    H153264   6.624   5.880  14.188 -0.8821 -0.2526 -0.1353
10591TIP3    H253265   6.735   5.802  14.122 -0.4811  1.4912 -1.5856
10592TIP3   OH253266   6.705   2.916  16.102 -0.2728  0.2228 -0.6188
10592TIP3    H153267   6.792   2.940  16.136 -0.4105 -0.3973  0.1826
10592TIP3    H253268   6.678   2.841  16.155  0.1412 -1.7761 -3.0455
10593TIP3   OH253269   4.005   1.126  16.931 -0.0995  0.3952  0.3739
10593TIP3    H153270   4.053   1.051  16.964 -0.0809 -0.3141 -1.1960
10593TIP3    H253271   3.913   1.100  16.933 -0.1071  0.3744 -0.0173
10594TIP3   OH253272   5.409   1.958  14.767 -0.3059  0.2967  0.3750
10594TIP3    H153273   5.421   1.978  14.674  1.4796  1.8068  0.8712
10594TIP3    H253274   5.452   1.873  14.779  1.7048  1.2353  0.2367
10595TIP3   OH253275   0.514   1.594  14.935  0.1311  0.1545  0.0961
10595TIP3    H153276   0.462   1.674  14.944  0.5751  0.6560 -1.4276
10595TIP3    H253277   0.470   1.530  14.991 -0.6434  1.2704  0.8011
10596TIP3   OH253278   3.153   2.048  13.653 -0.1345 -0.0983  0.0202
10596TIP3    H153279   3.155   2.121  13.715  0.7390 -0.5665  0.5516
10596TIP3    H253280   3.081   2.069  13.594 -0.7634  0.5224  0.9867
10597TIP3   OH253281   6.518   2.520   3.163 -0.5901  0.6137 -0.1556
10597TIP3    H153282   6.563   2.588   3.114  1.4245  0.2574  1.0929
10597TIP3    H253283   6.427   2.551   3.169 -0.0736  2.4107 -0.9561
10598TIP3   OH253284   0.329   5.979   5.228  0.6579  0.1397 -0.3772
10598TIP3    H153285   0.381   6.051   5.192  1.4058 -0.7053 -1.0641
10598TIP3    H253286   0.239   6.010   5.226  1.0503  1.3771  0.1653
10599TIP3   OH253287   1.248   1.249  12.362  0.1486 -1.0754  0.0034
10599TIP3    H153288   1.306   1.215  12.431 -2.3667 -0.8434  2.4042
10599TIP3    H253289   1.242   1.343  12.381  0.5860 -0.7082 -1.5320
10600TIP3   OH253290   0.584   0.211  17.195  0.1003  0.3323  0.1886
10600TIP3    H153291   0.573   0.306  17.203  0.4813  0.3886  0.0364
10600TIP3    H253292   0.609   0.196  17.104 -0.6561  0.0159  0.0226
10601TIP3   OH253293   2.639   2.417   6.056 -0.1640 -0.1255  0.1979
10601TIP3    H153294   2.723   2.371   6.050 -0.0286  0.2212 -0.8677
10601TIP3    H253295   2.663   2.508   6.077 -0.3302 -0.2217  0.8002
10602TIP3   OH253296   6.713   6.466   0.671 -0.1680 -0.4212  0.0655
10602TIP3    H153297   6.670   6.419   0.600 -0.2598 -1.3429  0.7198
10602TIP3    H253298   6.669   6.436   0.750 -1.9141  2.5905  0.3643
10603TIP3   OH253299   4.292   3.556  12.231 -0.1102  0.0481  0.2184
10603TIP3    H153300   4.309   3.463  12.220 -1.8212 -0.1029 -1.9291
10603TIP3    H253301   4.197   3.563  12.234 -0.0088  1.5898  2.5478
10604TIP3   OH253302   4.519   5.451   4.745  0.0977 -0.5319 -0.2056
10604TIP3    H153303   4.573   5.511   4.796  1.3750 -1.1068 -0.8243
10604TIP3    H253304   4.429   5.473   4.769  0.4678  2.0984 -0.9095
10605TIP3   OH253305   2.745   5.063   2.764 -0.3635 -0.6354 -0.0129
10605TIP3    H153306   2.800   5.141   2.765  0.1415 -0.9823 -0.6205
10605TIP3    H253307   2.677   5.082   2.829  1.0592 -0.6302  1.5616
10606TIP3   OH253308   1.628   3.208   4.528 -0.2327 -0.3553 -0.5285
10606TIP3    H153309   1.593   3.137   4.474 -0.5278  0.1024 -0.9417
10606TIP3    H253310   1.642   3.280   4.467  1.3551 -0.4885 -0.3700
10607TIP3   OH253311   4.732   5.842   0.766  0.6256 -0.6389  0.1915
10607TIP3    H153312   4.679   5.771   0.803  0.7871 -1.1466 -0.5191
10607TIP3    H253313   4.822   5.818   0.789  0.5310  1.0149  2.7614
10608TIP3   OH253314   2.646   6.672   2.762  1.1436 -0.5136  0.8032
10608TIP3    H153315   2.662   6.608   2.831  2.8485  0.1716  1.1174
10608TIP3    H253316   2.712   6.653   2.695  0.6313 -0.0915  0.1601
10609TIP3   OH253317   0.112   3.163   3.506  0.8585 -0.2961 -0.5854
10609TIP3    H153318   0.178   3.186   3.440  2.0715  0.8909  0.9721
10609TIP3    H253319   0.100   3.243   3.557  1.6417 -1.7405  2.0354
10610TIP3   OH253320   5.146   6.066  12.553 -0.0438  0.4314  0.0448
10610TIP3    H153321   5.109   5.983  12.522  1.9119  0.0796 -1.5635
10610TIP3    H253322   5.071   6.113  12.591 -1.4775 -1.4629 -0.2939
10611TIP3   OH253323   6.239   5.111   4.211 -0.7438  0.4488 -0.0930
10611TIP3    H153324   6.305   5.043   4.219  0.5376  1.6140 -0.4151
10611TIP3    H253325   6.164   5.077   4.260 -0.2231 -1.2594 -0.4207
10612TIP3   OH253326   1.881   6.032   4.427  0.8849 -0.3286 -0.2121
10612TIP3    H153327   1.816   6.003   4.363  1.4769 -0.5870 -0.7061
10612TIP3    H253328   1.928   6.104   4.385  0.9836 -0.2055  0.1018
10613TIP3   OH253329   1.639   4.858  11.243 -0.1425 -0.3300 -0.3113
10613TIP3    H153330   1.694   4.910  11.302 -1.2829  0.3078  0.2204
10613TIP3    H253331   1.635   4.772  11.284 -0.4540 -0.0538  0.2537
10614TIP3   OH253332   6.349   1.150  10.755  0.1473 -0.0915 -0.0849
10614TIP3    H153333   6.411   1.188  10.692  0.2407 -0.2289 -0.0765
10614TIP3    H253334   6.298   1.087  10.704  1.6681 -1.8231  0.3952
10615TIP3   OH253335   6.324   1.193   1.769  0.3303  0.3871 -0.1955
10615TIP3    H153336   6.327   1.176   1.675 -2.7523  1.5440 -0.6305
10615TIP3    H253337   6.284   1.114   1.806 -1.3825  1.1439 -0.3486
10616TIP3   OH253338   0.328   3.523  12.411 -0.1500 -0.1993 -0.1047
10616TIP3    H153339   0.348   3.570  12.491  0.8035  0.2589 -0.5882
10616TIP3    H253340   0.237   3.545  12.391  0.1857  1.2103 -0.1586
10617TIP3   OH253341   4.736   0.187   5.418  0.7587 -0.6668 -0.7336
10617TIP3    H153342   4.677   0.135   5.364 -1.2452 -0.8287  1.4451
10617TIP3    H253343   4.693   0.272   5.426  0.6581 -0.8522  1.0799
10618TIP3   OH253344   2.598   0.791   2.902 -0.6053  0.2595  0.3124
10618TIP3    H153345   2.626   0.701   2.884 -0.3018  0.3110  0.5225
10618TIP3    H253346   2.505   0.792   2.878 -0.4885  0.0245 -0.1669
10619TIP3   OH253347   4.202   5.629  13.690  0.0583  0.2459  0.1926
10619TIP3    H153348   4.155   5.571  13.630  0.4091  2.9631 -2.9884
10619TIP3    H253349   4.293   5.601  13.684 -0.2379 -1.0508  1.4490
10620TIP3   OH253350   5.388   6.646  13.311 -0.4732  0.6436  0.1552
10620TIP3    H153351   5.457   6.669  13.249  0.3580 -0.9856  0.4024
10620TIP3    H253352   5.321   6.604  13.257 -0.4931  0.7107  0.1281
10621TIP3   OH253353   4.937   4.687   4.495  0.1810 -0.1346 -0.1462
10621TIP3    H153354   4.885   4.735   4.560 -0.2024 -1.9254  0.9626
10621TIP3    H253355   5.013   4.743   4.479 -0.7402  1.3014  0.2600
10622TIP3   OH253356   5.879   5.033  12.704 -0.9184 -0.0475  0.2260
10622TIP3    H153357   5.832   4.964  12.658 -0.6464 -0.0273 -0.0867
10622TIP3    H253358   5.811   5.085  12.745 -1.1010 -0.9668  1.1406
10623TIP3   OH253359   5.549   4.823   5.215  0.1158  0.5912  1.2074
10623TIP3    H153360   5.479   4.885   5.234 -0.0289  0.1921  2.0372
10623TIP3    H253361   5.609   4.831   5.290 -0.5044 -1.1064  1.9363
10624TIP3   OH253362   4.351   5.788  17.011  0.2273 -0.4686  0.3216
10624TIP3    H153363   4.265   5.789  16.970  0.4502 -0.8127 -0.1616
10624TIP3    H253364   4.384   5.700  16.996  1.2060  0.0441 -0.6659
10625TIP3   OH253365   6.534   0.978   4.198 -0.2268  0.0824  0.6892
10625TIP3    H153366   6.596   0.906   4.188 -1.0474 -0.5637  0.0908
10625TIP3    H253367   6.456   0.938   4.235 -1.2952  0.2961 -1.1947
10626TIP3   OH253368   0.227   1.272   3.461 -0.0415 -0.2165 -0.3432
10626TIP3    H153369   0.231   1.229   3.375 -1.0731 -1.4949  0.2321
10626TIP3    H253370   0.281   1.217   3.518 -0.4746 -0.1435  0.1433
10627TIP3   OH253371   0.579   0.999   6.127  0.1797  0.4573 -0.4568
10627TIP3    H153372   0.597   0.964   6.039 -3.5511 -1.9072 -0.5338
10627TIP3    H253373   0.619   0.935   6.186  0.3301  0.5283 -0.4818
10628TIP3   OH253374   4.694   1.940  14.807 -0.4795 -0.3291 -0.5527
10628TIP3    H153375   4.640   2.018  14.821  0.7643  0.1874  2.0455
10628TIP3    H253376   4.749   1.961  14.731 -1.0441  0.8047 -0.6590
10629TIP3   OH253377   1.356   4.429   6.170  0.6845  0.2999 -0.0248
10629TIP3    H153378   1.270   4.393   6.148  0.0723  1.5571  0.1519
10629TIP3    H253379   1.419   4.362   6.144 -0.2556  0.0170 -1.6689
10630TIP3   OH253380   2.668   0.105  13.534 -0.0588 -0.0696  0.2777
10630TIP3    H153381   2.608   0.067  13.470  2.0644 -1.0198 -1.3020
10630TIP3    H253382   2.693   0.189  13.496 -1.6306  1.1417  1.7792
10631TIP3   OH253383   0.679   1.609  15.957  0.0562  0.4845  0.1898
10631TIP3    H153384   0.614   1.675  15.983  1.2555  1.3177  1.1983
10631TIP3    H253385   0.722   1.585  16.039  0.8471 -0.2306 -0.4281
10632TIP3   OH253386   2.247   4.269   0.104  0.3797 -0.3730  0.0917
10632TIP3    H153387   2.331   4.279   0.057 -0.0517  1.3161 -0.4056
10632TIP3    H253388   2.183   4.255   0.035  0.0082  0.1282  0.3327
10633TIP3   OH253389   4.257   2.610  14.867  0.1953 -0.3718 -0.3984
10633TIP3    H153390   4.293   2.639  14.951  0.6175  0.1631 -0.7600
10633TIP3    H253391   4.325   2.629  14.803 -0.0621 -0.9201 -0.8481
10634TIP3   OH253392   6.128   2.117  13.889  0.5076  0.3856 -0.7391
10634TIP3    H153393   6.114   2.056  13.816  0.6157 -0.4775 -0.0686
10634TIP3    H253394   6.194   2.073  13.943 -0.5841  0.3377  0.6070
10635TIP3   OH253395   0.803   2.931   5.938 -0.0099  0.2040  0.5268
10635TIP3    H153396   0.845   2.878   5.870 -0.0645 -0.0684  0.7052
10635TIP3    H253397   0.710   2.908   5.932 -0.2735  1.3937 -0.4050
10636TIP3   OH253398   5.377   2.344   3.596 -0.1880 -0.1681 -0.2417
10636TIP3    H153399   5.371   2.414   3.531 -0.3952  0.0474  0.0083
10636TIP3    H253400   5.289   2.338   3.633 -0.2739 -0.8270 -0.5366
10637TIP3   OH253401   4.538   0.641   2.796  0.0960  0.1685 -0.5980
10637TIP3    H153402   4.570   0.560   2.757  0.5454 -0.2889  0.6632
10637TIP3    H253403   4.443   0.632   2.797  0.1190 -0.1420 -0.8639
10638TIP3   OH253404   4.442   6.136   0.270 -0.3117  0.2566  0.0253
10638TIP3    H153405   4.410   6.225   0.286 -0.9220  0.0464 -0.0107
10638TIP3    H253406   4.450   6.129   0.175  0.0690  0.3839  0.0456
10639TIP3   OH253407   1.142   0.503  16.955 -0.1921  0.2735 -0.6717
10639TIP3    H153408   1.104   0.447  16.888 -1.3806 -0.8115  0.8372
10639TIP3    H253409   1.092   0.585  16.950 -0.4179  0.1191 -0.9693
10640TIP3   OH253410   1.232   1.938   2.013  0.0273  0.8425 -0.4188
10640TIP3    H153411   1.180   1.859   2.029  2.7644 -1.0920 -0.3264
10640TIP3    H253412   1.219   1.956   1.920  0.2814 -0.5019 -0.7457
10641TIP3   OH253413   3.210   4.083   4.144  0.6026 -0.3647  0.4551
10641TIP3    H153414   3.237   4.175   4.143 -2.7324  0.7526  1.1705
10641TIP3    H253415   3.138   4.080   4.207 -0.6318 -3.0813 -0.9317
10642TIP3   OH253416   5.656   2.524   6.467  0.1557  0.0919 -0.3433
10642TIP3    H153417   5.595   2.539   6.539  0.7952 -0.4499  0.3264
10642TIP3    H253418   5.681   2.432   6.475  1.3950  0.4103 -0.3268
10643TIP3   OH253419   0.212   2.965  11.705 -0.1002 -0.0350  0.2438
10643TIP3    H153420   0.211   3.060  11.697 -1.4347 -0.1346 -2.1598
10643TIP3    H253421   0.160   2.947  11.783 -0.9532  1.2183  0.0062
10644TIP3   OH253422   1.931   5.019  15.454  0.1435 -0.2875  0.0162
10644TIP3    H153423   1.990   4.954  15.415  2.1690 -0.7054  3.3752
10644TIP3    H253424   1.865   4.967  15.500 -0.5709  0.1288 -0.5268
10645TIP3   OH253425   6.260   5.541  13.719  0.4322 -0.3380 -0.6362
10645TIP3    H153426   6.306   5.616  13.681 -0.5580  0.7006  0.1155
10645TIP3    H253427   6.300   5.530  13.805 -0.7246  0.6654  0.0835
10646TIP3   OH253428   4.307   0.558   0.051 -0.1699  0.4085 -0.2075
10646TIP3    H153429   4.335   0.600   0.132  0.9123  0.1059 -0.4039
10646TIP3    H253430   4.367   0.484   0.041 -1.1043 -0.3129 -0.6265
10647TIP3   OH253431   0.690   6.815  12.180  0.0431  0.1693  0.6591
10647TIP3    H153432   0.649   6.731  12.204 -0.4963  0.5744  1.1830
10647TIP3    H253433   0.653   6.836  12.095  0.8457 -0.5494  0.1129
10648TIP3   OH253434   6.761   3.467  12.041 -0.0984 -0.0353  0.3945
10648TIP3    H153435   6.734   3.559  12.039 -0.3833 -0.1177 -1.3853
10648TIP3    H253436   6.842   3.464  11.989  0.2778 -0.6868  1.0027
10649TIP3   OH253437   2.053   6.093  11.554 -0.7196 -0.0143  0.0179
10649TIP3    H153438   2.017   6.112  11.640 -2.7669  0.1849 -0.8218
10649TIP3    H253439   2.148   6.089  11.567 -1.0036 -0.1798  2.2866
10650TIP3   OH253440   2.624   0.954  12.895  0.0111  0.1156  0.3699
10650TIP3    H153441   2.710   0.994  12.880 -0.1083  0.2533  0.0395
10650TIP3    H253442   2.586   0.947  12.808 -1.1402  1.9314  0.6789
10651TIP3   OH253443   2.793   5.962   1.181 -0.0452  0.1429 -0.1473
10651TIP3    H153444   2.782   5.923   1.268 -3.3794 -0.8307 -0.8679
10651TIP3    H253445   2.834   5.893   1.129  0.0364 -0.0300  0.1423
10652TIP3   OH253446   0.855   0.424  12.357  0.0218  0.3716 -0.9620
10652TIP3    H153447   0.916   0.350  12.363 -0.0797  0.2751 -1.1182
10652TIP3    H253448   0.864   0.454  12.267  0.4298  0.8628 -0.7584
10653TIP3   OH253449   1.739   3.957   2.772  0.5561 -0.1659 -0.6727
10653TIP3    H153450   1.696   4.040   2.795  0.3221 -0.5156  0.1929
10653TIP3    H253451   1.670   3.891   2.778  0.6814 -0.3971 -1.6170
10654TIP3   OH253452   5.350   3.189  15.117 -0.5470 -0.0204 -0.0547
10654TIP3    H153453   5.284   3.259  15.119  1.2686  1.7659  0.4716
10654TIP3    H253454   5.391   3.192  15.204  0.0560 -1.2679 -0.2767
10655TIP3   OH253455   4.039   5.511  13.905  0.1869 -0.1553 -0.1461
10655TIP3    H153456   4.095   5.577  13.864  0.7216 -0.5420 -0.0454
10655TIP3    H253457   3.950   5.543  13.889  0.4173  0.2639 -0.6527
10656TIP3   OH253458   0.779   0.573   5.402 -0.0014  0.2294 -0.0333
10656TIP3    H153459   0.868   0.540   5.393  0.6086  1.9774 -0.7964
10656TIP3    H253460   0.736   0.512   5.462  1.4035 -1.2087 -0.4397
10657TIP3   OH253461   0.170   3.178   0.918  0.1637  0.3349  0.4264
10657TIP3    H153462   0.210   3.093   0.937  1.4228  1.1767  1.7627
10657TIP3    H253463   0.241   3.241   0.929 -1.4073  1.8821  2.6531
10658TIP3   OH253464   1.712   1.084  17.068 -0.4978  0.1177 -0.1638
10658TIP3    H153465   1.783   1.021  17.056 -1.3862 -0.5585 -2.4495
10658TIP3    H253466   1.658   1.046  17.137  0.1678 -0.4688  0.0523
10659TIP3   OH253467   5.822   5.943  11.752  0.1347  0.4248 -0.5107
10659TIP3    H153468   5.828   5.870  11.691 -0.4201  1.5265 -1.9490
10659TIP3    H253469   5.796   6.018  11.698  1.2000  1.8221  0.8125
10660TIP3   OH253470   5.525   5.475  15.669 -0.1674 -0.5885  0.7016
10660TIP3    H153471   5.493   5.389  15.643 -0.8367  0.1165 -0.9464
10660TIP3    H253472   5.458   5.537  15.640  1.4480  0.7081 -0.4855
10661TIP3   OH253473   0.334   5.626   5.676 -0.0436  0.0118  0.1062
10661TIP3    H153474   0.305   5.555   5.619  0.5625  0.6873 -1.0705
10661TIP3    H253475   0.428   5.613   5.684  0.5007  1.9880 -2.0605
10662TIP3   OH253476   3.151   2.093  17.064 -0.6800  0.0156 -0.1297
10662TIP3    H153477   3.247   2.100  17.067 -0.7034  0.2074  1.2264
10662TIP3    H253478   3.132   2.007  17.101 -0.9917 -0.6553 -1.8082
10663TIP3   OH253479   0.193   1.338   0.356 -0.4131  0.3615 -0.2790
10663TIP3    H153480   0.103   1.318   0.331 -0.4290  0.7330 -0.5231
10663TIP3    H253481   0.244   1.324   0.276 -0.0645 -0.9876  0.1386
10664TIP3   OH253482   2.753   6.653  15.324  0.3152 -0.3840 -0.0984
10664TIP3    H153483   2.671   6.683  15.361  0.2706  1.4186 -1.5208
10664TIP3    H253484   2.734   6.565  15.292 -0.0546 -1.3732  2.5912
10665TIP3   OH253485   1.053   5.518  15.281  0.4955  0.4587  0.9745
10665TIP3    H153486   0.986   5.559  15.226 -1.2551 -1.3176  1.6845
10665TIP3    H253487   1.027   5.539  15.371  1.2463  0.2537  1.2494
10666TIP3   OH253488   2.808   0.308   2.865 -0.2497  0.1279 -0.5173
10666TIP3    H153489   2.787   0.218   2.842 -1.1019  0.4945 -1.2231
10666TIP3    H253490   2.897   0.322   2.830 -0.6749 -0.0020 -1.6910
10667TIP3   OH253491   4.957   1.070   1.571 -0.3314  0.1946 -0.4564
10667TIP3    H153492   4.889   1.137   1.572  1.0683  1.7250  1.0880
10667TIP3    H253493   4.914   0.991   1.602 -1.5317  0.9804 -0.0571
10668TIP3   OH253494   0.478   6.383  11.130 -0.3181 -0.1652 -0.4274
10668TIP3    H153495   0.432   6.309  11.091 -1.7858 -0.4719  1.7508
10668TIP3    H253496   0.513   6.431  11.055 -2.9944 -0.7019 -2.1488
10669TIP3   OH253497   6.813   2.832   5.221 -0.4028 -0.4801 -0.3099
10669TIP3    H153498   6.881   2.765   5.213 -0.3922 -0.3963 -0.9425
10669TIP3    H253499   6.779   2.820   5.309  1.8674  0.8471  0.8497
10670TIP3   OH253500   5.353   2.601   1.156  0.0705  0.2632 -0.6663
10670TIP3    H153501   5.260   2.588   1.136  0.1511 -0.6986 -0.4571
10670TIP3    H253502   5.353   2.653   1.236 -0.3217 -0.9743  0.1602
10671TIP3   OH253503   1.981   3.292  14.915  0.9336  0.7267 -0.1059
10671TIP3    H153504   1.898   3.248  14.898  0.5050  1.8467 -1.0345
10671TIP3    H253505   1.968   3.338  14.998  0.0126  2.2828 -1.0765
10672TIP3   OH253506   5.020   0.749  15.827 -0.3840  0.7213  0.0877
10672TIP3    H153507   5.065   0.776  15.747  0.9332  0.2030  0.6255
10672TIP3    H253508   4.949   0.692  15.796  0.8125 -0.4249 -0.6865
10673TIP3   OH253509   5.985   1.518   5.931  0.0020  0.3021  0.7723
10673TIP3    H153510   5.949   1.599   5.896  0.2701  0.7112  1.4363
10673TIP3    H253511   6.009   1.539   6.021  0.3319 -0.4365  0.8630
10674TIP3   OH253512   2.018   2.169   4.691  0.0946 -0.3950 -0.9571
10674TIP3    H153513   2.062   2.225   4.627 -1.8304 -0.3567 -2.3347
10674TIP3    H253514   2.070   2.179   4.771  0.2778  2.7792 -1.3349
10675TIP3   OH253515   4.298   6.041  12.514 -0.1046  0.3775 -0.0846
10675TIP3    H153516   4.214   6.055  12.471  0.1705  0.2744 -0.6685
10675TIP3    H253517   4.301   6.107  12.584 -0.8818  0.0468  0.2682
10676TIP3   OH253518   5.833   3.027   5.085 -0.1528  0.7770  0.1993
10676TIP3    H153519   5.850   3.039   4.991 -1.0414 -0.9807 -0.2292
10676TIP3    H253520   5.741   3.049   5.096 -0.7190 -1.3059  0.1463
10677TIP3   OH253521   6.191   4.306  16.849 -0.2856 -0.4405  0.0878
10677TIP3    H153522   6.107   4.262  16.860  0.1650 -1.2685  0.3109
10677TIP3    H253523   6.234   4.298  16.935 -0.0756  0.1739  0.0425
10678TIP3   OH253524   3.747   1.085  17.026  0.4448 -0.2069  0.2996
10678TIP3    H153525   3.732   1.021  17.095  2.0995 -1.5941 -0.5400
10678TIP3    H253526   3.660   1.112  16.997 -0.2681 -1.0522  1.6076
10679TIP3   OH253527   0.892   4.133  14.930  0.1458 -0.3911 -0.0036
10679TIP3    H153528   0.884   4.165  14.841  1.0718  0.0534  0.0580
10679TIP3    H253529   0.908   4.211  14.983 -0.7718 -0.6033  0.6133
10680TIP3   OH253530   3.475   0.996  11.586 -0.3368  0.4134  0.3029
10680TIP3    H153531   3.402   0.935  11.571 -0.5361  0.6914  0.1260
10680TIP3    H253532   3.544   0.942  11.623 -0.6859  0.1738  0.6131
10681TIP3   OH253533   3.447   3.215  12.353  0.0036  0.1806  0.8096
10681TIP3    H153534   3.441   3.173  12.267 -3.4303  0.7119  0.6579
10681TIP3    H253535   3.486   3.300  12.335 -1.8502  0.8019 -0.5035
10682TIP3   OH253536   2.838   3.473   0.440 -0.5477 -0.0971 -0.2467
10682TIP3    H153537   2.863   3.394   0.392  0.8998  0.1384  0.0628
10682TIP3    H253538   2.878   3.462   0.526 -0.2204  1.0169 -0.2399
10683TIP3   OH253539   6.287   1.868   4.064  0.5087 -0.3514 -0.5990
10683TIP3    H153540   6.340   1.826   4.132 -1.1174 -0.0594  0.9555
10683TIP3    H253541   6.258   1.950   4.105  0.1681  0.2413 -1.9901
10684TIP3   OH253542   5.904   2.076   2.676 -0.3711  0.7407  0.2319
10684TIP3    H153543   5.975   2.135   2.653  0.2457 -0.3072 -0.6140
10684TIP3    H253544   5.879   2.034   2.594 -0.4908 -0.5018  0.8740
10685TIP3   OH253545   5.888   0.943  16.675 -0.2559  0.8781 -0.0871
10685TIP3    H153546   5.981   0.924  16.691 -0.3349  0.0734 -0.5093
10685TIP3    H253547   5.854   0.969  16.761  0.2087  0.5097  0.2169
10686TIP3   OH253548   6.597   4.566  15.075  0.0417 -0.1953 -0.2582
10686TIP3    H153549   6.593   4.576  15.170  1.7112  0.4629 -0.2256
10686TIP3    H253550   6.510   4.535  15.051 -1.5048  2.6300  1.1225
10687TIP3   OH253551   1.505   5.951   1.174  0.4280  0.5917 -0.5655
10687TIP3    H153552   1.543   5.924   1.090 -0.5386 -0.5443 -0.6699
10687TIP3    H253553   1.414   5.919   1.170  0.5387 -0.0465  1.1547
10688TIP3   OH253554   1.106   6.247   3.053 -0.4462 -0.5164  0.1756
10688TIP3    H153555   1.113   6.211   3.142 -1.1344  1.1568  0.9532
10688TIP3    H253556   1.135   6.338   3.061 -1.0252 -0.1802 -1.1932
10689TIP3   OH253557   6.776   5.562  14.808 -0.2842 -0.3113  0.0806
10689TIP3    H153558   6.855   5.512  14.787 -0.2723 -0.6223  0.8256
10689TIP3    H253559   6.712   5.533  14.744  0.6606  1.1918 -1.6403
10690TIP3   OH253560   2.954   3.798  16.829  0.1008 -0.6983 -0.4359
10690TIP3    H153561   3.033   3.756  16.861 -0.5080 -0.4239  1.5370
10690TIP3    H253562   2.882   3.751  16.872 -0.6599  1.0863  0.3396
10691TIP3   OH253563   6.460   6.672  14.748  0.2990 -0.1345 -0.0047
10691TIP3    H153564   6.527   6.642  14.686 -1.2324 -1.3596 -1.1360
10691TIP3    H253565   6.443   6.596  14.804 -1.7116 -0.6336 -1.1861
10692TIP3   OH253566   1.995   0.672   4.160 -0.1383  0.3129  0.3529
10692TIP3    H153567   1.973   0.738   4.094 -0.0735 -2.1068 -2.2313
10692TIP3    H253568   1.911   0.643   4.195 -0.1543  1.9941  1.9019
10693TIP3   OH253569   2.337   4.676   3.625  0.1411  0.0217 -0.0054
10693TIP3    H153570   2.430   4.656   3.618  0.1079  0.2320 -1.1510
10693TIP3    H253571   2.300   4.602   3.674  0.8535 -0.2096  0.1879
10694TIP3   OH253572   6.494   3.165  14.706 -0.0639 -0.4234 -0.4413
10694TIP3    H153573   6.428   3.175  14.774 -1.7428 -0.2765 -1.9920
10694TIP3    H253574   6.574   3.200  14.744 -1.3537  1.3115  0.8428
10695TIP3   OH253575   6.571   3.778   5.059 -0.5529 -0.6719 -0.0620
10695TIP3    H153576   6.517   3.771   4.981  0.8775  0.5492 -1.2211
10695TIP3    H253577   6.514   3.821   5.123 -1.4068 -0.7166 -0.7667
10696TIP3   OH253578   2.413   4.305  16.056  0.0412 -0.3805  0.1197
10696TIP3    H153579   2.405   4.397  16.081  0.7797 -0.5294  0.9818
10696TIP3    H253580   2.356   4.295  15.980 -0.2626  0.7205  0.1896
10697TIP3   OH253581   3.968   2.351   3.545  0.3404  0.3366 -0.3769
10697TIP3    H153582   3.925   2.278   3.590  1.5260 -0.2807 -0.2097
10697TIP3    H253583   3.900   2.387   3.488 -0.9310  0.5575  1.2085
10698TIP3   OH253584   4.974   2.911   4.528 -0.4624  0.3908 -0.0346
10698TIP3    H153585   5.027   2.917   4.448  0.7392  2.3712  0.8521
10698TIP3    H253586   5.024   2.853   4.586 -1.1316 -0.7064 -0.5082
10699TIP3   OH253587   1.727   2.928   1.588  0.3482 -0.2881 -0.3676
10699TIP3    H153588   1.719   2.834   1.576 -2.1702 -0.4600  1.6950
10699TIP3    H253589   1.812   2.941   1.631  0.1210 -1.7990  0.5976
10700TIP3   OH253590   6.105   2.099  16.096  0.3833 -0.2304 -0.3303
10700TIP3    H153591   6.103   2.103  16.000 -2.4448  0.1303 -0.3653
10700TIP3    H253592   6.053   2.020  16.117 -0.4242  0.5874  0.8743
10701TIP3   OH253593   1.790   1.650   4.166  0.2336 -0.4752  0.0168
10701TIP3    H153594   1.711   1.701   4.149 -1.1235 -2.0471  1.2931
10701TIP3    H253595   1.814   1.673   4.256 -0.9778 -2.7408  0.9754
10702TIP3   OH253596   0.668   5.420  16.627  0.5881 -0.0847  0.0617
10702TIP3    H153597   0.639   5.338  16.586  2.1904 -0.0576 -1.2297
10702TIP3    H253598   0.699   5.473  16.553 -0.0414  1.5332  0.9299
10703TIP3   OH253599   0.193   6.722   3.985 -0.4843  0.7180  0.5430
10703TIP3    H153600   0.162   6.708   3.895  0.0357 -0.3149  0.5125
10703TIP3    H253601   0.152   6.805   4.012 -1.0394  0.7863 -0.4681
10704TIP3   OH253602   4.346   0.777  12.971 -0.3980 -0.8386  0.3631
10704TIP3    H153603   4.399   0.725  13.032  2.1606 -1.2135 -1.9838
10704TIP3    H253604   4.376   0.867  12.984 -0.0207 -0.8871 -0.1576
10705TIP3   OH253605   0.497   3.888   6.820  0.1943  0.3809  0.3231
10705TIP3    H153606   0.433   3.818   6.801  0.7779 -0.2693  0.6933
10705TIP3    H253607   0.574   3.841   6.853  0.4207  1.2434  1.0504
10706TIP3   OH253608   0.494   3.406   0.436  0.9912  0.4397  0.2209
10706TIP3    H153609   0.437   3.338   0.473  0.3910  0.7364 -0.1479
10706TIP3    H253610   0.555   3.426   0.507  1.7159 -1.0690  0.0694
10707TIP3   OH253611   3.438   4.197   0.922  0.1451  0.3216  0.4711
10707TIP3    H153612   3.481   4.240   0.995  1.4794 -1.3488  0.7443
10707TIP3    H253613   3.394   4.121   0.961 -1.2536  0.7824 -0.1305
10708TIP3   OH253614   4.269   0.413   1.006  0.5431 -0.0317 -0.8683
10708TIP3    H153615   4.236   0.492   0.963  0.0311  0.9938  1.2816
10708TIP3    H253616   4.358   0.403   0.972  0.9521  2.0063 -0.5209
10709TIP3   OH253617   4.579   0.394  15.910  0.4175 -0.1235  0.1920
10709TIP3    H153618   4.648   0.338  15.876  0.8974  0.8905 -0.5926
10709TIP3    H253619   4.498   0.347  15.891  0.8574 -0.9825  0.4348
10710TIP3   OH253620   3.641   5.125  15.399 -0.4031 -0.3236 -0.1698
10710TIP3    H153621   3.655   5.136  15.305 -0.3996  0.9446 -0.0429
10710TIP3    H253622   3.702   5.187  15.439 -0.6418 -0.6163  0.6544
10711TIP3   OH253623   2.047   6.490   2.797 -0.1248 -0.0067  0.4699
10711TIP3    H153624   2.003   6.406   2.812  1.0008 -1.1762 -2.1734
10711TIP3    H253625   2.140   6.470   2.801  0.1716  0.8869 -1.0938
10712TIP3   OH253626   1.898   4.242   6.557 -0.1652 -0.0189  0.1903
10712TIP3    H153627   1.821   4.224   6.610 -0.2430  1.8458  0.7601
10712TIP3    H253628   1.865   4.291   6.481  0.4073  0.5623  0.3039
10713TIP3   OH253629   3.314   5.030   4.691  0.2056  0.0844  0.5494
10713TIP3    H153630   3.319   4.941   4.655  1.8145 -0.3202  1.6308
10713TIP3    H253631   3.314   5.087   4.614 -0.8284 -0.8339 -0.1599
10714TIP3   OH253632   6.362   5.613   5.792 -0.5825  0.0090 -0.2698
10714TIP3    H153633   6.267   5.599   5.797 -0.5680 -0.1718 -0.4687
10714TIP3    H253634   6.398   5.553   5.858 -0.6512  0.6437  0.3614
10715TIP3   OH253635   2.367   6.369   0.975 -0.1751 -0.0465  1.1393
10715TIP3    H153636   2.378   6.460   0.945 -0.9753 -0.3818 -0.2454
10715TIP3    H253637   2.420   6.317   0.915  0.0299 -0.5415  1.7349
10716TIP3   OH253638   6.576   3.121  12.411 -0.8512  0.6215  0.4543
10716TIP3    H153639   6.628   3.190  12.369  0.9559  0.5428  2.3787
10716TIP3    H253640   6.621   3.040  12.388 -1.1592  0.3861  0.6883
10717TIP3   OH253641   3.775   0.389  12.557  0.0244  0.7782 -0.7610
10717TIP3    H153642   3.785   0.426  12.645  0.8146 -1.3840  0.1303
10717TIP3    H253643   3.681   0.389  12.542 -0.3291 -0.8291  1.0586
10718TIP3   OH253644   5.478   6.605   3.825  0.5936  0.6527 -0.2377
10718TIP3    H153645   5.414   6.536   3.808  1.0754  0.2760 -0.5560
10718TIP3    H253646   5.444   6.680   3.776  0.0173  0.6771  0.1887
10719TIP3   OH253647   2.670   6.166   3.167 -0.4643 -0.0282 -0.5801
10719TIP3    H153648   2.659   6.194   3.076  0.4355  1.8708 -0.1554
10719TIP3    H253649   2.765   6.164   3.180 -0.5433 -1.5495 -0.0172
10720TIP3   OH253650   0.276   0.332   1.859 -0.2431  0.1887  0.5429
10720TIP3    H153651   0.252   0.264   1.921  1.6326 -1.5050 -0.4801
10720TIP3    H253652   0.265   0.292   1.773  2.5220  0.4878 -0.0492
10721TIP3   OH253653   4.973   2.499  14.783 -0.9803 -0.5075  0.2366
10721TIP3    H153654   4.890   2.474  14.743 -0.5870 -1.1610 -0.1956
10721TIP3    H253655   4.949   2.545  14.863 -1.8216  1.5065 -1.1032
10722TIP3   OH253656   1.968   5.844  14.235  0.0455 -0.0235 -0.2998
10722TIP3    H153657   1.903   5.906  14.266  1.6151  1.2043  0.7242
10722TIP3    H253658   1.948   5.763  14.282 -1.7247 -0.1916 -1.2788
10723TIP3   OH253659   2.938   6.390   4.179 -0.5772 -0.2562  0.3578
10723TIP3    H153660   2.956   6.450   4.252  3.0661  0.4262 -0.8811
10723TIP3    H253661   2.874   6.437   4.125  0.2540  1.4221  0.7381
10724TIP3   OH253662   0.019   4.238  16.135  0.2150 -0.5877 -0.0521
10724TIP3    H153663  -0.021   4.274  16.214 -0.6829 -0.9333 -0.3396
10724TIP3    H253664   0.112   4.233  16.156  0.2734  1.2182  0.2542
10725TIP3   OH253665   5.197   6.456  14.777  0.1905 -0.8800 -0.5891
10725TIP3    H153666   5.222   6.516  14.707  2.4994 -2.0464 -0.8810
10725TIP3    H253667   5.184   6.372  14.732 -0.5688 -1.1307  0.0964
10726TIP3   OH253668   1.128   4.152  13.496 -0.4131  0.1945 -0.3573
10726TIP3    H153669   1.186   4.225  13.518 -1.5270  0.6866  1.1377
10726TIP3    H253670   1.043   4.193  13.479 -1.6446 -0.7851  2.6787
10727TIP3   OH253671   1.676   3.182   0.655  0.7030  0.5297 -0.0450
10727TIP3    H153672   1.664   3.089   0.637  0.3870  0.4938  0.3332
10727TIP3    H253673   1.672   3.224   0.570 -0.2433  0.3133 -0.1128
10728TIP3   OH253674   3.367   0.938  10.823  0.2752  0.2140  0.4298
10728TIP3    H153675   3.293   0.907  10.874 -2.4773  3.0698 -1.4657
10728TIP3    H253676   3.427   0.976  10.888 -1.6689  1.0859  1.7889
10729TIP3   OH253677   4.948   0.427  12.838 -0.3694  0.5134 -0.3465
10729TIP3    H153678   4.991   0.511  12.857  0.1100  0.4489 -1.1223
10729TIP3    H253679   5.020   0.365  12.827 -0.6019  0.5519 -2.4015
10730TIP3   OH253680   1.631   1.118  14.398  0.5152  0.3206 -0.5472
10730TIP3    H153681   1.666   1.094  14.484  0.7246 -2.2973 -1.2506
10730TIP3    H253682   1.703   1.165  14.356  0.6379  1.0702  0.4760
10731TIP3   OH253683   6.119   0.468  12.636  0.4556 -0.2648 -0.2901
10731TIP3    H153684   6.054   0.537  12.650 -0.5757 -1.3883  0.6860
10731TIP3    H253685   6.191   0.511  12.590 -0.7573  1.1397 -0.9412
10732TIP3   OH253686   6.057   2.863  16.084  0.5539 -0.4919  0.2461
10732TIP3    H153687   6.144   2.866  16.044  1.4972  0.8396  2.1961
10732TIP3    H253688   6.010   2.937  16.047  0.9482 -0.0693  0.5748
10733TIP3   OH253689   1.108   6.712   1.071 -0.6343  0.2553 -0.0910
10733TIP3    H153690   1.158   6.693   1.150 -1.5069  1.5527  0.8063
10733TIP3    H253691   1.174   6.740   1.007  0.0330 -0.4116  0.2847
10734TIP3   OH253692   1.512   3.706   4.928  0.8031  0.1568 -0.0847
10734TIP3    H153693   1.545   3.646   4.861  1.7440  1.4018 -0.8019
10734TIP3    H253694   1.575   3.779   4.926  1.4383 -0.2002  2.8626
10735TIP3   OH253695   2.487   4.664   1.567 -0.4249  0.5408 -0.0392
10735TIP3    H153696   2.514   4.616   1.645 -0.0382  1.9701  0.7571
10735TIP3    H253697   2.566   4.670   1.513 -0.3087  0.8208  0.1602
10736TIP3   OH253698   6.486   3.221   2.673 -0.2985 -0.3573  0.1112
10736TIP3    H153699   6.540   3.275   2.615 -1.4702 -0.2496 -0.9232
10736TIP3    H253700   6.456   3.149   2.617 -0.9165 -0.6165  0.7609
10737TIP3   OH253701   0.487   0.897   4.235  0.1792  0.2465 -0.9159
10737TIP3    H153702   0.538   0.950   4.296  0.2068  0.6174 -1.2618
10737TIP3    H253703   0.397   0.927   4.246 -0.2889 -1.5249  0.9094
10738TIP3   OH253704   5.200   3.056   5.322  0.0314  0.0746 -0.0922
10738TIP3    H153705   5.209   3.011   5.406  1.5662  0.8993  0.2089
10738TIP3    H253706   5.200   3.149   5.344 -0.9940  0.2854 -0.8963
10739TIP3   OH253707   3.607   4.907  13.696  0.0163 -0.5697 -0.0363
10739TIP3    H153708   3.555   4.827  13.690 -0.8643 -0.0425  0.2433
10739TIP3    H253709   3.544   4.977  13.679  0.7754  0.0604 -0.2880
10740TIP3   OH253710   4.884   1.266  11.756 -0.2820 -0.4995  0.1880
10740TIP3    H153711   4.934   1.249  11.836 -1.1033 -1.8768  0.4331
10740TIP3    H253712   4.807   1.209  11.762 -2.1720  1.8706  0.0364
10741TIP3   OH253713   6.065   4.424   2.352  0.1565 -0.0387 -0.2221
10741TIP3    H153714   6.072   4.334   2.320 -2.1301 -0.7753  1.0957
10741TIP3    H253715   6.113   4.424   2.435 -1.6511 -0.7132  0.8803
10742TIP3   OH253716   2.548   5.300   3.566  0.1300  0.0826 -0.1431
10742TIP3    H153717   2.562   5.335   3.654 -0.5690  0.9938 -0.3865
10742TIP3    H253718   2.512   5.213   3.580 -0.0625  0.2567  0.4743
10743TIP3   OH253719   0.171   5.835   5.643 -0.4629 -0.3653 -0.0432
10743TIP3    H153720   0.172   5.877   5.557  0.5061 -1.0273 -0.3805
10743TIP3    H253721   0.248   5.777   5.642  0.4916  0.7844  1.8594
10744TIP3   OH253722   4.015   3.872   0.584  0.1777 -0.2419 -0.2350
10744TIP3    H153723   4.108   3.858   0.606  0.3099  0.7418 -0.1160
10744TIP3    H253724   4.014   3.955   0.537 -0.7112  0.0001  0.1918
10745TIP3   OH253725   5.840   6.332   0.610 -0.6424 -0.6215  0.0182
10745TIP3    H153726   5.861   6.354   0.701  0.8363 -0.6131 -0.3039
10745TIP3    H253727   5.793   6.410   0.577  1.6589  0.7746 -0.1457
10746TIP3   OH253728   0.521   2.798  17.226  0.3316 -0.8181  0.1879
10746TIP3    H153729   0.502   2.707  17.248  0.2555 -0.8132  0.1444
10746TIP3    H253730   0.474   2.848  17.293  1.7930 -0.8383  1.2770
10747TIP3   OH253731   4.651   0.054  11.804  0.2460 -0.5938  0.5603
10747TIP3    H153732   4.622   0.095  11.722 -0.1731  1.0224  1.4765
10747TIP3    H253733   4.607  -0.030  11.805 -1.9822  0.5000  0.4213
10748TIP3   OH253734   4.161   1.321  14.354 -0.1830 -0.2655  0.1947
10748TIP3    H153735   4.196   1.282  14.275  0.4131 -0.5664  0.6057
10748TIP3    H253736   4.068   1.334  14.335 -0.0408 -0.3134 -0.5571
10749TIP3   OH253737   4.750   6.206  10.511  0.2518  0.0213  0.5705
10749TIP3    H153738   4.662   6.201  10.548  0.1637  1.9788  0.7518
10749TIP3    H253739   4.758   6.127  10.457 -1.9958  0.2447 -0.2191
10750TIP3   OH253740   0.912   6.228   3.501  0.5201 -0.3848  0.5112
10750TIP3    H153741   0.835   6.179   3.529  1.3000 -0.4470  2.7604
10750TIP3    H253742   0.985   6.170   3.519  1.1455 -0.2539 -1.4203
10751TIP3   OH253743   6.419   5.257  11.044  0.2313  0.5006  0.1616
10751TIP3    H153744   6.418   5.342  10.999 -0.9353  0.1182 -0.5695
10751TIP3    H253745   6.347   5.208  11.006  0.4148 -0.5637  1.1076
10752TIP3   OH253746   2.720   2.716   2.011 -0.5640  0.1443  0.3537
10752TIP3    H153747   2.718   2.793   1.955  2.9523 -0.7369 -1.2362
10752TIP3    H253748   2.812   2.706   2.036 -1.0756 -2.8624  1.4516
10753TIP3   OH253749   5.436   4.180  13.739  0.0680  0.3968  0.5816
10753TIP3    H153750   5.523   4.145  13.720 -0.1696 -0.3802  0.9016
10753TIP3    H253751   5.422   4.247  13.672 -0.1769 -1.2915 -1.1101
10754TIP3   OH253752   2.616   0.998   3.610 -0.3453 -0.0720  0.2239
10754TIP3    H153753   2.534   0.948   3.617  0.4649 -1.3819  0.5929
10754TIP3    H253754   2.605   1.051   3.531 -1.0849 -1.1265 -0.4082
10755TIP3   OH253755   4.686   1.220  16.811 -0.0742 -1.0467  0.1727
10755TIP3    H153756   4.700   1.187  16.722  0.6830 -0.8852  0.2184
10755TIP3    H253757   4.645   1.305  16.800 -0.9992 -1.5064  0.0168
10756TIP3   OH253758   1.143   2.852   5.833  0.6226  0.0930 -0.5267
10756TIP3    H153759   1.154   2.947   5.832  2.2341 -0.0403 -2.3456
10756TIP3    H253760   1.138   2.830   5.926 -0.7255  2.0078 -0.0741
10757TIP3   OH253761   1.158   3.532   2.551 -0.0086  0.0974  0.0296
10757TIP3    H153762   1.196   3.538   2.463 -0.8362 -1.8786 -0.5128
10757TIP3    H253763   1.102   3.609   2.557  1.7724  1.4979 -0.2537
10758TIP3   OH253764   5.160   3.598   2.123 -0.6273 -0.4636  0.4371
10758TIP3    H153765   5.184   3.585   2.031  1.3740 -0.3647  0.9068
10758TIP3    H253766   5.122   3.686   2.125  1.6640  0.6298  0.0639
10759TIP3   OH253767   5.966   4.256  11.456  0.4427 -0.4807 -0.0855
10759TIP3    H153768   6.025   4.299  11.394  1.2181 -1.3278  0.0461
10759TIP3    H253769   5.984   4.299  11.539  0.8197 -0.6779 -0.0635
10760TIP3   OH253770   2.663   1.004   0.802  0.7535  0.2793  0.3105
10760TIP3    H153771   2.584   0.989   0.854 -0.1026 -1.2005 -1.3280
10760TIP3    H253772   2.728   0.944   0.839  1.3262  1.8523  1.9833
10761TIP3   OH253773   2.138   5.782  11.782  0.4027 -0.2403  0.2166
10761TIP3    H153774   2.138   5.711  11.846 -0.2591  0.3417  0.8764
10761TIP3    H253775   2.108   5.741  11.701 -0.5582 -0.5966  0.7337
10762TIP3   OH253776   2.409   5.789   4.373  0.3544  0.0193 -0.3809
10762TIP3    H153777   2.415   5.772   4.467  1.3069  0.9095 -0.2632
10762TIP3    H253778   2.418   5.703   4.332  2.1535 -0.1379  0.2747
10763TIP3   OH253779   6.353   3.866   3.330 -0.2145 -0.2409  0.0773
10763TIP3    H153780   6.402   3.806   3.274  0.0064  0.0242 -0.0148
10763TIP3    H253781   6.297   3.810   3.383  0.9730 -0.6285  0.9688
10764TIP3   OH253782   0.242   0.824   3.436  0.3119 -0.2384 -0.6030
10764TIP3    H153783   0.164   0.871   3.407  0.4004 -1.5320 -3.1664
10764TIP3    H253784   0.315   0.882   3.413  0.2221  0.5281  0.8915
10765TIP3   OH253785   0.261   6.808  15.271  0.8371  0.7423 -0.4336
10765TIP3    H153786   0.312   6.729  15.254 -0.3178  0.5691 -3.9732
10765TIP3    H253787   0.194   6.781  15.333  0.6449 -1.0344 -1.3676
10766TIP3   OH253788   2.443   5.715   5.059 -0.2954 -0.2728 -0.2921
10766TIP3    H153789   2.400   5.673   5.133 -1.1804 -0.8988 -1.1204
10766TIP3    H253790   2.381   5.704   4.986  0.7866 -0.1918 -1.2592
10767TIP3   OH253791   6.553   2.086   0.363  0.2048 -0.3258  0.3468
10767TIP3    H153792   6.609   2.080   0.440 -1.3219  2.6964  1.8577
10767TIP3    H253793   6.612   2.111   0.292  1.0850  1.0370  1.4994
10768TIP3   OH253794   2.554   2.944  11.433 -0.0956 -0.1764 -0.2082
10768TIP3    H153795   2.541   3.022  11.378 -2.2485 -0.5638 -0.2954
10768TIP3    H253796   2.470   2.929  11.475  0.6274 -1.7686  0.7720
10769TIP3   OH253797   3.273   4.009  15.020 -0.8543  0.1874  0.0201
10769TIP3    H153798   3.316   3.924  15.030  0.6197  0.9779  0.6806
10769TIP3    H253799   3.202   4.008  15.083 -0.5063 -0.3669  0.4120
10770TIP3   OH253800   2.428   4.776   2.471 -0.0533 -0.0545 -0.5558
10770TIP3    H153801   2.472   4.785   2.555  0.7594  0.4986 -1.0230
10770TIP3    H253802   2.496   4.745   2.411 -0.3235  0.6670 -1.2588
10771TIP3   OH253803   4.828   4.944  16.606 -0.0917  0.4380  0.4893
10771TIP3    H153804   4.888   4.976  16.673 -0.2904 -2.0003  1.9623
10771TIP3    H253805   4.762   4.894  16.655 -2.7097  2.0263 -1.1719
10772TIP3   OH253806   6.139   0.634   0.391  0.2632  0.0894  0.0280
10772TIP3    H153807   6.194   0.630   0.469  0.4412  0.8448 -0.0569
10772TIP3    H253808   6.188   0.585   0.324  0.4038 -0.0201  0.2108
10773TIP3   OH253809   5.148   5.025  12.536  0.3630  0.3269 -0.4624
10773TIP3    H153810   5.179   5.102  12.585 -0.5363  1.1798 -1.1843
10773TIP3    H253811   5.194   5.030  12.452  0.8629 -0.3570 -0.2357
10774TIP3   OH253812   4.783   1.582   2.401 -0.4276  0.8509  0.8601
10774TIP3    H153813   4.863   1.568   2.451 -0.3439  0.6611  0.6721
10774TIP3    H253814   4.737   1.499   2.406 -0.4803  0.8733  0.7305
10775TIP3   OH253815   5.437   5.455  16.280 -0.1028  0.2696 -0.0535
10775TIP3    H153816   5.356   5.479  16.326  0.2423 -0.1664  0.7986
10775TIP3    H253817   5.502   5.518  16.312 -0.2015  0.9294 -1.1047
10776TIP3   OH253818   2.016   1.633  13.284  0.2813  0.3626  0.6846
10776TIP3    H153819   2.004   1.716  13.237 -0.6202  0.2179  0.6382
10776TIP3    H253820   2.102   1.602  13.256 -0.0948  0.4453 -0.6165
10777TIP3   OH253821   2.872   4.507  12.297 -0.3664 -0.2962 -0.0824
10777TIP3    H153822   2.895   4.502  12.204 -2.5641  0.9616 -0.7574
10777TIP3    H253823   2.951   4.539  12.339  0.4500 -0.1871 -1.6189
10778TIP3   OH253824   4.815   1.865  12.313  0.5843 -0.3837  0.1664
10778TIP3    H153825   4.728   1.902  12.294  0.6506 -1.3347 -2.2704
10778TIP3    H253826   4.808   1.773  12.288  2.5406 -0.2849 -0.8951
10779TIP3   OH253827   4.775   1.236  12.922  1.1345  0.2756 -0.3514
10779TIP3    H153828   4.731   1.304  12.870  1.6599  0.5172 -0.4814
10779TIP3    H253829   4.822   1.183  12.858  1.4833  0.3484 -0.1537
10780TIP3   OH253830   2.424   3.324   2.288  0.1503 -0.7841  0.4082
10780TIP3    H153831   2.482   3.251   2.271  2.8134  1.3748 -0.4127
10780TIP3    H253832   2.384   3.343   2.204 -0.3632 -1.1065  0.5718
10781TIP3   OH253833   5.697   6.588   4.020 -0.2129  0.3224  0.1897
10781TIP3    H153834   5.765   6.522   4.006  0.6645  1.3545 -0.6047
10781TIP3    H253835   5.641   6.582   3.943  1.0720  1.8621 -0.9292
10782TIP3   OH253836   4.640   6.006  11.160 -0.1755 -0.4485  0.3268
10782TIP3    H153837   4.677   6.075  11.104 -0.3393 -0.1498  0.5802
10782TIP3    H253838   4.656   5.925  11.112 -0.3868 -0.1885 -0.1950
10783TIP3   OH253839   0.705   3.091   4.104 -0.7523  0.1011 -1.0066
10783TIP3    H153840   0.739   3.176   4.075  0.3433 -0.1355 -0.4345
10783TIP3    H253841   0.727   3.031   4.033 -2.7010  0.5057 -2.0359
10784TIP3   OH253842   1.783   0.508  12.408 -0.2699  0.3659 -0.6307
10784TIP3    H153843   1.871   0.529  12.439 -1.1203  0.1630  2.2028
10784TIP3    H253844   1.789   0.418  12.378 -0.0213 -0.6112  2.1172
10785TIP3   OH253845   5.527   4.740  15.407  0.3725  0.1655 -0.8511
10785TIP3    H153846   5.502   4.670  15.346 -1.0006  0.2835 -0.4635
10785TIP3    H253847   5.470   4.813  15.385 -0.6091  0.0070  0.9442
10786TIP3   OH253848   6.356   5.737  11.451  0.2485  0.7651 -0.1261
10786TIP3    H153849   6.355   5.694  11.365 -0.2963 -0.5295  0.4920
10786TIP3    H253850   6.441   5.713  11.488  0.3214  0.9872 -0.1537
10787TIP3   OH253851   3.900   1.494  11.133  0.1404  0.2462  0.5695
10787TIP3    H153852   3.810   1.523  11.117 -0.1062 -0.2336  1.0469
10787TIP3    H253853   3.947   1.516  11.052 -0.5931 -0.2279 -0.0039
10788TIP3   OH253854   5.459   0.383  15.322 -0.4630  0.1488  0.7571
10788TIP3    H153855   5.543   0.338  15.330 -0.4821 -0.0491 -0.0842
10788TIP3    H253856   5.394   0.314  15.337 -0.5051 -0.2956 -1.2193
10789TIP3   OH253857   3.834   5.678  15.510 -0.0944  0.1447  0.2821
10789TIP3    H153858   3.872   5.637  15.433 -1.4244  0.8493 -0.8027
10789TIP3    H253859   3.886   5.757  15.524 -0.6946  0.7563 -0.7894
10790TIP3   OH253860   1.362   5.172  14.453 -0.6289  0.2334  0.4286
10790TIP3    H153861   1.353   5.140  14.543 -0.3951 -0.0190  0.3617
10790TIP3    H253862   1.433   5.236  14.457  0.7087 -1.1836  0.0585
10791TIP3   OH253863   4.794   4.236   3.224 -0.3407 -0.0719 -0.1308
10791TIP3    H153864   4.776   4.329   3.235 -0.5672 -0.3550  2.8662
10791TIP3    H253865   4.748   4.211   3.144 -2.2056  1.9361  0.2169
10792TIP3   OH253866   2.035   0.607  13.890  0.0124  0.1096  0.4577
10792TIP3    H153867   2.029   0.535  13.953 -0.1943  0.0931  0.4201
10792TIP3    H253868   2.091   0.573  13.820 -0.4022 -0.1525  0.2540
10793TIP3   OH253869   4.198   0.059   0.297 -0.6558 -0.4255 -0.1525
10793TIP3    H153870   4.121   0.095   0.254  0.3373  1.3768 -0.5241
10793TIP3    H253871   4.245   0.136   0.331  1.4503 -1.3667 -0.7392
10794TIP3   OH253872   2.859   6.409   2.180 -0.0950  0.4393 -0.3692
10794TIP3    H153873   2.841   6.363   2.099 -0.2431  1.5531 -0.9798
10794TIP3    H253874   2.827   6.498   2.166  2.2042  1.3809 -0.0471
10795TIP3   OH253875   0.318   6.572  16.964 -0.1938  0.1527  0.1849
10795TIP3    H153876   0.306   6.616  16.880  0.0907 -0.9676 -0.4583
10795TIP3    H253877   0.398   6.522  16.954  0.4619  0.8778  1.5256
10796TIP3   OH253878   2.122   4.946   0.205  0.2833 -0.6630 -0.4455
10796TIP3    H153879   2.070   5.005   0.259  0.4657 -0.9805  0.0812
10796TIP3    H253880   2.098   4.858   0.234  1.4106 -0.8082  0.0963
10797TIP3   OH253881   1.135   4.315  16.239  0.5438 -0.3342  0.5811
10797TIP3    H153882   1.150   4.222  16.220 -0.1966 -0.2780 -0.3451
10797TIP3    H253883   1.044   4.319  16.267 -1.2172  0.7168 -4.3566
10798TIP3   OH253884   5.083   4.769   1.388 -0.4046 -0.1934 -0.0573
10798TIP3    H153885   5.130   4.729   1.461 -1.1440  0.9384  1.0775
10798TIP3    H253886   5.017   4.824   1.429  0.1016  1.6210 -1.5275
10799TIP3   OH253887   2.356   2.046  10.393  0.3583  0.4660  0.4955
10799TIP3    H153888   2.365   2.059  10.299 -0.9216 -0.6596  0.1995
10799TIP3    H253889   2.281   2.100  10.418  1.1098  1.3130  1.0339
10800TIP3   OH253890   0.090   0.892  16.124 -0.5574 -0.4748 -0.3906
10800TIP3    H153891   0.116   0.800  16.112  0.9318 -0.4430  1.8448
10800TIP3    H253892   0.173   0.938  16.136 -1.3666  0.9178  0.0084
10801TIP3   OH253893   3.849   1.942   2.963 -0.0507  0.3411 -0.1787
10801TIP3    H153894   3.915   1.937   2.894  0.1248  2.4402 -0.2210
10801TIP3    H253895   3.817   2.032   2.959 -2.6319 -0.4682  0.1228
10802TIP3   OH253896   6.668   6.192  15.431  0.1103  0.6189  0.2508
10802TIP3    H153897   6.687   6.104  15.400  1.2848  1.1575 -0.6230
10802TIP3    H253898   6.696   6.192  15.522 -0.4397 -0.0673  0.4282
10803TIP3   OH253899   0.216   2.984   5.920 -0.0924 -0.5250  0.4156
10803TIP3    H153900   0.245   3.062   5.874 -2.8510  0.2107 -0.2664
10803TIP3    H253901   0.158   3.017   5.988 -0.2600 -1.9133  0.9732
10804TIP3   OH253902   6.124   5.498   4.271 -0.1293 -0.3167  0.4019
10804TIP3    H153903   6.077   5.416   4.284  0.6353 -0.6030  1.5332
10804TIP3    H253904   6.112   5.547   4.352  2.7706 -1.0879  1.4249
10805TIP3   OH253905   4.498   1.855   0.909 -0.3713 -0.1916 -0.0561
10805TIP3    H153906   4.435   1.900   0.853 -0.0880  0.3798  0.0746
10805TIP3    H253907   4.583   1.891   0.882  0.2455 -2.8143 -2.0641
10806TIP3   OH253908   1.877   1.863  16.752  0.3230  0.3472  0.3446
10806TIP3    H153909   1.870   1.835  16.843  1.0558 -0.1951  0.2427
10806TIP3    H253910   1.820   1.939  16.746  0.2967  0.4112  1.2670
10807TIP3   OH253911   0.898   4.752  17.076  0.1623 -0.2263  0.0589
10807TIP3    H153912   0.901   4.830  17.021  0.9029 -0.2376  0.0769
10807TIP3    H253913   0.806   4.725  17.074 -0.0311  0.4381 -0.2335
10808TIP3   OH253914   1.920   2.282  12.219  0.1448  0.9288  0.1897
10808TIP3    H153915   1.838   2.305  12.175  0.7649 -0.4810 -1.8228
10808TIP3    H253916   1.898   2.284  12.312 -1.8409  1.7642 -0.2442
10809TIP3   OH253917   5.685   6.207   4.073 -0.2461  0.2831  0.1545
10809TIP3    H153918   5.731   6.248   4.146  0.8148 -1.3372  0.4654
10809TIP3    H253919   5.753   6.194   4.007 -0.6202 -0.6044 -0.0687
10810TIP3   OH253920   1.508   1.750   0.139 -0.4698  0.9344 -0.2450
10810TIP3    H153921   1.420   1.727   0.109 -0.5778  0.7951  0.1773
10810TIP3    H253922   1.493   1.816   0.207 -0.4130 -1.1129  1.8647
10811TIP3   OH253923   2.145   1.119  14.551 -0.1219  0.1516  0.2012
10811TIP3    H153924   2.205   1.106  14.478 -0.3942  1.7484 -0.3605
10811TIP3    H253925   2.101   1.035  14.562 -0.5468  0.0541 -1.9163
10812TIP3   OH253926   6.342   4.068   6.166 -0.2765 -0.4357 -0.7026
10812TIP3    H153927   6.428   4.089   6.202 -0.5262  0.9257 -0.8300
10812TIP3    H253928   6.316   3.988   6.211  0.2031  0.2171  0.8075
10813TIP3   OH253929   4.338   0.309   3.322  0.0955 -0.2783  0.8030
10813TIP3    H153930   4.320   0.310   3.415  1.5780 -2.0416  1.1771
10813TIP3    H253931   4.263   0.266   3.283  0.7567 -2.2651  1.5987
10814TIP3   OH253932   4.838   5.421  15.843 -0.3959  0.2138  0.6434
10814TIP3    H153933   4.773   5.454  15.905 -0.5201 -0.7730  1.0612
10814TIP3    H253934   4.806   5.334  15.818 -0.5155  0.7065 -1.0712
10815TIP3   OH253935   3.334   1.470  14.489 -0.8251 -0.0493  0.5601
10815TIP3    H153936   3.325   1.513  14.574 -0.7115 -1.0619  1.0958
10815TIP3    H253937   3.251   1.425  14.476 -1.2032  0.8615 -0.3139
10816TIP3   OH253938   5.639   3.964  16.313 -0.3755 -0.0968  0.0563
10816TIP3    H153939   5.606   4.003  16.394 -1.2967 -0.3375 -0.1961
10816TIP3    H253940   5.733   3.984  16.314 -0.9522  3.5084 -0.7585
10817TIP3   OH253941   3.100   5.591   2.476  0.3831 -0.3167 -0.3114
10817TIP3    H153942   3.133   5.510   2.435 -2.7623 -0.9509 -1.9060
10817TIP3    H253943   3.095   5.570   2.569 -2.2285 -2.8687 -0.8711
10818TIP3   OH253944   2.262   6.382  15.269  0.3733 -0.3363 -0.6209
10818TIP3    H153945   2.256   6.474  15.295  3.4233  0.2149 -1.4628
10818TIP3    H253946   2.256   6.333  15.351  0.3964  0.7097  0.0209
10819TIP3   OH253947   4.306   2.047  11.207 -0.0429  0.4461 -0.2438
10819TIP3    H153948   4.286   1.962  11.248 -2.2686  1.3654  0.7697
10819TIP3    H253949   4.379   2.082  11.258 -0.1796 -0.1620  0.3847
10820TIP3   OH253950   3.438   0.356  13.571 -0.3719  0.2111  0.0768
10820TIP3    H153951   3.469   0.407  13.645  2.1147 -0.7554 -0.2026
10820TIP3    H253952   3.360   0.310  13.603  0.1817  0.4449  1.8229
10821TIP3   OH253953   3.890   0.552   4.704  0.1301  0.1667 -0.1856
10821TIP3    H153954   3.873   0.626   4.647  2.2306 -1.0441 -2.5688
10821TIP3    H253955   3.913   0.591   4.788  0.9609  2.2193 -1.2967
10822TIP3   OH253956   3.369   5.773  12.162  0.1458  0.1007 -0.2773
10822TIP3    H153957   3.350   5.867  12.164 -0.2113  0.0146  0.4601
10822TIP3    H253958   3.316   5.740  12.089 -2.1013 -0.0169  1.3138
10823TIP3   OH253959   3.027   3.129  16.445 -0.0235 -0.1184  0.2653
10823TIP3    H153960   3.073   3.091  16.370  0.8709 -0.9989  1.2240
10823TIP3    H253961   3.078   3.207  16.468 -0.5725  0.4257 -0.3158
10824TIP3   OH253962   1.497   2.456  16.194 -0.6015  0.3023 -0.1352
10824TIP3    H153963   1.409   2.420  16.184 -0.9604 -0.4318  4.1039
10824TIP3    H253964   1.488   2.547  16.166 -2.8114  0.3307  0.4691
10825TIP3   OH253965   5.356   4.817  15.849 -0.1562  0.1063  0.2414
10825TIP3    H153966   5.449   4.806  15.869 -0.2248 -1.1492 -0.0060
10825TIP3    H253967   5.354   4.875  15.773  0.4548 -0.1819 -0.0018
10826TIP3   OH253968   3.672   4.777   6.069  0.4238  0.2808  0.0340
10826TIP3    H153969   3.651   4.869   6.053  1.5656  0.5122 -0.1870
10826TIP3    H253970   3.587   4.737   6.089 -0.0376  1.4632  0.5635
10827TIP3   OH253971   0.319   2.862  13.160  0.8868 -0.4981 -0.9808
10827TIP3    H153972   0.386   2.930  13.156  0.6331 -0.2895 -2.3224
10827TIP3    H253973   0.236   2.909  13.148  0.5019 -0.7789  0.4469
10828TIP3   OH253974   0.813   4.121   2.585 -0.3298 -0.3321  0.1957
10828TIP3    H153975   0.900   4.161   2.581  0.0269 -1.1657 -0.9565
10828TIP3    H253976   0.768   4.169   2.654  1.0372  0.1250  0.8058
10829TIP3   OH253977   2.418   2.888   0.481  0.2223  0.1632  0.4992
10829TIP3    H153978   2.388   2.844   0.401  0.9630  2.0908 -0.9050
10829TIP3    H253979   2.355   2.959   0.495  0.3792  0.1444  1.3698
10830TIP3   OH253980   5.963   3.965  12.131 -0.1556 -0.0759 -0.0752
10830TIP3    H153981   6.006   3.990  12.213 -1.8551  1.1486  0.4860
10830TIP3    H253982   5.889   3.910  12.159 -1.4905  1.3536 -0.6328
10831TIP3   OH253983   5.085   4.156   5.763 -0.5131  0.4229 -0.3263
10831TIP3    H153984   5.127   4.240   5.743 -0.2006  0.1885 -0.6774
10831TIP3    H253985   5.020   4.144   5.694 -1.8065  1.1988  0.6981
10832TIP3   OH253986   5.911   0.592   0.548  0.8463 -0.4371 -0.0589
10832TIP3    H153987   5.849   0.535   0.503  0.2682 -0.9018  1.2721
10832TIP3    H253988   5.975   0.616   0.480 -0.4533 -0.3969 -1.3234
10833TIP3   OH253989   6.354   0.209   4.258 -0.3743 -0.1552  0.1451
10833TIP3    H153990   6.296   0.279   4.288  0.0000 -0.4417  1.6086
10833TIP3    H253991   6.295   0.142   4.223 -0.8710 -0.0361  0.7402
10834TIP3   OH253992   2.898   5.861   5.131  0.2222  0.3823  0.7211
10834TIP3    H153993   2.857   5.913   5.201 -1.7623 -0.4829  0.2648
10834TIP3    H253994   2.897   5.771   5.164  0.0957  0.0979 -0.0451
10835TIP3   OH253995   0.181   4.663  13.635 -0.0138 -1.0264 -0.4715
10835TIP3    H153996   0.243   4.728  13.669 -0.5153 -0.5698 -0.4148
10835TIP3    H253997   0.196   4.585  13.687  0.2103 -0.7790 -0.1624
10836TIP3   OH253998   0.338   0.098   5.111  0.1849  0.0517  0.0072
10836TIP3    H153999   0.333   0.008   5.077 -1.1474  0.8417 -2.1225
10836TIP3    H254000   0.247   0.128   5.110  0.7213  1.7715 -0.3674
10837TIP3   OH254001   3.002   1.599   0.951  0.5900 -0.3465 -0.2441
10837TIP3    H154002   3.058   1.622   1.025  0.3973 -1.3241  0.2190
10837TIP3    H254003   3.052   1.625   0.874 -0.6363  4.0321  0.1879
10838TIP3   OH254004   3.452   0.542   1.238 -0.0554 -0.2348 -0.2315
10838TIP3    H154005   3.409   0.547   1.323  0.2284 -2.0515  0.0585
10838TIP3    H254006   3.406   0.607   1.184 -0.3146  0.8662  1.2491
10839TIP3   OH254007   0.213   6.502   0.084 -0.2816 -0.0426 -0.4433
10839TIP3    H154008   0.203   6.570   0.018  0.5587  0.4617 -0.0699
10839TIP3    H254009   0.287   6.449   0.053  1.5698  1.4661  1.0957
10840TIP3   OH254010   6.700   1.638   4.361 -0.4404 -0.9859  0.2553
10840TIP3    H154011   6.771   1.701   4.362 -0.8593 -0.5098  0.9306
10840TIP3    H254012   6.735   1.562   4.407  0.5172 -1.8004 -1.6752
10841TIP3   OH254013   2.532   1.387  11.250 -0.3580 -0.2795  0.1405
10841TIP3    H154014   2.591   1.461  11.238  0.2563 -0.9186 -0.9072
10841TIP3    H254015   2.485   1.406  11.332 -1.8361  2.3635 -1.2023
10842TIP3   OH254016   0.856   5.594  15.079 -0.1077  0.2000  0.1999
10842TIP3    H154017   0.927   5.638  15.032  1.1145 -2.2883 -0.4665
10842TIP3    H254018   0.778   5.613  15.028  0.6466  0.2777 -0.9562
10843TIP3   OH254019   2.383   2.670   5.018  0.5483 -0.0825 -0.8012
10843TIP3    H154020   2.309   2.727   4.999  0.7209 -0.3902 -2.6261
10843TIP3    H254021   2.451   2.699   4.956  0.5865 -2.3242 -1.8969
10844TIP3   OH254022   6.821   6.481   0.324 -0.5929  0.0173 -0.0022
10844TIP3    H154023   6.886   6.510   0.260  1.0085 -2.8563  0.1596
10844TIP3    H254024   6.775   6.561   0.349  1.5452  1.8807 -1.5906
10845TIP3   OH254025   0.528   5.083   0.310 -0.2109 -0.1987 -0.5650
10845TIP3    H154026   0.599   5.135   0.274 -0.9971 -0.0751 -1.9851
10845TIP3    H254027   0.513   5.014   0.246 -0.4547 -1.0558  0.3874
10846TIP3   OH254028   3.043   5.902   3.468  0.0778  0.3465 -0.1628
10846TIP3    H154029   2.965   5.949   3.441 -0.9666 -1.6981 -0.9599
10846TIP3    H254030   3.010   5.832   3.525  1.6158  0.9117  1.5005
10847TIP3   OH254031   6.174   0.803   2.830  0.0388 -0.1688 -0.4652
10847TIP3    H154032   6.241   0.738   2.855 -0.6093 -0.8834 -0.5386
10847TIP3    H254033   6.183   0.812   2.736 -0.0068 -0.3142 -0.4840
10848TIP3   OH254034   6.111   6.154  16.636  0.5508 -0.2191  0.0173
10848TIP3    H154035   6.121   6.240  16.676 -1.5601  0.0692  0.0162
10848TIP3    H254036   6.055   6.168  16.560 -0.7638 -1.7118  0.6426
10849TIP3   OH254037   3.130   2.109  11.101  0.1217 -0.4540  0.3263
10849TIP3    H154038   3.145   2.149  11.187  0.4081 -0.8593  0.4691
10849TIP3    H254039   3.218   2.091  11.067  0.1602 -4.4408  1.9150
10850TIP3   OH254040   0.443   0.388  11.534 -0.1483  0.0068  0.3452
10850TIP3    H154041   0.389   0.433  11.599 -0.9291 -0.6779  0.1932
10850TIP3    H254042   0.469   0.456  11.472  1.0701  0.7899  1.6489
10851TIP3   OH254043   3.685   0.844  11.674  0.9337 -0.4145  0.2917
10851TIP3    H154044   3.713   0.852  11.765  0.2921  1.6991  0.3390
10851TIP3    H254045   3.746   0.780  11.637  0.3363 -2.4526  2.5118
10852TIP3   OH254046   3.834   6.031   0.818 -0.3484  0.0560 -0.1765
10852TIP3    H154047   3.866   5.994   0.901 -1.2758 -1.4295 -0.4376
10852TIP3    H254048   3.847   5.961   0.754 -2.5710 -0.0130 -0.6182
10853TIP3   OH254049   5.876   3.675  11.162 -0.3163  0.8965  0.0278
10853TIP3    H154050   5.802   3.638  11.115  0.7107 -1.5391  0.1783
10853TIP3    H254051   5.859   3.769  11.165 -3.1456  0.4669 -0.3196
10854TIP3   OH254052   6.605   2.173  11.598  0.1315 -0.3513 -0.2774
10854TIP3    H154053   6.579   2.120  11.523 -0.9329  0.8217 -0.7726
10854TIP3    H254054   6.583   2.119  11.674 -1.9213 -0.2256 -0.7408
10855TIP3   OH254055   3.259   0.699   1.067  0.1660  0.7324 -0.4797
10855TIP3    H154056   3.301   0.781   1.094  2.1166 -1.2057  3.2394
10855TIP3    H254057   3.172   0.704   1.105  0.7884  0.5660  1.0415
10856TIP3   OH254058   0.678   0.992  17.145 -0.1361 -0.7888 -0.8371
10856TIP3    H154059   0.741   0.932  17.184 -1.5616 -1.7116  0.1562
10856TIP3    H254060   0.692   0.984  17.050  1.9470 -0.1171 -0.6308
10857TIP3   OH254061   0.803   1.596   2.929 -0.0682 -0.2933  0.4574
10857TIP3    H154062   0.893   1.582   2.899  0.0667  1.2505  0.0810
10857TIP3    H254063   0.754   1.522   2.893  0.7566 -0.3101 -0.6789
10858TIP3   OH254064   0.243   3.610   0.453  0.5956  0.0698  0.3343
10858TIP3    H154065   0.324   3.576   0.492  0.9161  0.3464 -0.0808
10858TIP3    H254066   0.174   3.555   0.491  1.1908 -1.8578 -1.1956
10859TIP3   OH254067   4.789   4.519   0.327 -0.1482  0.0474 -0.0289
10859TIP3    H154068   4.780   4.487   0.237 -0.5760  0.0159  0.0226
10859TIP3    H254069   4.704   4.558   0.347 -0.1195 -0.1201  0.4297
10860TIP3   OH254070   6.062   3.318   5.928  0.2772  0.1311  0.1387
10860TIP3    H154071   5.969   3.339   5.926 -0.6001 -3.2872 -1.2170
10860TIP3    H254072   6.069   3.246   5.991  1.9923  0.1996  0.0733
10861TIP3   OH254073   4.811   5.816  12.993  0.3797  0.0107  0.2585
10861TIP3    H154074   4.814   5.905  12.959  1.4216 -1.2196 -3.3748
10861TIP3    H254075   4.887   5.809  13.050  0.4382  1.3561  0.3621
10862TIP3   OH254076   0.542   5.027  14.644 -0.1155  0.5481  1.0539
10862TIP3    H154077   0.589   5.078  14.710  0.4775 -0.8867  1.7956
10862TIP3    H254078   0.459   5.073  14.632  1.1997  2.8332  0.1353
10863TIP3   OH254079   5.651   2.869  13.032 -0.1330  0.3246 -0.5056
10863TIP3    H154080   5.718   2.851  13.097 -0.0364 -1.2131 -0.9890
10863TIP3    H254081   5.590   2.929  13.076  0.9183  0.8044  0.3311
10864TIP3   OH254082   3.975   4.293  14.356 -0.2685 -0.0387 -0.1801
10864TIP3    H154083   4.033   4.218  14.367  1.7811  1.2224 -1.6262
10864TIP3    H254084   4.033   4.365  14.331 -2.4155  1.4308 -1.2663
10865TIP3   OH254085   6.218   5.559  11.044 -0.6938  0.2610 -0.5161
10865TIP3    H154086   6.293   5.562  10.984 -1.0086 -1.1168 -1.0130
10865TIP3    H254087   6.157   5.624  11.009 -0.1224  0.7501 -0.6341
10866TIP3   OH254088   2.010   0.181  14.656  0.0163 -0.4075 -0.1530
10866TIP3    H154089   1.916   0.162  14.651 -0.0459 -0.3887  0.7707
10866TIP3    H254090   2.018   0.270  14.622 -0.4071 -0.1120  0.5105
10867TIP3   OH254091   0.383   5.193   2.867 -0.0965 -0.4666  0.2453
10867TIP3    H154092   0.457   5.206   2.808  0.4661  1.3784  1.2688
10867TIP3    H254093   0.331   5.124   2.826  0.7802  0.0579 -1.8935
10868TIP3   OH254094   6.487   1.964  11.411  0.4576 -0.7445  0.2301
10868TIP3    H154095   6.420   1.924  11.356  0.4180  1.3371 -1.3710
10868TIP3    H254096   6.569   1.924  11.383  0.3283 -0.3592 -0.7371
10869TIP3   OH254097   2.125   5.525   5.727  0.1449 -0.2051 -0.0828
10869TIP3    H154098   2.196   5.586   5.748  1.0205 -0.5830 -1.7245
10869TIP3    H254099   2.123   5.464   5.800 -0.1198  1.2206  1.1447
10870TIP3   OH254100   3.338   4.516  16.341  0.4904 -0.2135  0.2341
10870TIP3    H154101   3.276   4.460  16.294  1.4251 -0.1104 -1.1533
10870TIP3    H254102   3.334   4.600  16.296  0.9319  0.0924  0.7461
10871TIP3   OH254103   4.297   3.666   0.091  0.1784  0.4680 -0.4442
10871TIP3    H154104   4.319   3.574   0.076 -0.9410 -0.1080  1.1462
10871TIP3    H254105   4.235   3.687   0.021  1.2041  0.3384 -1.4190
10872TIP3   OH254106   5.269   4.033   4.541  0.4232  0.4367  0.4844
10872TIP3    H154107   5.216   3.979   4.482 -0.6621  0.0793  1.7273
10872TIP3    H254108   5.214   4.108   4.560  1.1953  1.0811  0.2200
10873TIP3   OH254109   4.655   4.550   1.709  0.0813 -0.2665  0.8601
10873TIP3    H154110   4.736   4.587   1.674  0.0206  0.8943  1.8897
10873TIP3    H254111   4.660   4.567   1.803 -1.3083 -0.2766  0.9487
10874TIP3   OH254112   3.002   1.896   4.080  0.5393 -0.1717 -0.2001
10874TIP3    H154113   3.076   1.956   4.089 -0.9180  1.7026 -0.1701
10874TIP3    H254114   3.016   1.831   4.149  0.3108  2.2553  2.3236
10875TIP3   OH254115   4.757   6.244   5.521 -0.0567  0.1802 -1.0713
10875TIP3    H154116   4.822   6.261   5.453  1.2480 -0.8211 -0.1278
10875TIP3    H254117   4.699   6.177   5.484  0.8076 -0.5537 -1.1133
10876TIP3   OH254118   0.519   6.063  11.752 -0.0621 -0.0609  0.1752
10876TIP3    H154119   0.536   6.143  11.701  0.1026 -1.0202 -1.3338
10876TIP3    H254120   0.560   5.993  11.701  0.8096 -0.9790  2.0602
10877TIP3   OH254121   6.151   3.479  10.469 -0.4126 -0.6641  0.3032
10877TIP3    H154122   6.239   3.457  10.499 -0.5860 -0.1535  1.2106
10877TIP3    H254123   6.142   3.572  10.488 -1.1275 -0.6997  0.1539
10878TIP3   OH254124   6.008   6.423  15.662  0.4960 -0.7201  0.3651
10878TIP3    H154125   5.974   6.336  15.640  1.8289 -2.1571  3.4135
10878TIP3    H254126   6.099   6.421  15.634  0.0920  0.4855 -1.2335
10879TIP3   OH254127   0.564   5.823  14.709  0.2358 -0.6259  0.3162
10879TIP3    H154128   0.612   5.849  14.630 -1.5079 -0.3440 -0.7091
10879TIP3    H254129   0.554   5.905  14.758  1.5529 -0.8482  0.9918
10880TIP3   OH254130   6.815   1.393  12.661 -0.4414  0.6509  0.5672
10880TIP3    H154131   6.822   1.314  12.715  0.4628 -1.4595 -2.4074
10880TIP3    H254132   6.901   1.435  12.669 -0.6200  0.8843  1.4226
10881TIP3   OH254133   0.325   1.258   0.583  0.3591  0.4670 -0.5312
10881TIP3    H154134   0.352   1.167   0.571 -0.1551  0.2900 -0.3754
10881TIP3    H254135   0.282   1.281   0.501  1.3495  0.8871 -0.9450
10882TIP3   OH254136   4.097   3.522  13.084 -0.2044 -0.5335 -0.0454
10882TIP3    H154137   4.077   3.600  13.136 -0.6728 -2.7412  3.4352
10882TIP3    H254138   4.192   3.522  13.076 -0.2117  0.4645 -0.2619
10883TIP3   OH254139   0.076   3.406  15.891 -0.8697 -0.1895 -0.4036
10883TIP3    H154140   0.094   3.466  15.820 -0.8253  1.0233  0.5933
10883TIP3    H254141   0.022   3.457  15.953  0.0302 -0.8128  0.9520
10884TIP3   OH254142   5.662   4.506   6.229 -0.4417  0.2071 -0.1757
10884TIP3    H154143   5.639   4.534   6.140  0.7442 -1.2582 -0.9750
10884TIP3    H254144   5.586   4.455   6.258 -1.6860  2.2924  0.4681
10885TIP3   OH254145   1.797   4.782  12.232  0.0153  0.1280 -0.1158
10885TIP3    H154146   1.710   4.794  12.194 -0.4643  1.3839  1.2470
10885TIP3    H254147   1.791   4.825  12.318  2.3825  1.5053 -0.5524
10886TIP3   OH254148   3.837   5.722  13.145 -0.2376 -0.3680  0.2713
10886TIP3    H154149   3.843   5.794  13.082  0.2996 -0.7499 -0.1196
10886TIP3    H254150   3.765   5.748  13.203  0.3774  0.7959  0.5396
10887TIP3   OH254151   5.210   5.896   5.585 -0.1956 -0.5090  0.1575
10887TIP3    H154152   5.181   5.852   5.665  0.1250 -2.5181 -0.7820
10887TIP3    H254153   5.162   5.853   5.515 -1.2060  1.8574 -0.7310
10888TIP3   OH254154   6.107   1.438   4.581  0.8178  0.0496  0.1614
10888TIP3    H154155   6.162   1.516   4.571  0.4680  0.4076  0.9700
10888TIP3    H254156   6.092   1.431   4.675  1.9404 -1.7684  0.2471
10889TIP3   OH254157   1.470   1.410   6.319 -0.1349 -0.1753  0.1338
10889TIP3    H154158   1.529   1.361   6.377 -0.7309 -0.4428  0.5205
10889TIP3    H254159   1.479   1.366   6.234  1.0484  0.4684 -0.0929
10890TIP3   OH254160   2.290   2.443  11.766 -0.3739  0.1459 -0.2404
10890TIP3    H154161   2.284   2.353  11.734  0.9180  0.2431 -0.8006
10890TIP3    H254162   2.209   2.456  11.816  0.5735 -2.2491  2.1880
10891TIP3   OH254163   2.400   5.317  15.399  0.3831  0.3026  0.1259
10891TIP3    H154164   2.307   5.333  15.409 -0.0054 -1.4697 -0.3161
10891TIP3    H254165   2.441   5.362  15.473 -0.9500 -0.0044  1.0756
10892TIP3   OH254166   5.005   0.212  15.816  0.3430  0.5160  0.2187
10892TIP3    H154167   5.063   0.255  15.878  0.6383 -2.0745  1.8647
10892TIP3    H254168   4.925   0.194  15.866 -1.6021  2.9543 -1.6699
10893TIP3   OH254169   0.408   3.911   1.333  0.0994  0.2288  0.2249
10893TIP3    H154170   0.429   3.917   1.240 -0.7310  0.6919  0.0573
10893TIP3    H254171   0.344   3.840   1.339 -0.0046  0.3392  0.4197
10894TIP3   OH254172   5.525   3.842  12.986  0.0339 -0.0481  0.2970
10894TIP3    H154173   5.509   3.839  13.080 -0.0981 -1.2872  0.2484
10894TIP3    H254174   5.443   3.874  12.949  0.3097  1.1118  0.6371
10895TIP3   OH254175   4.455   5.609  14.310  0.1930  0.3164 -0.4916
10895TIP3    H154176   4.388   5.569  14.255  0.5351 -0.0567 -0.6454
10895TIP3    H254177   4.445   5.703  14.297  0.6493  0.2165 -1.6512
10896TIP3   OH254178   5.933   5.164   1.849 -0.2848  0.0010  0.3983
10896TIP3    H154179   5.915   5.215   1.928 -1.4112  0.6761 -0.2757
10896TIP3    H254180   6.024   5.136   1.859 -0.5839 -0.4632  2.2289
10897TIP3   OH254181   6.526   3.242   1.425  0.6742 -0.2545  0.3166
10897TIP3    H154182   6.618   3.226   1.402  1.0571 -0.0462  1.5997
10897TIP3    H254183   6.478   3.224   1.344  1.7662 -1.0570 -0.1952
10898TIP3   OH254184   6.401   1.181  16.290 -0.0311 -0.1562  1.2315
10898TIP3    H154185   6.345   1.108  16.264 -2.0084  1.3441  1.0194
10898TIP3    H254186   6.468   1.185  16.222  0.3528 -1.9784  1.4637
10899TIP3   OH254187   2.663   0.567   0.898 -0.5758 -0.7933  0.6485
10899TIP3    H154188   2.583   0.605   0.862  0.1602  0.9430  0.7347
10899TIP3    H254189   2.685   0.497   0.837 -0.3918  0.8510 -1.3052
10900TIP3   OH254190   4.371   5.434  14.837 -0.4097  0.7213  0.2879
10900TIP3    H154191   4.393   5.362  14.778  1.0547  0.9809  0.4656
10900TIP3    H254192   4.344   5.505  14.780  1.2570  1.0620 -0.1297
10901TIP3   OH254193   5.517   1.054   3.262 -0.1869 -0.8051  0.0475
10901TIP3    H154194   5.482   1.030   3.348 -0.3000 -0.6508  0.0457
10901TIP3    H254195   5.541   0.971   3.222 -0.3966 -0.9012  0.1171
10902TIP3   OH254196   4.343   4.836   4.736  0.1204 -0.0195 -0.2381
10902TIP3    H154197   4.276   4.872   4.794 -0.0771  0.3116 -0.6654
10902TIP3    H254198   4.423   4.884   4.758  0.2379 -0.4511  0.3088
10903TIP3   OH254199   2.079   1.951  11.666 -0.0175  0.1086 -0.0009
10903TIP3    H154200   2.065   1.860  11.691 -1.2078  0.5736  1.2119
10903TIP3    H254201   2.152   1.949  11.605  0.2478 -1.6071  0.3234
10904TIP3   OH254202   4.423   3.014   0.768  0.0330  0.3234 -0.2151
10904TIP3    H154203   4.336   3.005   0.807  0.4779 -0.1017  0.7336
10904TIP3    H254204   4.408   3.016   0.674 -0.7913 -2.6469 -0.2303
10905TIP3   OH254205   5.598   2.068   2.992  0.0209  0.3053 -0.4148
10905TIP3    H154206   5.668   2.128   2.966  1.6767 -1.6292 -0.6074
10905TIP3    H254207   5.579   2.017   2.913 -0.3934 -0.3653  0.1053
10906TIP3   OH254208   3.903   5.152   2.896 -0.4902  0.3895  0.5370
10906TIP3    H154209   3.975   5.184   2.950 -0.8816  0.1291  1.2327
10906TIP3    H254210   3.830   5.142   2.957 -1.7668  2.6321 -0.5128
10907TIP3   OH254211   1.259   1.604  16.428 -0.3404 -0.1258  0.2463
10907TIP3    H154212   1.338   1.602  16.482 -0.2551  3.3042  0.4492
10907TIP3    H254213   1.187   1.596  16.490 -0.2592 -2.1562  0.1622
10908TIP3   OH254214   4.259   2.638   4.286  0.3359 -0.3089  0.0866
10908TIP3    H154215   4.329   2.694   4.320  0.9425  0.6558 -2.5512
10908TIP3    H254216   4.293   2.549   4.297  0.6110 -0.0457  1.6598
10909TIP3   OH254217   3.363   5.872  16.221  0.0281 -0.4199  0.1895
10909TIP3    H154218   3.369   5.965  16.200 -0.3223 -0.2990  0.6277
10909TIP3    H254219   3.368   5.828  16.136 -4.4131  0.1639 -0.5899
10910TIP3   OH254220   5.305   3.410  11.171 -0.0728 -0.6514  0.5346
10910TIP3    H154221   5.348   3.351  11.108  1.7466  2.3679 -1.3340
10910TIP3    H254222   5.364   3.411  11.247  0.3055 -0.7044  0.2478
10911TIP3   OH254223   1.558   3.584   2.234  0.0380 -0.0652 -0.3331
10911TIP3    H154224   1.462   3.578   2.229 -0.0799  2.4202 -2.8339
10911TIP3    H254225   1.579   3.543   2.319 -3.1165 -1.3670 -0.0259
10912TIP3   OH254226   2.602   3.945  15.707  0.1309  0.8036  0.3507
10912TIP3    H154227   2.579   3.885  15.778 -0.2983 -0.8849 -1.1264
10912TIP3    H254228   2.573   4.031  15.737 -2.0904 -0.2011  1.2972
10913TIP3   OH254229   5.304   0.818   4.828  0.1415  0.6987  0.3902
10913TIP3    H154230   5.327   0.739   4.878  0.5841 -0.1207 -1.0248
10913TIP3    H254231   5.389   0.858   4.807  0.0427  0.3611 -0.7086
10914TIP3   OH254232   1.720   1.022   0.909 -0.5507 -0.0639 -0.0526
10914TIP3    H154233   1.638   0.977   0.888 -0.4638 -0.0681 -0.3846
10914TIP3    H254234   1.768   0.959   0.963  0.3701 -1.1568 -2.0205
10915TIP3   OH254235   3.572   1.444  12.052  0.7756  0.6463  1.1003
10915TIP3    H154236   3.602   1.419  11.965 -0.2038 -2.0901  1.4500
10915TIP3    H254237   3.635   1.510  12.081  0.6779  2.2524 -1.9301
10916TIP3   OH254238   2.273   1.022   2.847  0.0762  0.1820 -0.0105
10916TIP3    H154239   2.317   1.076   2.781  1.2426 -1.7605 -0.8956
10916TIP3    H254240   2.180   1.042   2.837  0.1623 -0.4622 -2.6700
10917TIP3   OH254241   2.141   0.610   2.542  0.8630 -0.1014  0.0387
10917TIP3    H154242   2.195   0.685   2.517 -0.4125  0.5769 -0.8179
10917TIP3    H254243   2.062   0.649   2.580 -2.2042 -0.5850 -4.9220
10918TIP3   OH254244   6.338   0.862   3.447 -0.3854 -0.0567  0.3695
10918TIP3    H154245   6.370   0.873   3.536  0.7229 -0.2633  0.0152
10918TIP3    H254246   6.295   0.945   3.425 -2.0061 -0.5188  1.5928
10919TIP3   OH254247   5.913   3.312   5.001 -0.1799 -0.1304 -0.5247
10919TIP3    H154248   5.927   3.242   4.938 -0.1032  0.0434 -0.7039
10919TIP3    H254249   5.880   3.385   4.948  0.0219  0.0606 -0.3868
10920TIP3   OH254250   1.668   1.220   1.551  0.3480 -0.8254 -0.1006
10920TIP3    H154251   1.623   1.288   1.602  2.5424 -0.5637  1.6585
10920TIP3    H254252   1.672   1.256   1.463  0.0918  0.6472  0.4461
10921TIP3   OH254253   3.147   1.267  15.852  0.2730  0.3909  0.6707
10921TIP3    H154254   3.164   1.342  15.794  1.0278  0.6076  1.1542
10921TIP3    H254255   3.115   1.198  15.794 -0.0447  0.9571  0.1600
10922TIP3   OH254256   3.716   6.213  16.720 -0.4521 -0.2485 -0.2285
10922TIP3    H154257   3.804   6.221  16.682 -0.6571  0.7319 -0.5266
10922TIP3    H254258   3.730   6.217  16.814 -0.2038  0.1968 -0.2822
10923TIP3   OH254259   6.668   2.610   1.021 -0.3467  0.1410  0.3302
10923TIP3    H154260   6.697   2.701   1.019 -0.6409  0.2435 -1.9612
10923TIP3    H254261   6.678   2.580   0.931 -2.4906 -1.3831  0.5280
10924TIP3   OH254262   6.055   5.353   5.526  0.7081  0.2404 -0.1368
10924TIP3    H154263   6.003   5.330   5.603 -0.3208 -0.2855 -0.9574
10924TIP3    H254264   6.062   5.272   5.477  2.6205  0.2207  0.0952
10925TIP3   OH254265   2.046   0.471   5.520 -0.4748 -0.4324 -0.2900
10925TIP3    H154266   2.043   0.566   5.504  0.2934 -0.0374  1.6638
10925TIP3    H254267   1.957   0.448   5.544 -0.4784 -0.0377  0.0823
10926TIP3   OH254268   5.983   4.600   0.353  0.3222 -0.4843 -0.0321
10926TIP3    H154269   5.914   4.583   0.288  1.1332 -3.7353 -0.2339
10926TIP3    H254270   6.053   4.538   0.330  1.5309 -0.2708  2.6901
10927TIP3   OH254271   2.600   5.381  15.620  0.9910 -0.2162  0.4316
10927TIP3    H154272   2.613   5.472  15.593  0.6527 -0.2203  0.2439
10927TIP3    H254273   2.524   5.384  15.679 -0.8446 -0.7443 -1.7870
10928TIP3   OH254274   0.802   2.005  12.849 -0.8908  0.2657  0.3165
10928TIP3    H154275   0.821   1.911  12.847  1.2695  0.6509 -0.3199
10928TIP3    H254276   0.791   2.029  12.757  0.8213  0.9667  0.2432
10929TIP3   OH254277   3.705   4.567   1.795  0.1655  0.4015 -0.1039
10929TIP3    H154278   3.663   4.627   1.856 -0.5554 -0.0607 -0.1302
10929TIP3    H254279   3.705   4.612   1.711 -1.1209  0.0502 -0.3068
10930TIP3   OH254280   5.499   1.215  11.909 -0.5599  0.1299 -0.3634
10930TIP3    H154281   5.408   1.202  11.881 -0.6098  0.9426 -0.6030
10930TIP3    H254282   5.542   1.256  11.834 -0.1500  0.3143 -0.0337
10931TIP3   OH254283   3.227   0.640  14.552 -0.4064 -0.2134  0.1334
10931TIP3    H154284   3.262   0.665  14.638  1.1559  2.3899 -1.1140
10931TIP3    H254285   3.133   0.652  14.560 -0.2884  0.0029  1.4728
10932TIP3   OH254286   5.830   4.731   1.803 -0.3248  0.0763  0.2593
10932TIP3    H154287   5.778   4.714   1.724  0.0062  1.3069 -0.2416
10932TIP3    H254288   5.911   4.682   1.789 -0.9522 -1.1015  0.6294
10933TIP3   OH254289   2.214   5.388   4.246 -0.7304  0.6418 -0.5814
10933TIP3    H154290   2.139   5.339   4.213 -0.6165 -0.4887  0.7155
10933TIP3    H254291   2.275   5.320   4.277  0.3485  1.5589 -0.6168
10934TIP3   OH254292   5.801   2.767   5.150  0.3785 -0.6186 -0.4668
10934TIP3    H154293   5.788   2.806   5.237  0.2842  0.1660 -0.8262
10934TIP3    H254294   5.819   2.842   5.093  1.0763 -1.1857 -1.0075
10935TIP3   OH254295   2.440   0.015  13.410  0.5940 -0.2017  0.0779
10935TIP3    H154296   2.346   0.003  13.422  0.5672  0.9819  1.2725
10935TIP3    H254297   2.479  -0.063  13.449  0.1919  0.4314  1.8211
10936TIP3   OH254298   5.846   3.630  13.072  0.4378  0.2917 -0.2105
10936TIP3    H154299   5.769   3.604  13.021  1.0666 -3.0179  0.2885
10936TIP3    H254300   5.843   3.573  13.149  3.2094  0.2906 -0.0370
10937TIP3   OH254301   5.794   2.490  15.568 -0.1188  0.5842 -0.1850
10937TIP3    H154302   5.843   2.570  15.547  0.7495  0.3897  0.9886
10937TIP3    H254303   5.836   2.456  15.647 -2.9668  1.0892  1.6980
10938TIP3   OH254304   2.673   1.683  11.555 -0.3305  0.2721  0.6392
10938TIP3    H154305   2.640   1.689  11.465  0.4408  0.4029  0.3597
10938TIP3    H254306   2.723   1.763  11.568  2.0502 -1.0389  0.1524
10939TIP3   OH254307   2.315   3.926   2.724  0.3548 -0.2166  0.2669
10939TIP3    H154308   2.295   3.943   2.816 -2.1638 -0.4699 -0.1464
10939TIP3    H254309   2.383   3.858   2.725  1.1918  0.6076  1.9040
10940TIP3   OH254310   3.650   6.527   0.441  0.2802 -0.2520  0.0755
10940TIP3    H154311   3.732   6.508   0.487  0.2757 -0.4476  0.0028
10940TIP3    H254312   3.633   6.619   0.461  0.6996 -0.1130 -0.1985
10941TIP3   OH254313   2.815   3.522  15.818 -0.1983  0.1989 -0.7267
10941TIP3    H154314   2.861   3.438  15.807 -2.0702 -1.0177  0.3203
10941TIP3    H254315   2.764   3.532  15.738  0.4174  0.6375 -1.0798
10942TIP3   OH254316   4.045   5.610  12.025 -0.0027  0.9728  0.1683
10942TIP3    H154317   4.134   5.638  12.048  0.2275  0.9186 -0.6179
10942TIP3    H254318   4.023   5.544  12.089  1.2642 -0.3913 -0.7370
10943TIP3   OH254319   1.655   1.295   4.674  0.0875 -0.1134 -0.4850
10943TIP3    H154320   1.620   1.236   4.741  3.0724 -1.6203 -0.1134
10943TIP3    H254321   1.583   1.304   4.610 -1.3379 -2.0875  0.7372
10944TIP3   OH254322   6.388   5.654   2.752 -0.1923 -0.0732 -0.2416
10944TIP3    H154323   6.466   5.684   2.799 -0.4367  0.3566 -0.1085
10944TIP3    H254324   6.371   5.567   2.788 -0.9409  0.6325  1.1617
10945TIP3   OH254325   6.286   0.436  16.057 -0.1920  0.3639  0.1022
10945TIP3    H154326   6.368   0.388  16.044  0.3849  0.7807  1.9913
10945TIP3    H254327   6.286   0.460  16.149 -1.7467  1.6837 -0.1987
10946TIP3   OH254328   1.163   3.571   4.216  0.2592  0.2185 -0.0853
10946TIP3    H154329   1.255   3.595   4.218  0.6352 -1.1556  0.1501
10946TIP3    H254330   1.157   3.502   4.149 -0.3434 -0.6293  0.8138
10947TIP3   OH254331   5.778   6.559   2.214 -0.2959 -0.2744  0.0922
10947TIP3    H154332   5.833   6.496   2.261 -0.0777  0.3498  0.6933
10947TIP3    H254333   5.813   6.644   2.240 -1.3942  0.1253  0.2969
10948TIP3   OH254334   0.492   1.984   3.479  0.1933  0.2686 -0.3107
10948TIP3    H154335   0.492   1.892   3.453  0.1619  0.1234  0.1855
10948TIP3    H254336   0.403   2.014   3.461  0.2110  0.2092 -0.4960
10949TIP3   OH254337   4.823   6.363  11.462  0.0482 -0.1998 -0.3415
10949TIP3    H154338   4.884   6.362  11.536  2.1768 -1.1080 -1.9851
10949TIP3    H254339   4.816   6.271  11.436 -0.6780  0.1084 -1.2776
10950TIP3   OH254340   2.993   2.734  13.376 -0.1938  0.2551 -0.2009
10950TIP3    H154341   3.075   2.767  13.414 -0.0525 -2.0872  1.7982
10950TIP3    H254342   2.928   2.746  13.445 -1.2452  0.8794 -1.2770
10951TIP3   OH254343   2.365   5.201  14.425  0.2768  0.3942 -0.9917
10951TIP3    H154344   2.301   5.251  14.374 -1.0183 -0.6304 -0.4193
10951TIP3    H254345   2.391   5.129  14.368 -0.8081 -0.4740 -0.4357
10952TIP3   OH254346   4.370   4.151  16.647 -0.2513  0.7741  0.1195
10952TIP3    H154347   4.281   4.120  16.632 -1.5325  1.8091  4.2002
10952TIP3    H254348   4.419   4.071  16.669 -0.2654  0.2838 -1.5028
10953TIP3   OH254349   6.651   4.133   0.468 -0.1776  0.5481  0.0592
10953TIP3    H154350   6.646   4.070   0.539  1.5276 -0.1513 -0.3953
10953TIP3    H254351   6.575   4.190   0.481 -1.0373 -0.7969  1.2264
10954TIP3   OH254352   4.314   1.497   4.202 -0.5651  0.4347  0.4482
10954TIP3    H154353   4.235   1.535   4.163 -0.6315 -1.5072 -1.5364
10954TIP3    H254354   4.385   1.527   4.145 -0.5886 -1.9746 -0.9881
10955TIP3   OH254355   3.234   4.182  15.857 -0.1014  0.2374 -0.3432
10955TIP3    H154356   3.226   4.140  15.771 -0.4766  0.8000 -0.5904
10955TIP3    H254357   3.231   4.276  15.838  2.3774  0.4560  0.0147
10956TIP3   OH254358   6.776   5.112  14.834 -0.0439 -0.3857  0.3691
10956TIP3    H154359   6.810   5.051  14.769  1.8989  2.2010 -1.2667
10956TIP3    H254360   6.826   5.094  14.913 -0.3772 -1.6839  0.2958
10957TIP3   OH254361   5.108   4.661   0.100  0.3165  0.4469 -0.3449
10957TIP3    H154362   5.021   4.656   0.062 -1.9308 -0.8825  4.3120
10957TIP3    H254363   5.140   4.571   0.101  0.0208  0.3270  1.3189
10958TIP3   OH254364   4.564   0.845   3.883 -0.2480  0.0010  0.4803
10958TIP3    H154365   4.563   0.749   3.886  0.9985 -0.0173  0.9323
10958TIP3    H254366   4.472   0.870   3.885 -0.5956 -1.1858  0.2938
10959TIP3   OH254367   3.455   6.229   1.131 -0.2001 -0.1164 -0.0617
10959TIP3    H154368   3.413   6.143   1.128 -2.7547  1.0087  0.7180
10959TIP3    H254369   3.519   6.226   1.060 -2.2721 -1.6755 -2.0184
10960TIP3   OH254370   4.983   6.715  14.947 -0.3341 -0.0896 -0.6334
10960TIP3    H154371   4.954   6.688  15.034 -0.6816 -1.5777 -1.1795
10960TIP3    H254372   5.078   6.715  14.952 -0.3584  0.2475 -0.1368
10961TIP3   OH254373   2.768   1.509  14.567  0.3071 -0.3485 -0.1159
10961TIP3    H154374   2.841   1.554  14.609 -0.8115  1.5739 -0.1112
10961TIP3    H254375   2.782   1.522  14.473  0.4415 -0.7927 -0.1631
10962TIP3   OH254376   0.630   3.393  15.243  0.4579 -0.5983  0.8429
10962TIP3    H154377   0.654   3.396  15.335 -0.6528 -0.0151  1.1311
10962TIP3    H254378   0.536   3.372  15.243 -0.0115  1.2666 -0.0483
10963TIP3   OH254379   6.117   1.525   5.167  0.3265 -0.4129 -0.3901
10963TIP3    H154380   6.171   1.596   5.201  0.5360 -0.2448 -1.0668
10963TIP3    H254381   6.060   1.501   5.241  0.7609 -0.0454  0.0719
10964TIP3   OH254382   5.924   5.956  13.905  0.2491 -0.2250 -0.7243
10964TIP3    H154383   5.928   5.960  13.810 -0.1289  1.6839 -0.6940
10964TIP3    H254384   5.836   5.988  13.926  1.0528  1.4301  0.3234
10965TIP3   OH254385   5.137   4.607  13.402 -0.3372  0.1031 -0.0266
10965TIP3    H154386   5.147   4.601  13.307 -0.4715  1.9669 -0.1884
10965TIP3    H254387   5.225   4.591  13.436  0.0474  0.9872 -0.5646
10966TIP3   OH254388   5.708   3.129   5.738 -0.3770  0.0297 -0.1751
10966TIP3    H154389   5.674   3.218   5.744 -0.8571 -0.0720 -1.1650
10966TIP3    H254390   5.795   3.133   5.779 -0.7647  0.7393  0.5836
10967TIP3   OH254391   2.389   2.160   2.914  0.5226  0.3211  0.0263
10967TIP3    H154392   2.429   2.247   2.916 -0.0696  0.6123 -0.6515
10967TIP3    H254393   2.393   2.133   2.822 -0.8579  0.3665 -0.0633
10968TIP3   OH254394   1.467   0.594  12.980  0.0235  0.1061 -0.1758
10968TIP3    H154395   1.465   0.614  12.887 -1.5463 -0.0900 -0.2122
10968TIP3    H254396   1.451   0.678  13.023  1.1027  0.2599 -0.0636
10969TIP3   OH254397   0.910   1.832   6.657 -0.3754 -0.6087 -0.1095
10969TIP3    H154398   0.876   1.903   6.712  0.2763 -0.1463 -0.3020
10969TIP3    H254399   0.989   1.802   6.702 -1.1536 -1.8758  0.4863
10970TIP3   OH254400   3.272   4.023  13.003  0.5353  0.9907 -0.0667
10970TIP3    H154401   3.261   3.939  13.046 -1.4586  0.2210 -1.8893
10970TIP3    H254402   3.352   4.014  12.951  0.0212 -0.0472 -0.7175
10971TIP3   OH254403   2.629   1.279   0.680  0.4122 -0.2908 -0.2683
10971TIP3    H154404   2.685   1.304   0.607  0.5573  0.2422  0.0268
10971TIP3    H254405   2.558   1.229   0.639  0.5050 -0.0151 -0.7704
10972TIP3   OH254406   0.481   3.312  16.880 -0.6555  0.0013 -0.4125
10972TIP3    H154407   0.565   3.347  16.852 -0.0435 -1.6500 -0.7800
10972TIP3    H254408   0.464   3.352  16.965  2.1108 -2.0481  1.2333
10973TIP3   OH254409   0.139   2.168   2.121  0.4830 -0.2328 -0.1906
10973TIP3    H154410   0.145   2.156   2.216  3.3259  0.0753 -0.2686
10973TIP3    H254411   0.173   2.256   2.106 -2.0263  0.6281 -1.3741
10974TIP3   OH254412   1.677   0.591   1.529  0.1241  0.1752 -0.1182
10974TIP3    H154413   1.763   0.577   1.566 -0.4026 -0.6875  0.8095
10974TIP3    H254414   1.623   0.519   1.563 -0.1495 -1.3306 -3.3522
10975TIP3   OH254415   1.176   1.753  10.696  0.0135 -0.7295  0.3258
10975TIP3    H154416   1.261   1.778  10.659 -0.1549 -1.4217 -0.5751
10975TIP3    H254417   1.178   1.657  10.697 -0.3542 -0.7368  1.2791
10976TIP3   OH254418   5.298   3.270   0.863  0.2383 -0.1100  0.2224
10976TIP3    H154419   5.358   3.295   0.793 -0.3619  0.5010 -0.0798
10976TIP3    H254420   5.255   3.351   0.889 -0.6715 -0.5723  0.2306
10977TIP3   OH254421   6.302   4.305   6.377  0.0747  0.4513  0.4843
10977TIP3    H154422   6.374   4.260   6.332 -0.2388  1.1177 -0.7514
10977TIP3    H254423   6.311   4.397   6.351 -0.3624  0.7869  1.4917
10978TIP3   OH254424   5.412   4.570   6.008  0.0937  0.8064  0.5012
10978TIP3    H154425   5.338   4.572   5.948  0.5410 -3.0619 -0.4620
10978TIP3    H254426   5.379   4.526   6.086  1.6168 -3.0065 -0.7570
10979TIP3   OH254427   5.220   0.578  15.918 -0.1202 -0.4425 -0.3789
10979TIP3    H154428   5.288   0.555  15.855  0.1680 -0.9728  0.1201
10979TIP3    H254429   5.176   0.654  15.879  0.7213 -0.1262 -0.7269
10980TIP3   OH254430   6.390   2.425   1.895  0.3809 -0.0962  0.3118
10980TIP3    H154431   6.399   2.348   1.951  0.2252  0.6482  1.3805
10980TIP3    H254432   6.295   2.437   1.886  0.4057 -0.1587 -0.0434
10981TIP3   OH254433   6.333   1.702   3.798 -0.3856  0.2779  0.1712
10981TIP3    H154434   6.424   1.728   3.781  0.0220 -0.1812  1.5931
10981TIP3    H254435   6.334   1.666   3.886 -1.7664 -0.6608 -0.1683
10982TIP3   OH254436   3.286   6.710  17.226  0.0043  0.0992 -0.3012
10982TIP3    H154437   3.247   6.625  17.246 -0.8447  0.6436  0.4089
10982TIP3    H254438   3.376   6.703  17.258 -0.6133  0.1070  1.5658
10983TIP3   OH254439   2.350   4.978  14.624  0.1007  0.1640  0.0744
10983TIP3    H154440   2.399   5.034  14.563  2.1604 -0.2173  1.2569
10983TIP3    H254441   2.386   5.000  14.710 -1.3082 -0.7173  0.9232
10984TIP3   OH254442   0.525   5.982  16.499 -0.1351  0.4848 -0.2267
10984TIP3    H154443   0.614   5.996  16.532 -0.0171  1.3763 -0.8891
10984TIP3    H254444   0.474   6.053  16.539 -0.1338  1.1514 -1.3786
10985TIP3   OH254445   2.422   5.291  13.199 -0.2135  0.2531 -0.1199
10985TIP3    H154446   2.373   5.368  13.229 -1.2357 -0.1502 -0.6812
10985TIP3    H254447   2.377   5.264  13.119  0.4325 -0.6367 -0.1947
10986TIP3   OH254448   0.447   1.353  15.043  0.8256  0.0686 -0.2001
10986TIP3    H154449   0.482   1.266  15.064 -1.1046 -1.0178 -1.2346
10986TIP3    H254450   0.374   1.336  14.984  0.1718  2.3923 -0.1526
10987TIP3   OH254451   2.548   5.614  16.141  0.1977  0.0091  0.4176
10987TIP3    H154452   2.537   5.693  16.089  0.6534 -0.8405 -1.0050
10987TIP3    H254453   2.504   5.634  16.224  0.1888  1.6877  0.0359
10988TIP3   OH254454   5.638   3.910   0.357  0.0838 -0.1520 -0.1963
10988TIP3    H154455   5.622   3.841   0.293 -0.4400  1.3844 -1.8040
10988TIP3    H254456   5.551   3.934   0.389  0.1964  0.1780 -0.1272
10989TIP3   OH254457   2.830   3.999   0.872  0.1596  0.2100  0.0083
10989TIP3    H154458   2.892   3.940   0.829 -1.2909 -0.3040 -1.4889
10989TIP3    H254459   2.778   3.942   0.929 -1.1245  0.0253 -1.3028
10990TIP3   OH254460   5.189   6.795   3.285 -0.1265 -0.0020 -0.5083
10990TIP3    H154461   5.194   6.865   3.350 -2.2233  0.6187 -0.9266
10990TIP3    H254462   5.274   6.751   3.289  0.3688  1.0535  1.4595
10991TIP3   OH254463   2.637   0.919  14.142 -0.4539 -0.1537  0.2455
10991TIP3    H154464   2.585   0.853  14.188 -2.0977  1.2233  0.4963
10991TIP3    H254465   2.579   0.951  14.073  0.4940  0.6484 -0.2098
10992TIP3   OH254466   3.314   2.726   1.286  0.2266  0.0297 -0.3818
10992TIP3    H154467   3.284   2.639   1.313  1.0364  0.2820  1.4763
10992TIP3    H254468   3.233   2.776   1.273 -0.3158  0.0562  2.3527
10993TIP3   OH254469   1.157   3.628   2.987 -0.4038 -0.4773 -0.0906
10993TIP3    H154470   1.221   3.611   2.918 -0.8157  1.1269 -0.9253
10993TIP3    H254471   1.075   3.590   2.953 -0.6975  0.6598 -0.6967
10994TIP3   OH254472   1.499   1.224   5.172 -0.4150 -0.0548 -0.2010
10994TIP3    H154473   1.560   1.187   5.236  0.5170  3.8761  1.5171
10994TIP3    H254474   1.418   1.236   5.221 -1.0596 -0.8502 -1.0510
10995TIP3   OH254475   6.492   5.866   4.061 -0.1491 -1.0035  0.4080
10995TIP3    H154476   6.453   5.929   4.000 -0.2365  2.1890  3.4502
10995TIP3    H254477   6.453   5.782   4.037 -1.8926  0.4451 -2.3856
10996TIP3   OH254478   3.274   4.443   0.330 -0.0792  1.1909  0.3112
10996TIP3    H154479   3.289   4.435   0.424 -0.2901 -2.4467  0.1457
10996TIP3    H254480   3.186   4.480   0.323 -1.0454 -0.7150  1.6342
10997TIP3   OH254481   1.915   2.906   4.330  0.1476  0.5107  0.3573
10997TIP3    H154482   1.871   2.867   4.254  1.9419  0.5734 -0.7593
10997TIP3    H254483   1.962   2.834   4.371  0.6738  0.8209  0.3165
10998TIP3   OH254484   2.134   2.941   2.391 -0.4902  0.3880  0.3523
10998TIP3    H154485   2.144   3.037   2.395 -0.6961  0.4253 -0.0324
10998TIP3    H254486   2.219   2.908   2.421 -1.0714  0.6597  2.5243
10999TIP3   OH254487   3.587   0.151  16.646 -0.2719  0.5879  0.6386
10999TIP3    H154488   3.609   0.193  16.729  2.1350 -0.8536  0.8387
10999TIP3    H254489   3.579   0.058  16.667 -0.2381  0.2758 -0.6293
11000TIP3   OH254490   4.873   3.125   4.674  0.1342 -0.1952  0.0765
11000TIP3    H154491   4.897   3.056   4.611  0.9324  0.3580 -0.2431
11000TIP3    H254492   4.847   3.077   4.753 -1.6535 -0.9239 -0.9137
11001TIP3   OH254493   4.502   5.420   1.932 -0.0747 -0.4712  0.3968
11001TIP3    H154494   4.455   5.472   1.997  1.3117 -0.6187  1.5761
11001TIP3    H254495   4.568   5.479   1.897 -0.7489 -0.4243 -0.8587
11002TIP3   OH254496   5.987   1.143  11.246 -0.1868  0.4432 -0.2107
11002TIP3    H154497   5.911   1.187  11.284 -0.4402 -0.3542  0.2225
11002TIP3    H254498   5.974   1.051  11.267  0.5991  0.2257 -0.6596
11003TIP3   OH254499   0.987   2.734  15.293  0.3678  0.0441  0.1442
11003TIP3    H154500   0.901   2.696  15.271  1.1328 -2.1155  0.6732
11003TIP3    H254501   1.002   2.708  15.383  1.5032  0.6084  0.1289
11004TIP3   OH254502   6.810   3.132  15.888  0.0458  0.1977  0.7118
11004TIP3    H154503   6.868   3.207  15.875 -1.0200  1.1450  1.1657
11004TIP3    H254504   6.735   3.168  15.936 -0.9687 -0.9386  0.0556
11005TIP3   OH254505   6.453   1.756  14.442  0.6288  0.1999 -0.6448
11005TIP3    H154506   6.438   1.799  14.527  1.3194 -0.2425 -0.2899
11005TIP3    H254507   6.455   1.828  14.379 -0.9652  0.4517 -0.4588
11006TIP3   OH254508   6.778   1.048   1.941 -0.1614  0.0351  0.1352
11006TIP3    H154509   6.705   1.033   1.881 -0.5742  1.1992  0.3172
11006TIP3    H254510   6.737   1.056   2.027  0.3739 -1.0577  0.5091
11007TIP3   OH254511   3.326   4.059   2.033 -0.0490  0.4078  0.3315
11007TIP3    H154512   3.380   4.137   2.022 -0.3230  0.5759  0.1882
11007TIP3    H254513   3.245   4.090   2.073  0.2825  0.0361  1.3144
11008TIP3   OH254514   1.182   4.573   1.006  0.1619  0.6985  0.3852
11008TIP3    H154515   1.157   4.497   0.954  1.8847  0.1739  0.2490
11008TIP3    H254516   1.141   4.647   0.961 -0.9334 -0.0538  0.1001
11009TIP3   OH254517   6.437   2.243  14.035 -0.8873 -0.1519 -0.4638
11009TIP3    H154518   6.414   2.321  13.984  0.4094  0.8676  0.4024
11009TIP3    H254519   6.424   2.271  14.126  1.0915 -0.3660 -0.0616
11010TIP3   OH254520   6.199   2.082   4.477  0.7426  0.0743  0.2266
11010TIP3    H154521   6.239   2.169   4.467 -0.7544  0.6000 -1.9222
11010TIP3    H254522   6.254   2.024   4.423  0.0295  0.3227 -0.7924
11011TIP3   OH254523   5.283   6.653   4.137 -0.1152  0.1987  0.3043
11011TIP3    H154524   5.285   6.618   4.226 -0.9905  1.4206  0.8386
11011TIP3    H254525   5.306   6.745   4.147 -1.1781  0.5802 -0.6009
11012TIP3   OH254526   3.301   6.563   1.737 -0.5502  0.0240  0.0721
11012TIP3    H154527   3.236   6.532   1.800  1.7614 -0.1481  2.5512
11012TIP3    H254528   3.324   6.484   1.687 -0.9557 -0.2923  0.3717
11013TIP3   OH254529   4.320   3.638  16.385 -0.2824 -0.5246 -0.2727
11013TIP3    H154530   4.277   3.704  16.331 -1.6905 -2.3104 -1.4361
11013TIP3    H254531   4.388   3.601  16.330 -0.3916 -0.9599 -0.1256
11014TIP3   OH254532   4.037   3.246   3.697  0.8080 -0.0664 -0.4182
11014TIP3    H154533   4.084   3.329   3.691 -0.0239  0.3500 -2.0226
11014TIP3    H254534   3.949   3.271   3.726  0.4362 -0.3175 -1.3000
11015TIP3   OH254535   4.663   0.636   6.379  0.4725 -0.4515 -0.0095
11015TIP3    H154536   4.742   0.654   6.328 -0.1866  0.7385 -0.6653
11015TIP3    H254537   4.601   0.602   6.315 -0.4490  1.2910 -0.1072
11016TIP3   OH254538   4.641   3.816   3.833  0.4292  0.1404 -0.2094
11016TIP3    H154539   4.721   3.842   3.789  0.4357  0.5681  0.0438
11016TIP3    H254540   4.619   3.730   3.797  0.8459  0.1500 -0.4814
11017TIP3   OH254541   0.633   3.783  12.245 -0.0051  0.0096  0.1674
11017TIP3    H154542   0.597   3.809  12.330 -1.1515  1.5721 -0.7502
11017TIP3    H254543   0.641   3.688  12.251  0.3927  0.1273  2.1872
11018TIP3   OH254544   4.250   1.146   0.596  0.0017 -0.3721 -0.3197
11018TIP3    H154545   4.331   1.096   0.591  0.7177  0.8583 -2.7470
11018TIP3    H254546   4.270   1.217   0.658  1.1389  0.3980 -1.4968
11019TIP3   OH254547   3.914   6.125  11.698 -0.7859 -0.2267  0.2561
11019TIP3    H154548   3.892   6.097  11.787  1.5291  1.7461  1.5618
11019TIP3    H254549   3.830   6.147  11.659 -1.7334  0.8042  2.6834
11020TIP3   OH254550   5.171   3.780   5.558 -0.1064  0.3626 -0.0222
11020TIP3    H154551   5.185   3.720   5.485 -2.1504  1.2879 -1.2514
11020TIP3    H254552   5.242   3.760   5.619 -0.0693 -2.5294 -0.8676
11021TIP3   OH254553   3.264   4.732  10.429  0.4146  0.1241  0.7731
11021TIP3    H154554   3.211   4.733  10.350  1.1885  0.4181  0.2493
11021TIP3    H254555   3.323   4.658  10.417  2.2887  1.6827 -0.1262
11022TIP3   OH254556   0.463   3.741   1.652  0.0600  0.1281  0.2307
11022TIP3    H154557   0.542   3.758   1.601  0.6586 -2.2467  0.2261
11022TIP3    H254558   0.430   3.828   1.675  3.2685  1.2770  1.1540
11023TIP3   OH254559   4.949   3.033  12.632 -0.2140 -0.1129 -0.2217
11023TIP3    H154560   4.897   3.051  12.554 -0.2470 -0.0986 -0.1959
11023TIP3    H254561   5.011   3.106  12.638 -1.3732  0.8336  0.7699
11024TIP3   OH254562   3.956   5.675   3.318 -0.1289 -0.1304 -0.1887
11024TIP3    H154563   4.026   5.698   3.379 -1.1872 -1.1334  1.4912
11024TIP3    H254564   3.963   5.580   3.308 -0.5200 -0.0859 -0.9478
11025TIP3   OH254565   2.793   2.039   1.022 -0.2013  0.1520  1.0085
11025TIP3    H154566   2.720   2.092   0.991 -0.5278 -0.0433  1.4239
11025TIP3    H254567   2.861   2.102   1.045  1.2207  0.2630 -2.7526
11026TIP3   OH254568   3.302   5.063  16.114  0.2944  0.8210  0.1960
11026TIP3    H154569   3.261   5.148  16.096 -1.6794 -0.4513 -2.0012
11026TIP3    H254570   3.395   5.077  16.096  0.4465  3.0132  2.1268
11027TIP3   OH254571   5.528   6.178   3.217 -0.0353  0.1654 -0.5988
11027TIP3    H154572   5.565   6.260   3.184  0.2811 -0.6836 -2.5229
11027TIP3    H254573   5.583   6.156   3.292 -0.0614  1.6316 -0.1022
11028TIP3   OH254574   1.528   6.716  12.876  1.2793 -0.5297 -0.4017
11028TIP3    H154575   1.515   6.810  12.870  0.5845 -0.5903  0.0950
11028TIP3    H254576   1.443   6.678  12.856  2.0621 -1.1698 -2.9488
11029TIP3   OH254577   3.786   0.485   5.072  0.0250 -0.0306 -0.2880
11029TIP3    H154578   3.810   0.422   5.004  0.7051  0.4476 -0.5015
11029TIP3    H254579   3.816   0.569   5.037 -2.9529  0.8014 -1.0889
11030TIP3   OH254580   1.278   1.494  14.604 -0.2050 -0.2897 -0.2886
11030TIP3    H154581   1.184   1.488  14.624  0.3265 -2.1891  1.9869
11030TIP3    H254582   1.312   1.557  14.668  0.3676 -0.9320  0.0427
11031TIP3   OH254583   3.760   4.503   5.076  0.3963 -0.2108  0.3075
11031TIP3    H154584   3.845   4.494   5.117  1.0208 -0.1816 -0.9427
11031TIP3    H254585   3.768   4.580   5.020 -0.5769  0.0192  0.4652
11032TIP3   OH254586   6.754   6.199  12.572 -0.3816  0.9297 -0.1138
11032TIP3    H154587   6.780   6.130  12.633 -1.0432 -0.4638 -1.3473
11032TIP3    H254588   6.659   6.189  12.564 -0.3364  1.2475 -1.1687
11033TIP3   OH254589   2.759   0.882   1.940 -0.4580 -0.2845  0.0034
11033TIP3    H154590   2.774   0.805   1.996  0.5437  0.3286  0.6107
11033TIP3    H254591   2.719   0.846   1.861 -0.3451 -1.3891  0.4208
11034TIP3   OH254592   4.948   5.217   1.406  0.3489 -0.2983 -0.4045
11034TIP3    H154593   4.998   5.213   1.325 -0.6815  0.8743 -1.1453
11034TIP3    H254594   4.973   5.301   1.445 -0.2671 -0.1645 -0.2825
11035TIP3   OH254595   4.314   6.744   5.364 -0.4020  0.5899 -0.2494
11035TIP3    H154596   4.381   6.758   5.431 -2.0533 -0.2103  1.6691
11035TIP3    H254597   4.234   6.781   5.402 -1.2276  0.9399 -2.2017
11036TIP3   OH254598   3.961   4.461   2.829  0.4667 -0.3632  0.3050
11036TIP3    H154599   4.036   4.515   2.854  0.8511  0.1685 -1.7803
11036TIP3    H254600   3.962   4.462   2.733 -1.5909 -1.2072  0.2227
11037TIP3   OH254601   6.300   1.224   3.726 -0.1223  0.3825 -0.0467
11037TIP3    H154602   6.257   1.143   3.699 -0.9815  0.4708  0.9761
11037TIP3    H254603   6.236   1.293   3.707 -0.0473  0.6273  0.5548
11038TIP3   OH254604   0.382   5.534  16.526  0.2627  0.2572 -0.7212
11038TIP3    H154605   0.447   5.466  16.542 -0.0070  0.2692  0.5566
11038TIP3    H254606   0.432   5.616  16.524  0.2381  0.3515  1.0276
11039TIP3   OH254607   2.949   3.206  12.183  0.2119 -0.1530 -0.0688
11039TIP3    H154608   2.921   3.297  12.188 -1.1905 -0.6352  1.7763
11039TIP3    H254609   3.033   3.209  12.136 -0.0809  1.9980 -0.5233
11040TIP3   OH254610   0.535   4.617   3.856 -0.3542 -0.3128 -0.6426
11040TIP3    H154611   0.494   4.666   3.927  1.0634 -0.3187  0.1947
11040TIP3    H254612   0.593   4.680   3.814 -2.7024  0.3697 -3.2507
11041TIP3   OH254613   3.164   4.564  16.129 -0.4008 -1.0636  0.0467
11041TIP3    H154614   3.241   4.583  16.076 -1.0246  0.0640 -0.4820
11041TIP3    H254615   3.105   4.518  16.069 -1.2279  0.4751 -0.3523
11042TIP3   OH254616   3.308   1.918   0.257  0.5633  0.0420  0.1525
11042TIP3    H154617   3.381   1.857   0.264  0.3349 -0.0885  1.7636
11042TIP3    H254618   3.242   1.884   0.318 -0.9009  0.0945 -1.3134
11043TIP3   OH254619   1.521   6.293  12.614  0.0091 -0.5904  0.1459
11043TIP3    H154620   1.520   6.217  12.556 -1.5311 -0.6600  0.2276
11043TIP3    H254621   1.430   6.323  12.615  0.4720  0.8354  0.6681
11044TIP3   OH254622   0.884   2.988  13.742  0.2931  0.3624 -0.8589
11044TIP3    H154623   0.977   3.002  13.726  0.7981 -1.3420  0.2907
11044TIP3    H254624   0.841   3.016  13.661  1.7121  1.8412 -1.1484
11045TIP3   OH254625   3.651   5.811  14.115  0.1004 -0.9388  0.1995
11045TIP3    H154626   3.625   5.903  14.108 -1.8005 -1.3930  0.6631
11045TIP3    H254627   3.672   5.800  14.208  2.8439 -0.4166 -0.2715
11046TIP3   OH254628   2.877   4.822   0.125 -0.1993 -0.4271  0.5751
11046TIP3    H154629   2.882   4.866   0.040 -1.7742 -2.1447 -0.4799
11046TIP3    H254630   2.938   4.871   0.181 -0.4486  1.8493 -1.0151
11047TIP3   OH254631   0.514   1.031  13.146 -0.1040 -0.1223 -0.4595
11047TIP3    H154632   0.462   0.952  13.131  0.1075 -0.9498  2.5480
11047TIP3    H254633   0.468   1.077  13.217  1.0654  1.2255 -0.5174
11048TIP3   OH254634   3.483   5.184   4.883 -0.5598 -0.5403  0.0493
11048TIP3    H154635   3.415   5.202   4.949 -0.0755  0.3698  0.3144
11048TIP3    H254636   3.440   5.125   4.821 -0.9865 -1.5360  1.2358
11049TIP3   OH254637   4.337   4.149  11.804 -0.4404  0.4241 -0.2698
11049TIP3    H154638   4.278   4.223  11.816 -1.3207  0.2569 -2.9079
11049TIP3    H254639   4.324   4.095  11.882 -2.5278  1.2316  0.0007
11050TIP3   OH254640   2.656   3.071   4.152  0.2693  0.0987 -0.4201
11050TIP3    H154641   2.602   3.082   4.073 -0.1725  0.7311 -0.0306
11050TIP3    H254642   2.617   2.996   4.197  0.0913  0.1689 -0.4553
11051TIP3   OH254643   2.621   4.407  11.252  0.3637  0.7583  0.5879
11051TIP3    H154644   2.641   4.412  11.159 -1.0135 -1.2878  0.1048
11051TIP3    H254645   2.690   4.351  11.288 -0.0827  0.0993  0.4349
11052TIP3   OH254646   5.588   0.721   0.944 -0.3668 -0.0293 -0.3844
11052TIP3    H154647   5.526   0.794   0.938 -0.5569 -0.1733 -0.1883
11052TIP3    H254648   5.553   0.656   0.883  0.1653  0.3057 -1.0603
11053TIP3   OH254649   2.032   6.632   0.651 -0.0768 -0.3692  0.0681
11053TIP3    H154650   1.944   6.608   0.680 -0.3879 -0.5824 -1.0034
11053TIP3    H254651   2.018   6.706   0.592  0.5579  0.2142  0.6483
11054TIP3   OH254652   5.342   1.399   5.460  0.1557  0.1868  0.5521
11054TIP3    H154653   5.410   1.333   5.469  0.2128  0.3251  1.2117
11054TIP3    H254654   5.385   1.480   5.488  0.6911  0.9134 -2.0584
11055TIP3   OH254655   6.512   3.411   0.754  0.2439 -0.0285 -0.6635
11055TIP3    H154656   6.479   3.342   0.811  0.5041 -1.0894 -1.7544
11055TIP3    H254657   6.607   3.410   0.767  0.0721  2.3663  1.7417
11056TIP3   OH254658   5.321   5.063  10.870 -0.1599 -0.3061  0.1296
11056TIP3    H154659   5.380   5.123  10.915 -1.5632  0.6179  0.8268
11056TIP3    H254660   5.313   5.099  10.782 -2.4080  1.7031  1.0491
11057TIP3   OH254661   1.180   5.095   3.729  0.0634  0.8468  1.3632
11057TIP3    H154662   1.262   5.062   3.693 -0.6530 -0.8315  1.1566
11057TIP3    H254663   1.199   5.117   3.819  0.8372  0.8562  1.2000
11058TIP3   OH254664   4.229   6.144  16.777 -1.1985 -0.2426  0.8264
11058TIP3    H154665   4.200   6.054  16.760 -0.3726 -0.1425 -1.4463
11058TIP3    H254666   4.316   6.133  16.816 -1.0517 -0.4209  0.4484
11059TIP3   OH254667   3.522   6.279   4.094 -0.0263 -0.7858  0.2304
11059TIP3    H154668   3.448   6.335   4.069  0.4348  1.4662  3.2769
11059TIP3    H254669   3.482   6.205   4.139 -0.6073  1.1794  3.2667
11060TIP3   OH254670   2.711   3.972  12.253  0.2100 -0.6987 -0.2376
11060TIP3    H154671   2.621   3.948  12.274 -0.0910 -0.6972 -1.4136
11060TIP3    H254672   2.706   4.065  12.229  0.3634 -0.8871 -1.0585
11061TIP3   OH254673   1.661   3.392   5.108 -0.6531 -0.4379  0.0917
11061TIP3    H154674   1.620   3.464   5.157  0.9081  1.5421 -1.3336
11061TIP3    H254675   1.753   3.419   5.099  0.0253 -2.7344 -0.3603
11062TIP3   OH254676   3.680   2.870   5.918 -0.4898 -0.1483  0.4445
11062TIP3    H154677   3.741   2.800   5.894 -2.1575 -1.8858  1.0028
11062TIP3    H254678   3.736   2.942   5.948  1.2799 -2.0034  1.8848
11063TIP3   OH254679   3.123   5.057   5.268  0.5965 -0.2377  0.5964
11063TIP3    H154680   3.105   5.048   5.362 -1.3360  0.8780  0.3852
11063TIP3    H254681   3.121   5.151   5.252  3.0591 -0.2668 -0.2244
11064TIP3   OH254682   6.663   2.232  14.902  0.5520 -0.0246  0.5301
11064TIP3    H154683   6.703   2.228  14.988  0.0572  0.3102  0.7815
11064TIP3    H254684   6.733   2.261  14.844  0.8617 -0.1632  0.8366
11065TIP3   OH254685   3.354   4.935  12.861 -0.4387  0.0779  0.8008
11065TIP3    H154686   3.307   4.966  12.938 -0.8827 -0.4697  0.7594
11065TIP3    H254687   3.440   4.908  12.894 -0.0455  1.3181  0.8327
11066TIP3   OH254688   0.756   1.481   1.716 -0.3600  0.3269 -0.0270
11066TIP3    H154689   0.745   1.397   1.761  1.2952  0.8190  1.4042
11066TIP3    H254690   0.837   1.517   1.751 -0.2115  1.8445 -1.7484
11067TIP3   OH254691   4.783   6.655   1.416  0.0140  0.1467  0.0675
11067TIP3    H154692   4.857   6.646   1.476  0.3766 -0.1811 -0.4295
11067TIP3    H254693   4.739   6.570   1.418 -2.0516  1.1514  2.5465
11068TIP3   OH254694   2.513   6.462  13.010  0.6610  0.3841 -0.1406
11068TIP3    H154695   2.597   6.495  12.976 -0.4993  0.4782 -3.1900
11068TIP3    H254696   2.500   6.379  12.965 -0.1959 -0.3745  1.4610
11069TIP3   OH254697   6.779   5.502   2.883  0.1632  0.3201 -0.7025
11069TIP3    H154698   6.866   5.525   2.915  0.2539  0.6532 -1.1790
11069TIP3    H254699   6.723   5.573   2.915 -0.0434 -0.1888  0.0918
11070TIP3   OH254700   1.812   0.245  14.349 -0.4309 -0.1848 -0.2886
11070TIP3    H154701   1.758   0.278  14.421  0.6139 -0.1565  0.4879
11070TIP3    H254702   1.803   0.312  14.281  1.5506  1.7734  1.2143
11071TIP3   OH254703   6.529   2.188  12.357  0.7023  0.0692  0.2293
11071TIP3    H154704   6.540   2.106  12.309  0.8882 -0.4681  1.1794
11071TIP3    H254705   6.483   2.164  12.437 -0.2522  1.0708  0.0146
11072TIP3   OH254706   2.570   2.773   5.508  0.3421  0.2800 -0.3583
11072TIP3    H154707   2.663   2.762   5.527  0.1183  0.7003  1.0218
11072TIP3    H254708   2.525   2.725   5.577 -0.4908  1.6519  0.0779
11073TIP3   OH254709   4.022   2.171  12.715  0.5740 -0.3077 -0.3441
11073TIP3    H154710   4.069   2.254  12.704  1.3864 -0.3604  2.1831
11073TIP3    H254711   3.940   2.196  12.759  0.0522 -0.6810 -1.0838
11074TIP3   OH254712   2.874   0.238  16.251 -0.8417 -0.1673 -0.1090
11074TIP3    H154713   2.870   0.143  16.237  0.1397 -0.5060  1.6113
11074TIP3    H254714   2.954   0.265  16.206 -1.6329  0.0563 -1.4537
11075TIP3   OH254715   3.465   1.138   1.474  0.2157 -0.2627 -0.1466
11075TIP3    H154716   3.532   1.072   1.455  1.3552  0.7826  0.0934
11075TIP3    H254717   3.467   1.147   1.570  0.4037  0.4437 -0.2123
11076TIP3   OH254718   4.605   3.238   4.637  0.0788  0.4131  0.0313
11076TIP3    H154719   4.642   3.286   4.711 -0.8370  0.4640  0.4707
11076TIP3    H254720   4.677   3.181   4.608 -0.3166 -1.7343  2.7952
11077TIP3   OH254721   4.299   3.964  14.230  0.4088  0.2484 -0.3331
11077TIP3    H154722   4.207   3.961  14.258  0.1240 -0.1158 -1.2531
11077TIP3    H254723   4.297   3.928  14.141  1.3616  0.7875 -0.5765
11078TIP3   OH254724   2.369   5.817  11.587 -0.5060  0.1767 -0.7599
11078TIP3    H154725   2.290   5.793  11.540 -0.8255 -1.4836  0.5483
11078TIP3    H254726   2.353   5.790  11.677  1.4162  0.1200 -0.3891
11079TIP3   OH254727   6.242   0.267  14.688 -0.1052 -0.0948 -0.5484
11079TIP3    H154728   6.187   0.205  14.640 -0.7379  0.1041 -0.0899
11079TIP3    H254729   6.203   0.352  14.670  0.5599  0.1477 -0.9005
11080TIP3   OH254730   0.616   6.397  13.623  0.2205  0.3094  0.3406
11080TIP3    H154731   0.683   6.432  13.681 -0.3169  0.5671  0.8168
11080TIP3    H254732   0.559   6.471  13.603  0.3606  0.2150 -0.4780
11081TIP3   OH254733   5.985   6.315  17.118  0.4227 -0.6832  0.2543
11081TIP3    H154734   6.033   6.236  17.142 -0.5133 -0.8756  1.5519
11081TIP3    H254735   5.893   6.291  17.124  0.1237  0.4016  0.2905
11082TIP3   OH254736   6.415   5.256  16.919 -0.0555 -0.2013 -0.0840
11082TIP3    H154737   6.468   5.315  16.973 -1.6339  1.1951  0.0276
11082TIP3    H254738   6.405   5.303  16.836  0.0551 -1.0942 -0.6103
11083TIP3   OH254739   4.354   0.712   0.275  0.0469 -0.1696 -0.4102
11083TIP3    H154740   4.412   0.681   0.343  1.5046  0.9889 -1.0556
11083TIP3    H254741   4.273   0.736   0.320  0.9467  0.4802  0.9068
11084TIP3   OH254742   2.168   2.965  12.619  0.1395 -0.1851  0.7513
11084TIP3    H154743   2.233   2.990  12.684  0.3659  0.8282  0.1569
11084TIP3    H254744   2.085   2.962  12.666  0.0655  1.9167  0.8211
11085TIP3   OH254745   6.567   1.003  16.808  0.2973 -0.4029  0.0049
11085TIP3    H154746   6.629   0.960  16.866  0.0107  1.4493  1.8139
11085TIP3    H254747   6.514   0.932  16.772 -0.0651 -1.6260  2.7153
11086TIP3   OH254748   3.951   2.871  12.774  0.9561  0.0669  0.6809
11086TIP3    H154749   3.918   2.868  12.864  0.0891  0.9561  0.4143
11086TIP3    H254750   4.046   2.868  12.783  0.9492  1.5897  1.7241
11087TIP3   OH254751   6.560   1.430  12.152 -0.1280  0.0944  0.2449
11087TIP3    H154752   6.552   1.472  12.238  1.9733 -0.4972  0.8128
11087TIP3    H254753   6.645   1.460  12.119  0.3002 -1.7381 -0.4214
11088TIP3   OH254754   5.868   2.971  11.808  0.4138  0.0416  0.0332
11088TIP3    H154755   5.806   2.918  11.857 -0.0132 -0.7492 -1.3098
11088TIP3    H254756   5.910   3.026  11.874 -1.5296  0.4364  1.0055
11089TIP3   OH254757   1.420   6.580   1.931  0.1496 -0.2767 -0.1752
11089TIP3    H154758   1.335   6.623   1.936 -0.1516 -0.4264 -2.5461
11089TIP3    H254759   1.427   6.530   2.012 -1.2315  1.0789  0.8550
11090TIP3   OH254760   6.212   4.754   5.811 -0.4267 -0.0410 -0.0163
11090TIP3    H154761   6.200   4.706   5.730 -1.7488 -2.0298  1.2705
11090TIP3    H254762   6.262   4.695   5.867 -4.2547 -1.3211  2.5346
11091TIP3   OH254763   0.935   5.555   4.386 -0.2236  0.2490 -0.5354
11091TIP3    H154764   0.978   5.503   4.453 -0.7325 -1.4805 -1.4895
11091TIP3    H254765   0.929   5.643   4.423 -2.0176 -0.9800  2.3866
11092TIP3   OH254766   0.214   5.459   1.561 -0.0811 -0.2198  0.3350
11092TIP3    H154767   0.242   5.537   1.609 -0.3827 -1.0843  1.9714
11092TIP3    H254768   0.142   5.490   1.506 -3.1195 -0.0075  4.0009
11093TIP3   OH254769   0.555   2.621  12.725  0.5752  0.0621  0.1354
11093TIP3    H154770   0.502   2.554  12.682  1.6724  0.4726 -1.9528
11093TIP3    H254771   0.513   2.632  12.811 -2.8135  0.4722 -1.3868
11094TIP3   OH254772   1.813   5.711   0.745  0.0169 -0.1853 -0.0185
11094TIP3    H154773   1.883   5.677   0.801 -0.6735  0.5798  1.3597
11094TIP3    H254774   1.859   5.756   0.675  0.9146 -0.0080  0.6659
11095TIP3   OH254775   1.262   3.523  11.790  0.5695 -0.0583  0.2745
11095TIP3    H154776   1.263   3.431  11.762  0.8806  0.2361 -0.7000
11095TIP3    H254777   1.171   3.539  11.814  0.1772 -0.1742 -1.0781
11096TIP3   OH254778   5.852   4.011  13.859 -0.2447 -0.0215  0.4705
11096TIP3    H154779   5.828   3.920  13.842 -0.0058  0.1121 -0.6980
11096TIP3    H254780   5.934   4.006  13.908 -0.0415 -0.4375  0.0994
11097TIP3   OH254781   0.030   6.435   2.802  0.1351  0.1051  0.1670
11097TIP3    H154782   0.018   6.349   2.760  3.3089  0.9069 -2.8654
11097TIP3    H254783   0.065   6.414   2.889 -0.1986 -1.6792 -0.0870
11098TIP3   OH254784   0.719   6.496   5.344  0.5924 -0.4293 -0.1501
11098TIP3    H154785   0.705   6.583   5.381  0.9572 -0.6984  0.6397
11098TIP3    H254786   0.730   6.439   5.420 -3.3240 -1.8942 -0.4322
11099TIP3   OH254787   0.773   6.393  11.273  0.4394  0.0812  0.2364
11099TIP3    H154788   0.811   6.438  11.197  0.4426  0.4325  0.4477
11099TIP3    H254789   0.681   6.381  11.250  0.1164  1.4371  0.7530
11100TIP3   OH254790   0.201   4.597  11.041 -0.0021  0.1250  0.0854
11100TIP3    H154791   0.281   4.633  11.080 -0.6220  0.8002  0.7608
11100TIP3    H254792   0.204   4.624  10.950  0.8801 -0.4616 -0.0768
11101TIP3   OH254793   0.769   1.925   5.160  0.2758 -0.1790 -0.0538
11101TIP3    H154794   0.824   1.994   5.122  0.5630 -0.4525 -0.1340
11101TIP3    H254795   0.686   1.969   5.179  0.0327 -0.1020 -1.2214
11102TIP3   OH254796   3.447   4.501   5.482  0.2234  0.2089 -0.1625
11102TIP3    H154797   3.482   4.590   5.496 -1.1189  0.8858 -0.9374
11102TIP3    H254798   3.373   4.496   5.542  0.0929 -0.2689 -0.3673
11103TIP3   OH254799   0.477   5.122   0.615 -0.8416 -0.3295 -0.4102
11103TIP3    H154800   0.389   5.154   0.635 -1.3355 -0.9412 -1.5533
11103TIP3    H254801   0.474   5.098   0.523  1.3061  2.2042 -1.2646
11104TIP3   OH254802   6.345   0.763  12.405 -0.2529 -0.3279 -0.3876
11104TIP3    H154803   6.273   0.792  12.460  0.5502  2.0724 -0.4800
11104TIP3    H254804   6.376   0.843  12.362  3.0140 -1.0969  0.3003
11105TIP3   OH254805   1.864   2.237   0.286  0.2249 -0.7366 -0.4159
11105TIP3    H154806   1.867   2.307   0.351 -1.8511  1.3394 -2.3639
11105TIP3    H254807   1.923   2.266   0.216 -2.4108  0.3854 -2.3191
11106TIP3   OH254808   2.958   2.836  10.814 -0.9847  0.1380  0.4885
11106TIP3    H154809   2.977   2.747  10.783 -0.8901  0.3470 -0.0530
11106TIP3    H254810   2.989   2.836  10.905 -0.1432 -0.1012  0.2127
11107TIP3   OH254811   3.881   6.681   2.092  0.1990 -0.0830  0.1320
11107TIP3    H154812   3.831   6.729   2.158 -0.1537  0.0403 -0.2138
11107TIP3    H254813   3.860   6.589   2.108  0.6059 -0.1007  0.5804
11108TIP3   OH254814   2.348   4.135   5.193 -0.1939 -0.1510  0.0558
11108TIP3    H154815   2.323   4.053   5.236 -1.1974 -0.3215 -0.8223
11108TIP3    H254816   2.310   4.203   5.249 -0.1538 -0.3168  0.2880
11109TIP3   OH254817   1.977   4.070   0.457 -0.2768  0.5756 -0.6965
11109TIP3    H154818   2.016   4.116   0.531  1.3419 -1.4221 -0.2278
11109TIP3    H254819   2.047   4.067   0.391 -0.0026 -1.8552 -0.3831
11110TIP3   OH254820   6.501   5.242  11.847 -0.2452  0.3144 -0.1140
11110TIP3    H154821   6.475   5.151  11.859 -0.5606  0.4481  0.2682
11110TIP3    H254822   6.434   5.292  11.895  1.4768  0.6213  2.1681
11111TIP3   OH254823   3.508   5.252  11.383 -0.0038  0.0854 -0.0715
11111TIP3    H154824   3.572   5.281  11.448 -0.4980 -0.1703  0.5325
11111TIP3    H254825   3.470   5.173  11.420 -1.7712  1.0585  0.2772
11112TIP3   OH254826   3.473   0.924  17.141  0.1257  0.6586  0.8013
11112TIP3    H154827   3.458   1.002  17.087  0.7086  0.4344  0.3040
11112TIP3    H254828   3.449   0.952  17.230 -0.2062  1.2342  0.5391
11113TIP3   OH254829   3.057   6.589  15.768 -0.2360 -0.0778 -0.3266
11113TIP3    H154830   2.985   6.637  15.726  0.5541  0.6928 -0.8320
11113TIP3    H254831   3.121   6.577  15.699  1.1948  1.4264  0.6633
11114TIP3   OH254832   0.545   0.769   0.443 -0.2514 -1.0669 -0.0642
11114TIP3    H154833   0.545   0.844   0.383  1.3009 -2.2154 -1.6226
11114TIP3    H254834   0.497   0.701   0.396  0.1972 -1.7020  0.3787
11115TIP3   OH254835   6.527   4.228  15.413  0.5048 -0.2333  0.2110
11115TIP3    H154836   6.493   4.192  15.495 -2.0868 -0.4165 -0.8536
11115TIP3    H254837   6.582   4.301  15.440 -0.4187 -0.1728  2.1126
11116TIP3   OH254838   5.509   4.786   2.421 -0.2185 -0.0670  0.6332
11116TIP3    H154839   5.529   4.734   2.500  1.0953 -1.7317 -0.7155
11116TIP3    H254840   5.592   4.827   2.398 -0.4321 -0.1193 -0.2425
11117TIP3   OH254841   0.669   1.185  13.896  0.1994 -0.2673 -0.3915
11117TIP3    H154842   0.699   1.258  13.949  0.1650 -0.7682  0.3277
11117TIP3    H254843   0.668   1.110  13.956 -0.6139 -0.6688 -0.8870
11118TIP3   OH254844   1.442   4.956   0.108  0.5606  0.1949  0.6239
11118TIP3    H154845   1.504   5.028   0.095 -0.3428  1.2959  2.2458
11118TIP3    H254846   1.432   4.948   0.202  0.5109 -1.9918  0.5010
11119TIP3   OH254847   5.420   5.347  16.032 -0.2723 -0.5367  0.1786
11119TIP3    H154848   5.482   5.392  15.975  0.4648 -1.7329 -0.0054
11119TIP3    H254849   5.418   5.399  16.112  0.7327 -0.3038  0.0648
11120TIP3   OH254850   3.498   2.830   2.129 -0.5592  0.2115 -0.2006
11120TIP3    H154851   3.440   2.825   2.053 -0.6090 -0.9381 -0.1064
11120TIP3    H254852   3.578   2.785   2.102  0.2850  1.7214 -0.3029
11121TIP3   OH254853   1.202   0.958  11.433  0.8017 -0.1432 -0.6668
11121TIP3    H154854   1.277   0.967  11.375 -0.2160  1.3222 -1.8126
11121TIP3    H254855   1.160   0.876  11.404  0.9683 -0.0426 -1.2111
11122TIP3   OH254856   4.642   1.506   4.150 -0.2127  0.4678  0.5458
11122TIP3    H154857   4.715   1.494   4.211  0.0004 -1.9229 -0.0887
11122TIP3    H254858   4.621   1.418   4.120 -2.5196  1.2397 -0.3085
11123TIP3   OH254859   1.424   3.696   0.185  0.0379  0.3694  0.3894
11123TIP3    H154860   1.479   3.746   0.246  0.0472  0.5970  0.1982
11123TIP3    H254861   1.345   3.675   0.235  1.0912 -1.6712  1.3221
11124TIP3   OH254862   1.580   5.569  10.552  0.4080  0.4900  0.1923
11124TIP3    H154863   1.538   5.495  10.509 -1.0273  1.7826 -0.7222
11124TIP3    H254864   1.660   5.532  10.590 -0.9178 -1.8026  0.9564
11125TIP3   OH254865   0.278   6.204  15.662  0.2546 -0.2672 -0.1456
11125TIP3    H154866   0.320   6.166  15.585 -1.0580  0.1731 -1.1240
11125TIP3    H254867   0.216   6.138  15.691 -0.1186  0.0507 -0.2123
11126TIP3   OH254868   5.170   1.033  14.609 -0.4972  0.0176 -0.0106
11126TIP3    H154869   5.077   1.051  14.593 -0.4445  0.6305  0.3143
11126TIP3    H254870   5.171   0.945  14.645 -0.6267 -1.3265 -3.0137
11127TIP3   OH254871   5.345   2.033   2.607  0.4651  0.7220 -0.2305
11127TIP3    H154872   5.433   1.996   2.618 -0.4812 -3.2795 -3.6756
11127TIP3    H254873   5.342   2.060   2.515 -2.4140 -1.1419 -0.7922
11128TIP3   OH254874   3.494   1.006   1.747 -0.2933 -0.5940 -0.1518
11128TIP3    H154875   3.570   0.951   1.763 -0.3247 -0.6979 -0.3638
11128TIP3    H254876   3.422   0.962   1.792  0.1342  0.4777  1.6861
11129TIP3   OH254877   5.591   3.256  15.986 -0.1097 -0.6617  0.3187
11129TIP3    H154878   5.537   3.271  15.908  0.1409 -0.6652  0.1419
11129TIP3    H254879   5.586   3.161  15.999  0.8386 -0.8286 -0.4287
11130TIP3   OH254880   5.522   4.130   3.496 -0.3496 -0.6288  0.1996
11130TIP3    H154881   5.614   4.137   3.518  0.0520 -0.4389 -1.3894
11130TIP3    H254882   5.478   4.110   3.578  0.9646  0.4366  1.1954
11131TIP3   OH254883   3.015   4.061  13.854  0.3407  0.2124 -0.3063
11131TIP3    H154884   2.948   3.999  13.882  0.7668 -0.0429  0.1436
11131TIP3    H254885   3.013   4.130  13.920  0.3033  0.3658 -0.4663
11132TIP3   OH254886   4.579   4.437  13.399 -0.2580 -0.1599  0.1724
11132TIP3    H154887   4.645   4.506  13.388  0.3580 -1.0032 -1.8226
11132TIP3    H254888   4.595   4.403  13.487  0.7836  0.8456  0.3995
11133TIP3   OH254889   6.049   3.088  11.290  0.1503  0.4098 -0.7188
11133TIP3    H154890   5.957   3.071  11.268 -0.0205  1.4033 -0.8261
11133TIP3    H254891   6.089   3.001  11.293 -0.8702 -0.0671 -0.3166
11134TIP3   OH254892   5.279   6.762  15.089  0.1296 -0.5105 -0.2947
11134TIP3    H154893   5.322   6.842  15.058 -0.8491 -0.2347 -0.9969
11134TIP3    H254894   5.343   6.692  15.071  0.3935 -0.0834 -1.0807
11135TIP3   OH254895   1.388   2.788   4.419 -0.2827 -0.1277 -0.1520
11135TIP3    H154896   1.449   2.842   4.369  1.3570 -1.3570  0.4425
11135TIP3    H254897   1.346   2.731   4.354 -1.8109  1.5666 -0.7424
11136TIP3   OH254898   1.935   5.611  12.219  0.0522 -0.1022 -0.2896
11136TIP3    H154899   1.951   5.696  12.177 -1.3718  1.0470  1.3210
11136TIP3    H254900   1.850   5.583  12.185  0.0369 -0.3587 -0.0412
11137TIP3   OH254901   4.005   5.330   1.806  0.1150 -0.1381  0.1911
11137TIP3    H154902   4.070   5.329   1.736 -2.1380  0.8700 -2.0938
11137TIP3    H254903   3.980   5.422   1.814 -1.4931 -0.5733  0.4817
11138TIP3   OH254904   2.517   6.574   0.242 -0.1756  0.2414  0.0857
11138TIP3    H154905   2.530   6.497   0.298 -2.2831 -1.7922 -2.0145
11138TIP3    H254906   2.466   6.542   0.168  0.4558  3.3062 -1.8597
11139TIP3   OH254907   3.435   1.606   1.981 -0.5480 -0.2163  0.2652
11139TIP3    H154908   3.490   1.565   1.914 -0.0959  0.7059  0.0657
11139TIP3    H254909   3.479   1.688   2.002 -3.3485  2.1251 -2.1238
11140TIP3   OH254910   2.048   2.039   0.237  0.6196  0.3626  0.3840
11140TIP3    H154911   1.985   2.095   0.283 -1.8260 -2.1050  0.2506
11140TIP3    H254912   2.124   2.036   0.296 -0.5169  1.1479  1.9677
11141TIP3   OH254913   3.172   3.342   5.200 -0.2124 -0.7185  0.0431
11141TIP3    H154914   3.153   3.318   5.110 -0.8857 -1.1374  0.2945
11141TIP3    H254915   3.098   3.397   5.227  1.4915  2.1852 -0.6813
11142TIP3   OH254916   1.418   2.177  16.543  0.7850 -0.3449 -0.0453
11142TIP3    H154917   1.350   2.223  16.592 -0.3798 -0.6352 -1.3448
11142TIP3    H254918   1.389   2.086  16.541  1.3716 -0.5293 -0.3496
11143TIP3   OH254919   3.239   1.921  15.185  0.0729 -0.0228 -0.2849
11143TIP3    H154920   3.170   1.978  15.150 -0.1117 -0.0961 -0.0433
11143TIP3    H254921   3.208   1.896  15.272 -0.5923 -1.7358 -0.9663
11144TIP3   OH254922   3.587   5.067  14.832 -0.0003 -0.9870 -0.4605
11144TIP3    H154923   3.620   5.156  14.845 -2.8976 -0.0730  1.6598
11144TIP3    H254924   3.665   5.015  14.811  1.8572  1.9081 -1.3614
11145TIP3   OH254925   4.986   2.705   0.243 -0.0161  0.1245 -0.1303
11145TIP3    H154926   5.015   2.781   0.194 -0.0340  0.9465  1.0957
11145TIP3    H254927   4.978   2.636   0.178  0.5328  1.0212 -1.1718
11146TIP3   OH254928   0.819   3.931  13.384  0.4894 -0.2238  0.5460
11146TIP3    H154929   0.882   3.928  13.456  2.1979 -1.6509 -0.9122
11146TIP3    H254930   0.773   3.847  13.390  1.2667 -0.7545 -0.4967
11147TIP3   OH254931   0.314   4.274  12.714  0.2210 -0.5510  0.1743
11147TIP3    H154932   0.288   4.298  12.803  1.0616 -2.8173  1.0955
11147TIP3    H254933   0.240   4.301  12.660 -0.5798  0.3171  1.6386
11148TIP3   OH254934   3.286   4.465   5.024  0.0965  0.2114 -0.2541
11148TIP3    H154935   3.350   4.427   5.084 -1.1747 -0.9958  0.3884
11148TIP3    H254936   3.235   4.391   4.993 -0.6175  1.0744 -1.2308
11149TIP3   OH254937   0.228   5.195   1.518 -0.6139 -0.7177  0.0213
11149TIP3    H154938   0.135   5.180   1.505 -0.5938  0.0403 -1.0988
11149TIP3    H254939   0.236   5.290   1.529  0.1528 -0.6299 -1.1461
11150TIP3   OH254940   5.414   5.598   2.455  0.0762 -0.0593  0.1012
11150TIP3    H154941   5.334   5.642   2.486 -0.1919 -1.0459  0.8619
11150TIP3    H254942   5.398   5.505   2.471 -0.1950 -0.7300 -3.2959
11151TIP3   OH254943   0.267   5.788   2.801 -0.2635  0.1997  0.3277
11151TIP3    H154944   0.338   5.725   2.784  0.2409 -0.2014  3.3058
11151TIP3    H254945   0.311   5.863   2.841 -1.1987  1.3039 -0.6576
11152TIP3   OH254946   4.947   1.722  15.938  0.3458  0.3844 -0.4905
11152TIP3    H154947   4.905   1.799  15.901 -1.8590 -1.2217 -1.5234
11152TIP3    H254948   5.012   1.696  15.872  0.2583  0.6616 -0.6848
11153TIP3   OH254949   4.522   2.449  16.947 -0.4521  0.0323 -0.2781
11153TIP3    H154950   4.592   2.504  16.913 -0.0016 -0.3190  0.0633
11153TIP3    H254951   4.451   2.457  16.883 -0.7562  1.7401  0.2260
11154TIP3   OH254952   1.263   6.150  16.865 -0.3306 -0.5128 -1.0026
11154TIP3    H154953   1.348   6.141  16.907  0.9945 -0.6579 -3.5355
11154TIP3    H254954   1.258   6.242  16.839 -1.0414 -0.4671 -0.7366
11155TIP3   OH254955   3.954   4.790  12.083  0.3936  0.6022  0.5397
11155TIP3    H154956   4.019   4.838  12.135 -0.0251  3.4087 -1.3076
11155TIP3    H254957   3.870   4.822  12.115  0.0123 -0.1844  0.3520
11156TIP3   OH254958   6.749   5.711   5.681 -0.4229  0.3273  0.0624
11156TIP3    H154959   6.833   5.755   5.690  0.3233 -1.2938  1.4559
11156TIP3    H254960   6.722   5.729   5.591  0.3671  2.6239  0.2193
11157TIP3   OH254961   3.071   2.886   2.016  0.0542 -0.1158  0.2167
11157TIP3    H154962   3.037   2.807   2.058 -1.5666 -0.2812 -1.2748
11157TIP3    H254963   3.130   2.855   1.948 -0.9475 -0.1102 -0.6853
11158TIP3   OH254964   0.533   1.396  12.556  0.4640  0.4827  0.0317
11158TIP3    H154965   0.561   1.460  12.622  1.2361  0.6993 -0.4905
11158TIP3    H254966   0.535   1.312  12.602 -3.1424  1.0333  1.5290
11159TIP3   OH254967   6.011   6.162  13.198 -0.5575 -0.2655 -0.1896
11159TIP3    H154968   6.017   6.076  13.156  0.2204 -0.0949 -0.4495
11159TIP3    H254969   5.929   6.199  13.165 -0.5421 -0.6191 -0.6358
11160TIP3   OH254970   4.045   4.750  13.567 -0.4793 -0.1340 -0.4201
11160TIP3    H154971   4.003   4.807  13.631 -0.9167 -0.6913 -0.2001
11160TIP3    H254972   4.139   4.765  13.580 -0.5913  0.9797 -0.7865
11161TIP3   OH254973   6.432   2.856   1.037  0.3704  0.0371 -0.2050
11161TIP3    H154974   6.367   2.858   1.108  0.7064  0.0701  0.1045
11161TIP3    H254975   6.496   2.923   1.062 -0.7500  1.7721 -1.7296
11162TIP3   OH254976   0.111   3.003  15.442 -0.0224  0.4948 -0.1896
11162TIP3    H154977   0.153   2.978  15.360 -2.3924 -1.8491 -0.7998
11162TIP3    H254978   0.165   3.075  15.475  3.0390 -0.7417 -2.0398
11163TIP3   OH254979   1.606   3.694  14.269  0.0658  0.0595 -0.4529
11163TIP3    H154980   1.601   3.620  14.208  0.3725  0.8312 -1.4353
11163TIP3    H254981   1.516   3.725  14.276 -0.2884 -1.1802  0.9744
11164TIP3   OH254982   3.820   1.487   5.912 -0.2405 -0.3762 -0.6260
11164TIP3    H154983   3.844   1.526   5.996 -0.8938  0.5053 -0.8349
11164TIP3    H254984   3.808   1.561   5.853  2.0541 -1.0469 -2.0509
11165TIP3   OH254985   0.735   1.181   2.870  0.1179 -0.1351 -0.1888
11165TIP3    H154986   0.804   1.226   2.820 -1.2176  1.9437 -0.2941
11165TIP3    H254987   0.662   1.242   2.869 -1.9620 -2.4853 -0.5511
11166TIP3   OH254988   1.597   5.558  13.731 -0.5259 -0.1173 -0.7214
11166TIP3    H154989   1.580   5.508  13.652 -0.3785 -0.8307 -0.3119
11166TIP3    H254990   1.544   5.516  13.799 -0.4091  0.2845 -0.3729
11167TIP3   OH254991   5.294   6.626   0.719  0.3010  0.2428 -0.0735
11167TIP3    H154992   5.199   6.630   0.714  0.0579 -0.1037  2.8723
11167TIP3    H254993   5.319   6.698   0.777  1.7142 -0.3636  0.1136
11168TIP3   OH254994   2.998   5.750   0.891 -0.2476 -0.3223  0.0551
11168TIP3    H154995   3.010   5.668   0.844 -1.1020  0.6441 -1.9411
11168TIP3    H254996   2.948   5.805   0.831 -0.6868  1.2669  1.8023
11169TIP3   OH254997   5.977   5.571  13.865 -0.2357 -0.2944  0.1095
11169TIP3    H154998   5.975   5.666  13.855 -1.3556 -0.2584  0.5359
11169TIP3    H254999   6.063   5.545  13.831  0.4520  0.9500  0.8446
11170TIP3   OH255000   5.458   4.016  16.496  0.0661  0.6372  0.0503
11170TIP3    H155001   5.398   3.985  16.427  0.9484 -0.9910 -0.0504
11170TIP3    H255002   5.434   3.964  16.573  1.0616  0.2348  0.1088
11171TIP3   OH255003   3.300   0.181  15.968 -0.1492  0.1541 -0.0169
11171TIP3    H155004   3.374   0.234  15.939  0.5192 -0.8714 -0.2435
11171TIP3    H255005   3.336   0.093  15.980 -1.1487 -0.1811  0.6975
11172TIP3   OH255006   6.527   1.794   1.163  0.4531  0.6120 -0.3173
11172TIP3    H155007   6.464   1.781   1.093 -2.6295  1.7022  2.0144
11172TIP3    H255008   6.510   1.722   1.225 -0.8479  2.6295  1.8374
11173TIP3   OH255009   5.801   6.496  11.850 -0.0114  0.2005  0.3746
11173TIP3    H155010   5.854   6.510  11.771  1.1142 -1.1312  0.8520
11173TIP3    H255011   5.742   6.571  11.853 -1.9022 -0.9310 -3.1462
11174TIP3   OH255012   0.436   4.987  15.282 -0.7235 -0.1763  0.0253
11174TIP3    H155013   0.504   5.040  15.241 -0.0083  0.5420  2.0492
11174TIP3    H255014   0.354   5.026  15.253 -0.2398  0.5379 -0.4149
11175TIP3   OH255015   4.784   5.678  10.788  0.1715 -0.1342 -0.0222
11175TIP3    H155016   4.785   5.745  10.721  0.3809 -0.3089 -0.1959
11175TIP3    H255017   4.787   5.595  10.740  1.7221 -0.2469  0.2286
11176TIP3   OH255018   0.114   3.900  14.164  0.7673 -0.0436 -0.0479
11176TIP3    H155019   0.209   3.911  14.160  0.7861  0.3338  0.9900
11176TIP3    H255020   0.098   3.869  14.254 -0.2178  1.4012  0.3013
11177TIP3   OH255021   5.893   3.072  16.028 -0.1589  0.2241  0.6075
11177TIP3    H155022   5.804   3.105  16.017  0.3125  1.5774  0.6549
11177TIP3    H255023   5.947   3.151  16.035  1.1061 -0.5647  0.1003
11178TIP3   OH255024   2.909   2.943   4.383  0.0353 -0.1054 -0.5591
11178TIP3    H155025   2.922   2.907   4.295  1.9619 -1.2152  0.1343
11178TIP3    H255026   2.966   2.891   4.440  0.7008  2.1483  0.9938
11179TIP3   OH255027   1.978   3.665   1.899  0.4432 -0.6467  0.5895
11179TIP3    H155028   2.068   3.632   1.896  0.0066 -1.8325 -0.4413
11179TIP3    H255029   1.958   3.690   1.809 -0.1425 -0.0223  0.8786
11180TIP3   OH255030   0.676   5.411  16.218 -0.2435  0.2710  0.2113
11180TIP3    H155031   0.664   5.462  16.298 -0.5576  1.3102 -0.4731
11180TIP3    H255032   0.612   5.448  16.157 -0.9801 -1.4380 -0.1025
11181TIP3   OH255033   2.371   4.716  11.743 -0.3775  0.0320 -0.5157
11181TIP3    H155034   2.278   4.705  11.763 -0.6302 -0.1381 -1.7469
11181TIP3    H255035   2.384   4.811  11.744 -0.2709  0.0277  0.8623
11182TIP3   OH255036   2.350   6.232  16.960 -0.3445  1.0082  0.1647
11182TIP3    H155037   2.388   6.319  16.964 -0.7087  1.1326  1.4709
11182TIP3    H255038   2.416   6.175  17.001 -0.5581  0.8533  0.2992
11183TIP3   OH255039   0.382   3.893  13.837  0.0750  1.1193  0.8103
11183TIP3    H155040   0.390   3.871  13.930  1.4218  0.8720  0.6469
11183TIP3    H255041   0.383   3.808  13.792  1.2598  1.2998  0.4591
11184TIP3   OH255042   0.649   4.840  14.236 -0.5932 -0.1950  0.3284
11184TIP3    H155043   0.593   4.841  14.314 -0.9371  1.8653  0.1174
11184TIP3    H255044   0.729   4.795  14.265 -1.8941 -2.3017  0.9255
11185TIP3   OH255045   3.064   4.616   0.249 -0.2151  0.3427  0.0384
11185TIP3    H155046   3.087   4.612   0.156 -3.7961  0.0782 -0.9646
11185TIP3    H255047   3.077   4.707   0.272 -2.7419  1.3233 -1.8712
11186TIP3   OH255048   2.626   3.090  14.407 -0.4615  0.3110  0.1619
11186TIP3    H155049   2.610   3.007  14.363 -0.6697  0.8325 -0.7716
11186TIP3    H255050   2.705   3.124  14.365 -0.6323  0.7899  0.2253
11187TIP3   OH255051   6.451   0.077   2.320  0.2350 -0.4404  0.0494
11187TIP3    H155052   6.394   0.127   2.378  0.3618  0.4575 -0.5872
11187TIP3    H255053   6.424   0.102   2.231 -0.1132 -1.9624 -0.3155
11188TIP3   OH255054   0.610   1.834  11.391  0.2637  0.5213 -0.1863
11188TIP3    H155055   0.689   1.855  11.340 -0.4163 -0.1830 -1.6074
11188TIP3    H255056   0.565   1.918  11.401  0.1171  0.5940 -1.3099
11189TIP3   OH255057   0.159   4.530   4.697  0.1165  0.1774  0.2304
11189TIP3    H155058   0.157   4.531   4.793  0.4423  2.6365  0.2706
11189TIP3    H255059   0.094   4.595   4.671  0.5762  0.1046 -1.2015
11190TIP3   OH255060   5.695   0.348  15.451  0.5208  0.2803 -0.1622
11190TIP3    H155061   5.693   0.443  15.440  0.2292  0.3847  0.7540
11190TIP3    H255062   5.787   0.325  15.439  0.7384  0.7912  0.5076
11191TIP3   OH255063   6.726   1.073  12.122 -0.7328  0.2167  0.3500
11191TIP3    H155064   6.723   0.983  12.090 -0.3968  0.1577  0.4828
11191TIP3    H255065   6.717   1.126  12.043  1.0905  0.0780  0.0056
11192TIP3   OH255066   5.733   4.138  13.651 -0.1987 -0.4011  0.3156
11192TIP3    H155067   5.772   4.101  13.730 -1.2633  1.1190  1.6175
11192TIP3    H255068   5.785   4.217  13.633 -0.5159 -0.2549  0.0250
11193TIP3   OH255069   5.075   5.178  11.429 -0.0957  0.3174 -0.2172
11193TIP3    H155070   5.045   5.206  11.342 -1.4900 -0.6270 -0.0694
11193TIP3    H255071   5.103   5.088  11.416 -0.5539  0.0880  0.3497
11194TIP3   OH255072   1.311   5.942   4.699  0.3044  0.0366 -0.1776
11194TIP3    H155073   1.247   5.941   4.770 -0.1566 -0.8404 -0.5788
11194TIP3    H255074   1.271   5.997   4.631  0.0778 -0.2987 -0.3232
11195TIP3   OH255075   5.070   5.061  14.365  0.8691 -0.6564 -0.2203
11195TIP3    H155076   5.115   5.021  14.290 -1.6062 -2.7532 -0.7527
11195TIP3    H255077   5.003   4.996  14.389  0.8348  0.4524  3.1154
11196TIP3   OH255078   0.481   6.447  14.985 -0.4309 -0.2799 -0.1204
11196TIP3    H155079   0.473   6.383  15.055  0.1396 -1.9500 -1.5039
11196TIP3    H255080   0.505   6.395  14.907 -0.0702  1.5926 -1.3365
11197TIP3   OH255081   5.527   3.241  15.361 -0.2073 -0.0003  0.2414
11197TIP3    H155082   5.476   3.223  15.440 -0.2217 -1.5130 -0.0825
11197TIP3    H255083   5.598   3.298  15.391 -0.4275 -0.2511  1.2753
11198TIP3   OH255084   4.574   4.629  17.046 -0.0960 -0.0003 -0.1851
11198TIP3    H155085   4.558   4.645  17.139 -1.4268 -0.2419 -0.3447
11198TIP3    H255086   4.588   4.715  17.008 -2.6398  0.4561 -0.2623
11199TIP3   OH255087   2.806   2.218  12.166  0.5202  0.0985  0.3052
11199TIP3    H155088   2.731   2.278  12.156 -0.0533 -0.2302  2.2464
11199TIP3    H255089   2.882   2.273  12.145 -0.1239  0.9306  0.0437
11200TIP3   OH255090   1.073   3.557   3.372 -0.9079  0.3099  0.1313
11200TIP3    H155091   1.037   3.605   3.447  1.0903  1.0234  0.7046
11200TIP3    H255092   1.137   3.617   3.334 -0.8561 -0.6097 -1.2779
11201TIP3   OH255093   6.347   4.535   6.205 -0.2317  0.6301 -0.0351
11201TIP3    H155094   6.393   4.477   6.143 -2.2232 -1.8037  0.5919
11201TIP3    H255095   6.385   4.621   6.189  1.0543 -0.3223 -2.9195
11202TIP3   OH255096   0.243   1.041  14.338 -0.3867 -0.2895 -0.4872
11202TIP3    H155097   0.315   0.997  14.293  0.8581  0.7685  0.3862
11202TIP3    H255098   0.164   1.008  14.295  0.4906 -2.8556 -0.2764
11203TIP3   OH255099   1.811   1.046   0.432  0.3769 -0.4354 -0.2712
11203TIP3    H155100   1.741   0.991   0.468 -0.2803  0.1337 -0.6418
11203TIP3    H255101   1.848   1.090   0.508  1.1406 -1.6319  0.0706
11204TIP3   OH255102   2.934   3.866  15.443 -0.7608  0.8173  0.2658
11204TIP3    H155103   2.986   3.883  15.365 -0.5572  2.0735  0.6532
11204TIP3    H255104   2.843   3.871  15.413 -0.7309 -1.6733 -0.4720
11205TIP3   OH255105   5.698   4.660  12.754  0.2058  0.2465 -0.2521
11205TIP3    H155106   5.648   4.606  12.693  0.8692  0.0037 -0.5798
11205TIP3    H255107   5.632   4.717  12.794 -0.3270 -0.0318 -0.7199
11206TIP3   OH255108   6.383   3.913  15.609 -0.4116 -0.0268  0.4140
11206TIP3    H155109   6.440   3.987  15.629 -1.2513  0.2887  1.7324
11206TIP3    H255110   6.332   3.942  15.533  0.5308  0.0363 -0.1999
11207TIP3   OH255111   4.009   4.085  15.351 -0.4250 -0.2603  0.4883
11207TIP3    H155112   3.959   4.127  15.281 -1.4901 -1.1494  0.6971
11207TIP3    H255113   4.037   4.002  15.314 -1.5261 -1.0202  1.2975
11208TIP3   OH255114   0.592   2.313   3.500  0.8465  0.9551 -0.1958
11208TIP3    H155115   0.658   2.347   3.440  0.2010  0.6286 -1.1178
11208TIP3    H255116   0.572   2.225   3.467  0.8101  0.5805  0.7709
11209TIP3   OH255117   3.282   3.233  15.230  0.0503  0.1450 -0.3398
11209TIP3    H155118   3.234   3.275  15.159 -0.7519 -0.1579  0.0110
11209TIP3    H255119   3.314   3.151  15.193  0.6431  0.5282 -0.6893
11210TIP3   OH255120   6.710   1.569   1.988  0.0047 -0.1051 -0.1685
11210TIP3    H155121   6.734   1.527   1.906  1.1713 -0.6685  0.4301
11210TIP3    H255122   6.714   1.663   1.970  2.1065 -0.1829 -0.2943
11211TIP3   OH255123   2.368   4.033   2.153  0.2286 -0.1534 -0.6106
11211TIP3    H155124   2.334   3.945   2.137  0.5641 -0.1603 -1.3386
11211TIP3    H255125   2.412   4.057   2.071  2.0990 -0.1989  0.3244
11212TIP3   OH255126   6.518   6.746  16.120 -0.2105 -0.1200 -0.0448
11212TIP3    H155127   6.519   6.786  16.033 -0.0885  1.5436  0.6815
11212TIP3    H255128   6.580   6.674  16.113 -1.5475 -1.1689 -1.8180
11213TIP3   OH255129   6.409   6.005  15.847 -0.3419  0.3386  0.5464
11213TIP3    H155130   6.370   6.026  15.932 -1.5501 -2.1633  0.7000
11213TIP3    H255131   6.439   6.089  15.812 -1.1205  1.6149  2.7993
11214TIP3   OH255132   0.443   2.549   6.576  0.3838  0.0856 -0.0740
11214TIP3    H155133   0.420   2.470   6.528 -3.2979  0.6827  0.4237
11214TIP3    H255134   0.435   2.524   6.668  1.2385  0.5539  0.1392
11215TIP3   OH255135   2.712   4.859  12.218 -0.2713  0.0923  0.5114
11215TIP3    H155136   2.674   4.946  12.212 -1.0064 -0.1052  1.8902
11215TIP3    H255137   2.789   4.870  12.274  1.7733  0.4723 -2.1779
11216TIP3   OH255138   3.150   2.291   5.505 -0.1205 -0.0962  0.1707
11216TIP3    H155139   3.060   2.280   5.476  0.4334  0.9480 -2.1329
11216TIP3    H255140   3.155   2.382   5.534  0.6399  0.5111 -1.7024
11217TIP3   OH255141   4.676   0.131  13.671 -0.7676  0.0912  0.2441
11217TIP3    H155142   4.616   0.122  13.597 -0.4543 -1.2713  0.1364
11217TIP3    H255143   4.759   0.156  13.631 -0.6951 -0.2547  0.1834
11218TIP3   OH255144   0.117   4.516  12.833 -0.0363  0.0548 -0.3936
11218TIP3    H155145   0.084   4.434  12.797 -2.1879  1.1694 -1.1286
11218TIP3    H255146   0.044   4.577  12.824  1.1151  1.7631  1.1671
11219TIP3   OH255147   0.425   2.604   2.729  0.2737 -0.1069  0.3691
11219TIP3    H155148   0.375   2.568   2.802 -0.0294  0.7126  0.5738
11219TIP3    H255149   0.464   2.527   2.687  2.3428 -0.5021  2.7103
11220TIP3   OH255150   4.377   3.735  12.878  0.5389  0.1222  0.3041
11220TIP3    H155151   4.399   3.701  12.965  2.8162  0.3675 -0.1014
11220TIP3    H255152   4.436   3.688  12.819 -0.5772  0.3658 -1.0624
11221TIP3   OH255153   0.671   2.910  12.422  1.0571  0.1624 -0.2238
11221TIP3    H155154   0.721   2.898  12.503  1.5145  0.9979 -0.3677
11221TIP3    H255155   0.724   2.868  12.355  0.4601 -0.9269 -0.0351
11222TIP3   OH255156   1.904   3.232   6.144  0.5773  0.0299  0.4171
11222TIP3    H155157   1.932   3.265   6.230 -1.2600  0.4366  0.9048
11222TIP3    H255158   1.833   3.171   6.164  1.9426 -2.0263 -0.6743
11223TIP3   OH255159   4.172   4.170   5.623 -0.3450 -0.4726  0.1854
11223TIP3    H155160   4.226   4.178   5.544 -0.3554 -0.1374  0.2139
11223TIP3    H255161   4.235   4.148   5.692 -0.0121  1.3835  0.5237
11224TIP3   OH255162   2.285   2.458  16.577 -0.5327  0.1270 -0.3666
11224TIP3    H155163   2.283   2.539  16.629  1.7631 -1.0003  1.6862
11224TIP3    H255164   2.201   2.415  16.597 -0.9099  1.0509  0.1252
11225TIP3   OH255165   6.204   5.003  14.494  0.2916  0.4621  0.1220
11225TIP3    H155166   6.147   5.052  14.554 -1.7384 -0.3358 -1.0263
11225TIP3    H255167   6.280   4.979  14.548 -1.0449  0.4792  2.1547
11226TIP3   OH255168   0.112   6.433   0.823 -0.3307 -0.2263  0.2297
11226TIP3    H155169   0.095   6.477   0.906 -0.5105  0.4987 -0.1732
11226TIP3    H255170   0.039   6.460   0.767 -0.5223 -1.1784  0.0147
11227TIP3   OH255171   5.823   3.243   3.321 -0.0150 -0.6417  0.0670
11227TIP3    H155172   5.821   3.283   3.234 -0.2563  0.4365  0.5547
11227TIP3    H255173   5.778   3.306   3.377 -1.5834 -2.1871  0.6321
11228TIP3   OH255174   3.181   0.851   1.468  0.5865 -0.1325  0.0962
11228TIP3    H155175   3.183   0.847   1.372  0.3767  1.1190  0.0295
11228TIP3    H255176   3.250   0.790   1.496  1.8607  0.8136 -0.8830
11229TIP3   OH255177   4.140   0.700  12.342 -0.4174  0.6726  0.1647
11229TIP3    H155178   4.058   0.750  12.347 -0.7000  0.3671 -1.0811
11229TIP3    H255179   4.151   0.681  12.249 -1.1742 -2.9956  0.6595
11230TIP3   OH255180   2.208   6.664   5.295  0.0152 -0.3014  0.7618
11230TIP3    H155181   2.287   6.610   5.288  0.4942  0.3748  0.7810
11230TIP3    H255182   2.224   6.719   5.371 -0.6716 -0.4589  1.0227
11231TIP3   OH255183   4.832   1.765   5.304  0.2725  0.4564  0.2164
11231TIP3    H155184   4.801   1.853   5.281  0.2271  0.0394 -1.4430
11231TIP3    H255185   4.867   1.774   5.393  1.2424  2.4048 -0.3035
11232TIP3   OH255186   1.686   3.110  13.133 -0.1941 -0.4137 -0.7960
11232TIP3    H155187   1.749   3.157  13.188 -0.4706 -0.2671 -0.6058
11232TIP3    H255188   1.690   3.155  13.048 -0.0549 -0.3940 -0.7794
11233TIP3   OH255189   1.758   1.676  13.020  0.3565 -0.4240  0.2056
11233TIP3    H155190   1.812   1.744  13.060  2.4893 -1.5527 -0.6280
11233TIP3    H255191   1.711   1.637  13.093 -0.1639  1.2619  0.8183
11234TIP3   OH255192   0.341   0.317  16.424  0.5092  0.2457  0.0066
11234TIP3    H155193   0.397   0.284  16.354 -0.5165 -2.4297  0.3243
11234TIP3    H255194   0.264   0.353  16.378  0.1837 -0.8102 -0.3113
11235TIP3   OH255195   0.841   6.818  12.528  0.3425  0.1632 -0.2230
11235TIP3    H155196   0.792   6.895  12.559  0.0792  0.4471 -1.2962
11235TIP3    H255197   0.866   6.772  12.608  0.2931  1.2387  0.4325
11236TIP3   OH255198   0.009   0.910  11.288 -0.1890 -0.1506 -0.4920
11236TIP3    H155199  -0.057   0.851  11.251  0.5513 -0.3536 -1.5521
11236TIP3    H255200   0.075   0.918  11.219  1.0617 -0.2043  0.6598
11237TIP3   OH255201   4.682   2.350   1.186  0.1491 -0.1607  0.0613
11237TIP3    H155202   4.724   2.343   1.100  0.8934  0.0287  0.4031
11237TIP3    H255203   4.711   2.434   1.220  0.7312 -0.7066  0.9473
11238TIP3   OH255204   4.994   5.226   2.609  0.4383  0.0523 -0.2626
11238TIP3    H155205   4.924   5.162   2.615  0.9143 -0.3490  2.0377
11238TIP3    H255206   5.055   5.203   2.680  1.6425  1.8478 -0.6106
11239TIP3   OH255207   6.611   5.911  15.346  0.9037  0.0183 -0.3883
11239TIP3    H155208   6.563   5.829  15.330 -0.2724  0.4416  0.7712
11239TIP3    H255209   6.546   5.980  15.335  1.5878  0.7221 -0.1593
11240TIP3   OH255210   4.066   6.369  14.205 -0.0040  0.3741  0.2520
11240TIP3    H155211   3.979   6.377  14.245  0.2214 -0.5399  0.9600
11240TIP3    H255212   4.083   6.455  14.168 -0.6543  0.9533  1.2477
11241TIP3   OH255213   2.791   4.370   3.749  0.0760  0.0607 -0.2019
11241TIP3    H155214   2.867   4.365   3.806 -0.9183  0.4083  1.2165
11241TIP3    H255215   2.742   4.289   3.767 -1.1860  1.0319  0.8495
11242TIP3   OH255216   6.163   3.670   1.881 -0.8669 -0.3162  0.1346
11242TIP3    H155217   6.188   3.694   1.792 -2.6198 -0.5038 -0.4565
11242TIP3    H255218   6.214   3.591   1.899  0.4665  0.4322 -0.1779
11243TIP3   OH255219   1.914   4.430  12.546 -0.0160 -0.7061  0.1848
11243TIP3    H155220   1.962   4.372  12.605 -0.2579 -1.4388 -0.3391
11243TIP3    H255221   1.974   4.445  12.473 -0.2163 -0.8390 -0.0061
11244TIP3   OH255222   0.951   4.252   5.693 -0.1149 -0.0860  0.2324
11244TIP3    H155223   1.020   4.255   5.626 -1.5825 -0.3151 -1.3805
11244TIP3    H255224   0.996   4.228   5.773  1.9148  1.3014 -0.4075
11245TIP3   OH255225   6.780   2.930  12.354  0.6676 -0.1768  0.6610
11245TIP3    H155226   6.843   2.872  12.396 -0.6424 -2.8165 -0.7157
11245TIP3    H255227   6.707   2.872  12.331 -0.7877  2.0815 -0.7821
11246TIP3   OH255228   1.992   5.260   1.683  0.1235  0.3115 -0.4947
11246TIP3    H155229   2.043   5.341   1.677  0.2273  0.2282 -0.7296
11246TIP3    H255230   2.055   5.190   1.666  0.5883  0.0097  2.1257
11247TIP3   OH255231   2.064   0.838  11.210  0.7633 -0.3047  0.7325
11247TIP3    H155232   2.109   0.877  11.135 -0.1164  0.2222  0.4664
11247TIP3    H255233   2.102   0.882  11.286  0.2082  0.6430  0.4688
11248TIP3   OH255234   1.406   1.871  13.295  0.2252  0.2859 -0.8127
11248TIP3    H155235   1.470   1.934  13.260 -0.4693 -0.5209 -3.7768
11248TIP3    H255236   1.321   1.905  13.266 -0.1791 -1.8127 -2.3041
11249TIP3   OH255237   4.988   1.062  16.570 -0.0188 -0.4340  0.1940
11249TIP3    H155238   5.024   1.008  16.500 -2.1314 -0.4115 -1.0105
11249TIP3    H255239   4.934   1.127  16.525 -0.3153  0.4674  1.7797
11250TIP3   OH255240   2.078   3.656   3.147 -0.8899 -0.4329 -0.2233
11250TIP3    H155241   2.008   3.713   3.114 -2.2533 -2.1057 -0.3463
11250TIP3    H255242   2.052   3.635   3.236 -0.2049 -0.5812 -0.0535
11251TIP3   OH255243   1.954   0.627   3.132 -0.3054 -0.1379 -0.1569
11251TIP3    H155244   1.951   0.608   3.038 -0.3686  0.1671 -0.2195
11251TIP3    H255245   1.921   0.717   3.139  3.2569  1.3530 -0.2620
11252TIP3   OH255246   6.386   0.875   5.544  0.4125 -0.6360 -0.3257
11252TIP3    H155247   6.409   0.941   5.479  0.9848 -0.7237 -0.2204
11252TIP3    H255248   6.299   0.846   5.519  0.9821 -1.3283 -1.6180
11253TIP3   OH255249   5.894   5.266   5.746  0.3546  0.3159  0.2182
11253TIP3    H155250   5.978   5.229   5.774 -0.2940 -0.2899  1.4283
11253TIP3    H255251   5.854   5.198   5.692  0.7218  0.6997 -0.5634
11254TIP3   OH255252   6.355   4.807   1.358 -0.3942  0.0454 -0.3161
11254TIP3    H155253   6.279   4.807   1.300 -1.7038 -1.1018  1.3023
11254TIP3    H255254   6.339   4.735   1.418 -0.0771  2.2828  2.6877
11255TIP3   OH255255   2.674   2.812   1.387 -0.0454  0.6759  0.5085
11255TIP3    H155256   2.611   2.884   1.380  1.1429  1.5741 -1.6132
11255TIP3    H255257   2.738   2.842   1.452  0.3875  1.5084 -0.2919
11256TIP3   OH255258   1.524   3.113   1.745 -0.0938 -0.1386  0.3573
11256TIP3    H155259   1.486   3.159   1.670  2.2081 -2.0391 -2.1462
11256TIP3    H255260   1.614   3.144   1.748 -0.4990  1.0835  3.4818
11257TIP3   OH255261   3.124   3.646   0.542 -0.0805  0.1892 -0.3844
11257TIP3    H155262   3.054   3.685   0.490 -0.8282  0.5271  0.8437
11257TIP3    H255263   3.204   3.683   0.506 -0.6467  1.1418 -0.6966
11258TIP3   OH255264   4.138   0.368  10.868  0.3455  0.1354 -0.1916
11258TIP3    H155265   4.087   0.376  10.949  1.1869 -0.3431  0.4029
11258TIP3    H255266   4.181   0.453  10.859  0.1212  0.2456 -0.2240
11259TIP3   OH255267   1.215   1.235  16.103  0.4282  0.3983 -0.1717
11259TIP3    H155268   1.153   1.288  16.154  0.9270 -0.8945  1.8670
11259TIP3    H255269   1.173   1.149  16.096  1.8266 -0.4180  1.0242
11260TIP3   OH255270   1.308   5.376   5.098 -0.6551  0.3782  0.3928
11260TIP3    H155271   1.241   5.444   5.093 -1.1606 -0.1981 -1.0346
11260TIP3    H255272   1.269   5.300   5.056  0.4980 -0.3028  0.5089
11261TIP3   OH255273   3.018   3.925   0.606  0.0206 -0.4370 -0.5493
11261TIP3    H155274   3.113   3.929   0.616 -0.1249 -0.5038  1.0198
11261TIP3    H255275   3.004   3.851   0.547  0.8974 -1.1030  0.0437
11262TIP3   OH255276   4.125   1.020  11.078  0.2395 -0.2476 -0.4289
11262TIP3    H155277   4.127   0.940  11.131 -1.5832 -0.8044 -1.1330
11262TIP3    H255278   4.126   1.091  11.142 -1.8570 -0.9032  0.4190
11263TIP3   OH255279   3.327   5.078  10.716 -0.7778  0.4604  0.0307
11263TIP3    H155280   3.399   5.132  10.683 -1.7835  1.4831 -0.5678
11263TIP3    H255281   3.366   5.025  10.785 -0.4262  4.5471  3.3275
11264TIP3   OH255282   3.199   0.103   4.795  0.2367  1.0259 -0.0419
11264TIP3    H155283   3.190   0.068   4.884 -1.2094 -0.2966 -0.6577
11264TIP3    H255284   3.123   0.160   4.784 -1.1442 -0.9047 -1.2734
11265TIP3   OH255285   3.350   3.436  16.642 -0.1041  0.3801  0.0683
11265TIP3    H155286   3.406   3.362  16.668  0.6580  0.3130 -1.6722
11265TIP3    H255287   3.378   3.507  16.699  0.8121 -0.0337  0.1626
11266TIP3   OH255288   3.062   0.460   1.163 -0.1074 -0.1626 -0.2790
11266TIP3    H155289   3.007   0.401   1.112  1.4983 -1.4275 -0.6226
11266TIP3    H255290   3.057   0.426   1.252 -0.4731  0.2005 -0.1543
11267TIP3   OH255291   0.271   0.655  14.292  0.0659 -0.0023 -0.1532
11267TIP3    H155292   0.338   0.720  14.270 -0.8659  2.3140  3.0604
11267TIP3    H255293   0.188   0.702  14.284 -0.8705 -1.5731 -0.1083
11268TIP3   OH255294   3.980   5.748  15.817  0.1530  0.2345 -0.2790
11268TIP3    H155295   3.920   5.686  15.858  0.4641  1.0741  1.5597
11268TIP3    H255296   4.034   5.780  15.889 -0.0199  2.6530 -1.1384
11269TIP3   OH255297   4.450   5.149   4.842 -0.2792 -0.7515  0.4870
11269TIP3    H155298   4.520   5.212   4.822 -0.7226 -0.4258 -0.0992
11269TIP3    H255299   4.477   5.108   4.924  1.9830 -2.6141 -1.0478
11270TIP3   OH255300   2.960   6.280   5.616  0.1958 -0.3815  0.6744
11270TIP3    H155301   2.920   6.367   5.613 -0.7281 -0.7901  0.6758
11270TIP3    H255302   3.000   6.270   5.529 -2.1997 -1.0543 -0.4691
11271TIP3   OH255303   1.535   1.267  16.962 -0.0978  0.3213  0.3689
11271TIP3    H155304   1.603   1.206  16.991  0.5333 -0.2431 -2.0881
11271TIP3    H255305   1.551   1.346  17.014  0.6905 -0.7239  1.7902
11272TIP3   OH255306   6.284   5.763   4.927  0.2441  0.4431  0.2411
11272TIP3    H155307   6.230   5.686   4.911  0.1964 -0.2940  3.2365
11272TIP3    H255308   6.355   5.757   4.864 -1.0113 -0.7449 -1.1339
11273TIP3   OH255309   5.030   4.518   3.364  0.0264 -0.5132  0.4016
11273TIP3    H155310   5.021   4.580   3.436  2.8351  0.0012  0.4201
11273TIP3    H255311   5.101   4.553   3.310  1.3177 -3.3628  0.0843
11274TIP3   OH255312   6.065   3.652  16.397  0.3249  0.1326  0.0742
11274TIP3    H155313   6.115   3.733  16.388 -0.1715  0.5599  0.9997
11274TIP3    H255314   6.088   3.619  16.484 -0.5958  0.0695  0.3011
11275TIP3   OH255315   3.172   6.563  13.734  0.4726 -0.2983 -0.2388
11275TIP3    H155316   3.217   6.632  13.685  1.5736 -1.6675 -1.2446
11275TIP3    H255317   3.142   6.607  13.814  3.5204  0.7928  0.4797
11276TIP3   OH255318   4.683   4.164  13.353 -0.3250 -0.1865  0.2646
11276TIP3    H155319   4.641   4.078  13.348 -1.8410  0.5665 -0.7658
11276TIP3    H255320   4.754   4.159  13.289  0.5219 -1.1162  1.2369
11277TIP3   OH255321   1.764   2.319  16.273 -0.0877 -0.1439  0.1157
11277TIP3    H155322   1.679   2.359  16.254 -0.9053 -1.8988 -0.1297
11277TIP3    H255323   1.762   2.303  16.367 -0.2748 -0.6993  0.0198
11278TIP3   OH255324   5.449   6.152   3.952  0.8070 -0.2400 -0.1878
11278TIP3    H155325   5.470   6.160   3.860 -0.6897  3.8957 -0.3789
11278TIP3    H255326   5.530   6.174   3.998  2.3652 -4.8412 -0.1709
11279TIP3   OH255327   3.542   2.520  11.980  0.6741  0.0049  0.4977
11279TIP3    H155328   3.475   2.585  11.961 -0.7632 -0.8497  2.3703
11279TIP3    H255329   3.569   2.488  11.893 -2.1230 -0.3913 -0.3257
11280TIP3   OH255330   0.041   2.361  14.753 -0.1529  0.3631 -0.4154
11280TIP3    H155331   0.135   2.356  14.735  0.1264  2.8228 -0.1127
11280TIP3    H255332   0.015   2.445  14.715 -2.2886 -0.3387 -0.6278
11281TIP3   OH255333   0.590   3.139  11.500  0.6565 -0.6946  0.0844
11281TIP3    H155334   0.563   3.127  11.409  2.1422 -0.7823 -0.3727
11281TIP3    H255335   0.650   3.066  11.517  0.1895 -0.8291  1.2248
11282TIP3   OH255336   5.854   5.963   5.258  0.3786 -0.1419 -0.3971
11282TIP3    H155337   5.775   6.010   5.232 -0.7477 -1.4585  0.4596
11282TIP3    H255338   5.895   6.019   5.324 -0.7457 -0.1400  0.3495
11283TIP3   OH255339   3.322   6.626  16.242 -0.2399  0.1463  0.5973
11283TIP3    H155340   3.397   6.568  16.245  0.0170  0.5212  1.6528
11283TIP3    H255341   3.355   6.710  16.273 -0.5546  0.9444 -1.1002
11284TIP3   OH255342   1.474   5.934   2.192  0.4227 -0.0843 -0.2483
11284TIP3    H155343   1.404   5.996   2.173  0.5225  0.5128  1.1574
11284TIP3    H255344   1.553   5.976   2.158  0.5140  0.6717  0.8400
11285TIP3   OH255345   4.872   2.838  12.002 -0.0288  0.2556 -0.1663
11285TIP3    H155346   4.859   2.750  12.037  0.5630  0.9526  1.9710
11285TIP3    H255347   4.872   2.895  12.079  0.5034  2.0333 -1.4031
11286TIP3   OH255348   6.726   4.718  10.864 -0.0867 -0.2632  0.3352
11286TIP3    H155349   6.785   4.764  10.922 -1.9514  1.5163  0.9359
11286TIP3    H255350   6.638   4.741  10.895 -1.1427 -2.5156 -0.7057
11287TIP3   OH255351   0.467   6.030   1.005 -0.2821  0.4908 -0.3106
11287TIP3    H155352   0.558   6.051   1.026 -0.1477 -0.3345 -0.0593
11287TIP3    H255353   0.458   6.055   0.913  0.4787 -0.3137 -0.6207
11288TIP3   OH255354   2.656   4.597   3.654 -0.2095  0.0292 -0.5173
11288TIP3    H155355   2.722   4.530   3.669  1.0721  0.9391 -1.7819
11288TIP3    H255356   2.656   4.610   3.559 -1.5490  0.7025 -0.4478
11289TIP3   OH255357   3.938   1.125  11.732  0.2410  0.6536 -0.0607
11289TIP3    H155358   3.989   1.126  11.813  1.2247  0.8857 -0.6761
11289TIP3    H255359   3.847   1.124  11.762  0.5411  2.4081  1.0627
11290TIP3   OH255360   0.120   6.324   4.965 -0.8378 -0.2602 -0.1737
11290TIP3    H155361   0.176   6.277   4.902 -0.9394  0.5581 -0.8977
11290TIP3    H255362   0.182   6.372   5.020 -0.4954 -3.5870  2.6678
11291TIP3   OH255363   4.619   2.913  16.524  0.3996 -0.3426  0.2480
11291TIP3    H155364   4.698   2.859  16.530  0.6000  0.0191  1.2363
11291TIP3    H255365   4.549   2.852  16.504  0.5379 -1.0674  1.8290
11292TIP3   OH255366   0.689   3.087  12.145 -0.0307  0.2560 -0.4110
11292TIP3    H155367   0.773   3.120  12.175 -0.1304  0.9768 -0.9023
11292TIP3    H255368   0.681   3.000  12.185  1.0402  0.0911 -0.5363
11293TIP3   OH255369   4.087   1.910  12.799  0.6333  0.0476  0.1725
11293TIP3    H155370   4.055   1.997  12.778  1.8598  0.6986  0.9069
11293TIP3    H255371   4.062   1.896  12.890  1.0530 -0.0881  0.2680
11294TIP3   OH255372   0.108   4.021   2.366  0.7240  0.6568 -0.8445
11294TIP3    H155373   0.147   4.070   2.439  0.8157  0.2373 -0.6102
11294TIP3    H255374   0.058   4.087   2.317 -0.3778  0.7109  0.3074
11295TIP3   OH255375   3.418   6.550  12.450  0.3412  0.2353 -0.1857
11295TIP3    H155376   3.363   6.475  12.469 -1.1015  1.0454 -0.9805
11295TIP3    H255377   3.477   6.520  12.380  0.1015 -0.2985 -0.1588
11296TIP3   OH255378   2.798   2.729  14.115 -0.0127  0.2770  0.4797
11296TIP3    H155379   2.875   2.676  14.137  1.1027  1.1976 -1.0259
11296TIP3    H255380   2.732   2.665  14.086  0.2882 -0.4834  1.4088
11297TIP3   OH255381   4.101   3.371   3.972 -0.1006 -0.1439 -0.3308
11297TIP3    H155382   4.009   3.357   3.950  0.3325 -2.0003 -1.1151
11297TIP3    H255383   4.116   3.315   4.048 -0.1493  1.9143  1.2942
11298TIP3   OH255384   3.037   2.621  14.807 -0.2105  0.3957  0.0332
11298TIP3    H155385   2.973   2.556  14.777  0.6681 -0.6483  0.3400
11298TIP3    H255386   3.092   2.573  14.870  1.4260  0.9695 -0.8875
11299TIP3   OH255387   5.160   2.796   3.825  0.5589 -0.4571 -0.2949
11299TIP3    H155388   5.161   2.754   3.911  1.0161 -0.3750 -0.2539
11299TIP3    H255389   5.188   2.726   3.764 -0.0047 -0.5841 -0.4128
11300TIP3   OH255390   5.580   0.108  14.698  0.2435 -0.1341  0.1669
11300TIP3    H155391   5.615   0.185  14.744  0.2362 -0.2634  0.3897
11300TIP3    H255392   5.526   0.064  14.763 -0.3820  0.0912 -0.1965
11301TIP3   OH255393   5.604   4.889  13.048  0.1589 -0.1855 -0.9270
11301TIP3    H155394   5.557   4.873  12.966 -0.9811 -1.3438 -0.0872
11301TIP3    H255395   5.630   4.801  13.077  0.8176  0.2441 -0.1955
11302TIP3   OH255396   1.001   4.259   6.340 -0.3184  0.2694 -0.1626
11302TIP3    H155397   1.093   4.252   6.365 -0.0202  0.3817 -1.1626
11302TIP3    H255398   0.979   4.173   6.305 -1.2218 -0.4258  1.9666
11303TIP3   OH255399   1.660   1.461  15.120 -0.2434 -0.2552 -0.3705
11303TIP3    H155400   1.660   1.522  15.046 -0.1171  1.0237  0.6498
11303TIP3    H255401   1.591   1.399  15.100 -0.0702 -0.0535 -1.6595
11304TIP3   OH255402   4.635   1.586   3.054  0.1286 -0.3813  0.2684
11304TIP3    H155403   4.730   1.602   3.060  0.0571  1.1844 -1.6105
11304TIP3    H255404   4.609   1.561   3.142  2.2717 -0.7185  0.8642
11305TIP3   OH255405   6.635   4.253  14.750 -0.0523  0.2766  0.1612
11305TIP3    H155406   6.554   4.291  14.786  0.2980  1.2427 -0.0399
11305TIP3    H255407   6.679   4.214  14.826 -0.8754 -0.5962  0.2125
11306TIP3   OH255408   2.228   5.577   1.442 -0.3596  0.1524  0.2366
11306TIP3    H155409   2.218   5.557   1.349  1.5017  0.4407 -0.0541
11306TIP3    H255410   2.275   5.501   1.477 -0.1060  0.5344  0.7236
11307TIP3   OH255411   5.425   0.189  10.727 -0.6253  0.2233 -0.4857
11307TIP3    H155412   5.480   0.234  10.662  0.7274  0.9309  1.0856
11307TIP3    H255413   5.397   0.259  10.786 -1.3661 -0.5019  0.0393
11308TIP3   OH255414   1.922   6.288  16.662 -0.4104  0.4275 -0.2418
11308TIP3    H155415   1.922   6.383  16.653 -0.3433  0.4720  0.1975
11308TIP3    H255416   2.004   6.268  16.708 -0.6847  0.2064  0.1609
11309TIP3   OH255417   0.526   5.234   3.430 -0.5575 -0.2483 -0.0639
11309TIP3    H155418   0.471   5.178   3.376  0.6377 -1.5034 -0.0358
11309TIP3    H255419   0.615   5.205   3.411 -0.0795 -0.8686  2.6882
11310TIP3   OH255420   0.881   1.755  13.975  0.6127  0.1664  0.1712
11310TIP3    H155421   0.955   1.758  14.035 -0.2710 -2.6903  1.5890
11310TIP3    H255422   0.843   1.843  13.979  1.9970  0.7353  1.9460
11311TIP3   OH255423   0.360   3.440   3.576  0.1453 -0.0275 -0.2626
11311TIP3    H155424   0.357   3.535   3.590  3.2969 -0.1431  2.9432
11311TIP3    H255425   0.305   3.404   3.645  0.7037 -0.5220 -0.0663
11312TIP3   OH255426   4.901   4.803   1.784  0.2904  0.4644  0.0907
11312TIP3    H155427   4.828   4.800   1.846  1.4770 -1.3322  1.5004
11312TIP3    H255428   4.899   4.892   1.748 -1.2738  1.1260  1.6877
11313TIP3   OH255429   5.731   4.275  14.391 -0.2045 -0.1295  0.3590
11313TIP3    H155430   5.638   4.294  14.402 -0.7874 -2.5525  0.2846
11313TIP3    H255431   5.733   4.186  14.355  2.1345  0.1980 -0.4939
11314TIP3   OH255432   3.375   2.065   3.775 -0.0250 -0.4633  0.2899
11314TIP3    H155433   3.398   2.020   3.694  0.0671  0.0017  0.0490
11314TIP3    H255434   3.371   1.996   3.841 -1.2551 -1.0267 -0.3357
11315TIP3   OH255435   5.044   0.185   2.606 -0.2220 -0.0448 -0.7173
11315TIP3    H155436   4.965   0.132   2.610  1.0137 -1.9735 -0.1042
11315TIP3    H255437   5.014   0.275   2.612 -2.4736 -0.6217 -2.1076
11316TIP3   OH255438   0.228   2.961   1.534 -0.4395 -0.2287  0.1472
11316TIP3    H155439   0.312   3.001   1.513 -1.0443  2.0681  1.6813
11316TIP3    H255440   0.247   2.901   1.606  0.0660 -0.6355 -0.3225
11317TIP3   OH255441   1.407   6.330   3.396 -0.1022 -0.1472 -0.1133
11317TIP3    H155442   1.373   6.314   3.484  3.2540 -1.7054  1.0807
11317TIP3    H255443   1.406   6.243   3.354 -0.2231  0.2916 -1.0439
11318TIP3   OH255444   1.465   4.628   4.739 -0.2611  0.5427 -0.1276
11318TIP3    H155445   1.542   4.596   4.692  0.4463 -1.2965  2.1100
11318TIP3    H255446   1.488   4.718   4.764  1.7718 -0.3742  1.5939
11319TIP3   OH255447   2.073   1.588   1.828  0.1912  0.2312  0.1600
11319TIP3    H155448   2.130   1.584   1.751 -0.0081  1.8234 -0.0917
11319TIP3    H255449   2.006   1.652   1.806 -1.7074 -1.5278  0.4940
11320TIP3   OH255450   5.568   4.993   3.146  0.1562 -0.2851  0.2029
11320TIP3    H155451   5.541   4.903   3.162 -1.9913  0.0277 -1.1982
11320TIP3    H255452   5.577   5.031   3.233 -1.4600 -1.1870  0.7998
11321TIP3   OH255453   4.757   0.726  15.121 -0.3750 -0.8270  0.3783
11321TIP3    H155454   4.676   0.680  15.140 -0.7092 -0.0467  0.9075
11321TIP3    H255455   4.763   0.793  15.189  0.5689 -0.6949  0.1766
11322TIP3   OH255456   4.333   4.722  13.529  0.8845  0.2301  0.1615
11322TIP3    H155457   4.373   4.673  13.601  2.4849  2.4127  0.8856
11322TIP3    H255458   4.406   4.766  13.486 -0.3259  1.0055 -1.2053
11323TIP3   OH255459   6.104   3.459   0.204 -0.1908  0.6331 -0.1537
11323TIP3    H155460   6.037   3.495   0.147 -0.2918 -2.5688 -2.2937
11323TIP3    H255461   6.057   3.439   0.286 -1.5890 -0.2353 -1.1097
11324TIP3   OH255462   5.642   3.312   4.455  0.0200 -0.1049  0.2918
11324TIP3    H155463   5.725   3.335   4.416  0.1178 -1.5245 -0.4014
11324TIP3    H255464   5.611   3.393   4.496  0.0461  1.3972 -2.4275
11325TIP3   OH255465   0.751   4.456   5.755  0.5686 -0.0700 -0.2675
11325TIP3    H155466   0.834   4.412   5.774  0.3732 -0.5579 -0.5280
11325TIP3    H255467   0.687   4.412   5.812 -0.1028 -1.8090 -2.2542
11326TIP3   OH255468   6.822   1.603   6.126  0.5758 -0.0524  0.2736
11326TIP3    H155469   6.804   1.571   6.214  0.6626  0.3214  0.4317
11326TIP3    H255470   6.903   1.655   6.135  0.9142 -0.4938 -0.1389
11327TIP3   OH255471   4.566   5.288  15.915 -0.5717 -0.2184  0.0563
11327TIP3    H155472   4.579   5.372  15.959  0.8688  0.3288 -1.3286
11327TIP3    H255473   4.473   5.288  15.889 -0.2394  1.6754 -1.3091
11328TIP3   OH255474   0.172   0.583   2.038  0.6531 -0.2570 -0.0225
11328TIP3    H155475   0.109   0.539   2.095  0.8465 -0.4878  0.0131
11328TIP3    H255476   0.218   0.512   1.993  1.0038 -0.0927  0.0747
11329TIP3   OH255477   3.757   6.610  16.510 -0.6271  0.0347  0.1462
11329TIP3    H155478   3.836   6.558  16.524 -0.6555 -0.2958 -0.8311
11329TIP3    H255479   3.785   6.681  16.453 -0.8093  0.5286  0.6647
11330TIP3   OH255480   4.785   0.440  14.967 -0.6336 -0.3336  0.0638
11330TIP3    H155481   4.790   0.472  15.057  0.7972 -0.5034  0.0558
11330TIP3    H255482   4.757   0.517  14.916  0.6258  0.3516  0.3640
11331TIP3   OH255483   3.356   4.849  15.144 -0.1672  0.1680  0.1382
11331TIP3    H155484   3.387   4.829  15.056 -0.5416  0.1583  0.0074
11331TIP3    H255485   3.288   4.784  15.161 -1.3408  1.2364 -0.2566
11332TIP3   OH255486   6.772   1.694   2.643  0.1741  0.1263 -0.7005
11332TIP3    H155487   6.718   1.646   2.705 -1.3288  0.9195 -1.3361
11332TIP3    H255488   6.800   1.629   2.579  1.0703 -0.5390  0.3374
11333TIP3   OH255489   1.606   3.910  14.816 -0.0915 -0.4904 -0.0649
11333TIP3    H155490   1.516   3.907  14.850  0.2354  0.0263  0.8779
11333TIP3    H255491   1.659   3.873  14.887  0.4722 -0.5586 -0.5204
11334TIP3   OH255492   3.409   2.906  12.667 -0.5005  0.0658 -0.4796
11334TIP3    H155493   3.498   2.874  12.653 -0.1828  1.2812 -1.4082
11334TIP3    H255494   3.408   2.937  12.757 -0.1442 -0.4199 -0.3057
11335TIP3   OH255495   0.571   6.272  13.229  0.5065  0.6824 -0.7194
11335TIP3    H155496   0.617   6.294  13.148 -0.2585 -0.0284 -1.3697
11335TIP3    H255497   0.632   6.216  13.277  0.3604 -0.2365 -1.5649
11336TIP3   OH255498   1.658   6.224   0.789  0.1117 -0.2734  0.1377
11336TIP3    H155499   1.616   6.267   0.715  1.5807 -0.0749 -0.6186
11336TIP3    H255500   1.652   6.287   0.860  1.1224  0.7003 -0.6083
11337TIP3   OH255501   5.338   1.977  12.233  0.3624  0.1796  0.4044
11337TIP3    H155502   5.298   2.036  12.296 -2.1201 -1.1663  0.2247
11337TIP3    H255503   5.411   1.937  12.280  0.8220  1.8449  1.1693
11338TIP3   OH255504   2.008   1.469   3.601  0.0494  0.0807  0.0120
11338TIP3    H155505   1.933   1.430   3.645  0.8007 -0.3326  0.9482
11338TIP3    H255506   1.977   1.555   3.572 -0.3715  0.4932  1.6151
11339TIP3   OH255507   3.337   5.193  14.106  0.3314 -0.8461  0.2921
11339TIP3    H155508   3.348   5.182  14.012  3.5707  0.1890  0.4172
11339TIP3    H255509   3.334   5.288  14.119  0.1638 -0.9723  1.2486
11340TIP3   OH255510   4.948   0.755  16.641  0.2961  0.2580  0.8797
11340TIP3    H155511   5.024   0.696  16.645  0.6355  0.7271  1.6543
11340TIP3    H255512   4.987   0.843  16.638 -0.1396  0.4456 -2.4214
11341TIP3   OH255513   5.917   0.093  14.570  0.0147 -0.0710  0.5673
11341TIP3    H155514   5.887   0.068  14.658  0.1162  1.1054  0.9671
11341TIP3    H255515   5.929   0.010  14.524 -0.2132 -0.7095  1.6097
11342TIP3   OH255516   1.647   4.000   5.311  0.2924 -0.4428  0.5121
11342TIP3    H155517   1.606   3.994   5.398 -0.7972 -0.4770  0.0089
11342TIP3    H255518   1.738   3.975   5.326  0.2845  0.2058  1.7686
11343TIP3   OH255519   2.787   5.508   2.637 -0.0150 -0.5283  0.0095
11343TIP3    H155520   2.805   5.420   2.603  2.2217  0.5192 -1.7267
11343TIP3    H255521   2.720   5.543   2.579  2.4474  0.5555 -2.3619
11344TIP3   OH255522   3.902   5.501   3.060 -0.0792 -0.3328 -0.6799
11344TIP3    H155523   3.932   5.416   3.092 -3.0020 -1.8787 -1.7054
11344TIP3    H255524   3.815   5.512   3.098  0.4319  2.5194 -0.1404
11345TIP3   OH255525   3.233   6.763   1.588  0.1845  0.2633  0.3536
11345TIP3    H155526   3.272   6.695   1.642 -0.8521 -0.6867 -0.0419
11345TIP3    H255527   3.260   6.741   1.499  0.1580  0.5979  0.2607
11346TIP3   OH255528   6.781   4.360   1.481  0.0674  0.2384 -0.2302
11346TIP3    H155529   6.809   4.268   1.480  0.9938  0.5068 -0.1697
11346TIP3    H255530   6.757   4.377   1.572  0.3518  0.1872 -0.1448
11347TIP3   OH255531   2.190   2.901  13.495  0.2868 -0.0425 -0.0853
11347TIP3    H155532   2.106   2.871  13.462  1.1828 -0.0819 -2.5565
11347TIP3    H255533   2.188   2.996  13.483  0.8585 -0.1230 -0.9621
11348TIP3   OH255534   4.266   4.421   3.975 -0.5927 -0.1459  0.4768
11348TIP3    H155535   4.220   4.499   4.006  1.1704  1.2704 -0.3532
11348TIP3    H255536   4.215   4.393   3.898  0.4286  2.0214 -1.0709
11349TIP3   OH255537   5.898   0.287   3.362  0.3426  0.2602 -0.3227
11349TIP3    H155538   5.986   0.309   3.393  1.0568 -1.9497 -0.6210
11349TIP3    H255539   5.841   0.308   3.436  1.5589 -1.3415  1.1535
11350TIP3   OH255540   6.717   2.543   2.791 -0.0698 -0.0948  0.4679
11350TIP3    H155541   6.655   2.477   2.823  2.7621 -3.2130  0.1118
11350TIP3    H255542   6.802   2.512   2.822  1.5376  3.1096 -0.3530
11351TIP3   OH255543   2.618   5.759  16.453 -0.1885  0.3648 -0.2140
11351TIP3    H155544   2.534   5.757  16.407 -0.5831  0.0373  0.5021
11351TIP3    H255545   2.662   5.836  16.418 -1.3486  1.3401  0.3865
11352TIP3   OH255546   1.289   1.964  15.236 -0.6814  0.2136  0.3911
11352TIP3    H155547   1.295   2.060  15.233  0.5926  0.1296 -1.4829
11352TIP3    H255548   1.331   1.940  15.319  0.4033  1.2287  0.1684
11353TIP3   OH255549   4.110   2.928   2.043 -0.4504 -0.4918  0.3084
11353TIP3    H155550   4.027   2.966   2.014 -0.0097  0.6966  0.5519
11353TIP3    H255551   4.084   2.849   2.091 -1.3788 -0.6368 -0.4073
11354TIP3   OH255552   3.419   3.827  17.213  0.2054 -0.4614 -0.2303
11354TIP3    H155553   3.428   3.897  17.278 -2.4966  0.7000 -0.9465
11354TIP3    H255554   3.346   3.774  17.245  1.1724 -2.0290 -0.5409
11355TIP3   OH255555   4.918   5.809   6.267 -0.5850 -0.1240  0.3077
11355TIP3    H155556   4.825   5.825   6.256 -0.8890 -0.6587  1.8332
11355TIP3    H255557   4.952   5.798   6.178 -1.4720  2.5654 -0.4351
11356TIP3   OH255558   6.607   0.842  15.362  0.5265  0.2079 -0.1421
11356TIP3    H155559   6.700   0.866  15.357  0.8029 -1.0881 -2.0352
11356TIP3    H255560   6.561   0.918  15.326  1.1304 -0.3999 -2.3486
11357TIP3   OH255561   5.723   3.087  16.763 -0.1195  0.4530 -0.2370
11357TIP3    H155562   5.716   3.026  16.689 -1.8126 -0.3435  0.5210
11357TIP3    H255563   5.783   3.045  16.824  1.4017  1.1803 -1.1681
11358TIP3   OH255564   6.075   5.194  14.767  0.1296  0.0137 -0.2875
11358TIP3    H155565   6.074   5.101  14.791  1.4952  0.4389  1.6055
11358TIP3    H255566   5.984   5.222  14.777  0.2161 -0.3978  2.4032
11359TIP3   OH255567   2.631   5.138  13.087  0.1639 -0.2678  0.1829
11359TIP3    H155568   2.667   5.220  13.052  2.1261 -0.6221  1.2223
11359TIP3    H255569   2.565   5.166  13.150  0.6690  0.5129  0.3796
11360TIP3   OH255570   5.995   5.315  16.934  0.7678  0.3968  0.2688
11360TIP3    H155571   5.986   5.320  17.029  0.4653  0.9699  0.2155
11360TIP3    H255572   5.909   5.287  16.903  0.8439  0.2838  0.1603
11361TIP3   OH255573   1.097   1.163   5.397  0.6307  0.0511  0.5510
11361TIP3    H155574   1.089   1.108   5.475 -1.6600  0.4200  0.6425
11361TIP3    H255575   1.187   1.195   5.400  1.0735 -1.1959  2.1848
11362TIP3   OH255576   0.556   6.582   0.192 -0.6008  0.4708 -0.5996
11362TIP3    H155577   0.590   6.590   0.103 -0.7143 -0.0099 -0.6865
11362TIP3    H255578   0.565   6.670   0.228  0.7613  0.3685 -0.6165
11363TIP3   OH255579   6.218   4.243  13.822 -0.7319 -0.3413  0.5319
11363TIP3    H155580   6.300   4.272  13.782 -1.1503 -0.2040 -0.2479
11363TIP3    H255581   6.222   4.276  13.912  0.1226 -0.4553  0.5445
11364TIP3   OH255582   3.484   4.717   3.658 -0.1670  0.7511  0.1370
11364TIP3    H155583   3.544   4.738   3.587  0.6247 -1.9386 -0.0862
11364TIP3    H255584   3.401   4.696   3.615 -0.2782  1.0926  0.1806
11365TIP3   OH255585   1.741   3.500   1.977  0.0924 -0.0063  0.4424
11365TIP3    H155586   1.722   3.534   2.064 -0.7532  1.1475 -0.1637
11365TIP3    H255587   1.811   3.556   1.944  0.6133 -0.6236  0.4738
11366TIP3   OH255588   4.444   1.164  16.606 -0.2443 -0.1803 -0.3012
11366TIP3    H155589   4.431   1.258  16.617 -1.0073 -0.3206  0.0882
11366TIP3    H255590   4.458   1.131  16.695  2.0072 -0.1760 -0.6171
11367TIP3   OH255591   6.818   0.269   5.556  0.4429 -0.3057  0.0804
11367TIP3    H155592   6.852   0.215   5.627  1.5681  2.4571  1.7965
11367TIP3    H255593   6.890   0.328   5.534 -1.5332  2.3645  0.3110
11368TIP3   OH255594   3.209   1.626  14.067  0.3588  0.2446 -0.5216
11368TIP3    H155595   3.276   1.692  14.053  0.6477  0.0576 -0.0592
11368TIP3    H255596   3.257   1.546  14.086  0.0116 -0.1387 -1.2259
11369TIP3   OH255597   0.592   4.758   5.688 -0.0882  0.2479 -0.2986
11369TIP3    H155598   0.659   4.714   5.636 -1.6526 -1.1580 -1.2426
11369TIP3    H255599   0.597   4.850   5.663  0.9997  0.0399 -0.8737
11370TIP3   OH255600   2.666   5.466  14.073 -0.7740  0.2757 -0.1902
11370TIP3    H155601   2.671   5.370  14.076 -0.7774  0.2483 -0.8187
11370TIP3    H255602   2.745   5.492  14.026 -2.0945  0.3835 -2.5333
11371TIP3   OH255603   3.624   5.948   3.281 -0.4971  0.0752  0.0668
11371TIP3    H155604   3.588   5.886   3.219  1.5684 -0.7833 -0.3470
11371TIP3    H255605   3.631   6.030   3.232 -0.5233 -0.1351 -0.2891
11372TIP3   OH255606   2.654   2.509   5.157 -0.1219 -0.5759 -0.2437
11372TIP3    H155607   2.590   2.501   5.228  0.1258  0.1388  0.0745
11372TIP3    H255608   2.731   2.461   5.188 -0.3198 -0.9958 -0.4021
11373TIP3   OH255609   0.810   3.413   6.295  0.5870 -0.2047  0.2433
11373TIP3    H155610   0.769   3.499   6.304  2.6501  0.6896  1.8597
11373TIP3    H255611   0.807   3.395   6.201 -3.1288 -0.1411  0.1941
11374TIP3   OH255612   0.781   3.095   1.765 -0.0446 -0.5615 -0.2869
11374TIP3    H155613   0.830   3.138   1.836 -1.9268 -1.3229  1.5668
11374TIP3    H255614   0.849   3.056   1.710  1.7678  3.7595 -1.5437
11375TIP3   OH255615   1.471   2.940  12.397 -1.0449  0.2602  0.7155
11375TIP3    H155616   1.439   2.855  12.428  0.7610 -1.3339 -1.4542
11375TIP3    H255617   1.563   2.924  12.375 -0.7137  2.7453  0.0769
11376TIP3   OH255618   5.059   2.390   1.222  0.7376  0.2268  0.1383
11376TIP3    H155619   5.089   2.477   1.198  0.1628  0.2586 -0.5105
11376TIP3    H255620   5.061   2.340   1.140 -1.5305  0.4098 -0.0877
11377TIP3   OH255621   2.292   3.727  16.988  0.1228  0.1482  0.1862
11377TIP3    H155622   2.246   3.705  16.907  0.3742  0.4730 -0.0484
11377TIP3    H255623   2.366   3.668  16.991 -0.9994 -1.2807  1.2249
11378TIP3   OH255624   5.737   2.767  11.932 -0.8984  0.0402  0.2093
11378TIP3    H155625   5.726   2.781  12.026 -1.8205 -1.0927  0.3002
11378TIP3    H255626   5.760   2.674  11.924 -1.4097 -0.0209 -0.7255
11379TIP3   OH255627   4.641   3.406   3.040  0.8643 -0.2749  0.0444
11379TIP3    H155628   4.562   3.453   3.011  1.6195  0.2583 -1.2568
11379TIP3    H255629   4.684   3.467   3.100  1.2512  0.2433 -0.7431
11380TIP3   OH255630   0.059   5.184   1.854  0.6462  0.0544 -0.6692
11380TIP3    H155631   0.073   5.278   1.865  0.1392  0.1072 -0.4575
11380TIP3    H255632  -0.031   5.169   1.883  1.2813 -0.7904  1.0508
11381TIP3   OH255633   3.584   2.111   0.737  0.6048 -0.0159 -0.0722
11381TIP3    H155634   3.508   2.112   0.679  0.8122 -0.5843 -0.3580
11381TIP3    H255635   3.608   2.019   0.744  0.8534  0.0915  0.5690
11382TIP3   OH255636   4.758   6.138  15.542  0.0147 -0.2084  0.4352
11382TIP3    H155637   4.840   6.138  15.492 -1.0883 -0.1358 -1.4790
11382TIP3    H255638   4.739   6.046  15.558  1.1975 -0.1961  2.2644
11383TIP3   OH255639   1.856   2.605  17.241 -0.5009 -0.3077  0.3219
11383TIP3    H155640   1.797   2.676  17.268 -3.0695 -1.9611 -0.4882
11383TIP3    H255641   1.920   2.648  17.185 -1.9964  1.3912 -0.2151
11384TIP3   OH255642   3.740   4.856  14.786 -0.0010 -0.4527 -0.7013
11384TIP3    H155643   3.731   4.857  14.691  1.0304  0.1139 -0.8061
11384TIP3    H255644   3.792   4.778  14.805  1.3115  0.3860 -0.7682
11385TIP3   OH255645   3.634   6.815  12.271 -0.1941 -0.4936 -0.3232
11385TIP3    H155646   3.721   6.830  12.232 -0.1367  0.1229  0.0428
11385TIP3    H255647   3.632   6.720  12.286 -0.0356 -0.6869 -1.3953
11386TIP3   OH255648   1.430   6.388  16.195  0.1300 -0.4806  0.7378
11386TIP3    H155649   1.426   6.331  16.118  1.2705 -0.4553  0.6335
11386TIP3    H255650   1.524   6.397  16.213 -0.0871  0.2385  1.5957
11387TIP3   OH255651   4.983   2.088   0.745 -0.1156  0.0740  0.3591
11387TIP3    H155652   5.007   2.165   0.692 -1.2583  0.8181  0.8893
11387TIP3    H255653   5.052   2.024   0.726  0.5071  0.9877 -0.6004
11388TIP3   OH255654   1.005   1.548  15.928  0.4256 -0.2711 -0.6319
11388TIP3    H155655   1.018   1.557  16.022  0.2094  0.1668 -0.6445
11388TIP3    H255656   1.092   1.531  15.894  0.9904  2.2584 -0.6659
11389TIP3   OH255657   5.492   4.371   2.724 -0.2076  0.1866  0.0314
11389TIP3    H155658   5.462   4.285   2.693  0.7600 -0.3598  0.5467
11389TIP3    H255659   5.562   4.350   2.787  2.2652  1.3844 -2.1497
11390TIP3   OH255660   2.840   6.610  10.277  0.5854  0.2983 -0.4181
11390TIP3    H155661   2.830   6.659  10.359 -0.1974 -1.8205  0.8215
11390TIP3    H255662   2.935   6.603  10.264  0.7534 -0.5629  1.1051
11391TIP3   OH255663   5.355   5.150  12.839 -0.0835  0.4215  0.7420
11391TIP3    H155664   5.388   5.185  12.922  0.4577  0.3082  0.5745
11391TIP3    H255665   5.282   5.093  12.865 -3.3679  4.2070  0.8800
11392TIP3   OH255666   4.576   1.113   6.376  0.2375  0.0418 -1.0504
11392TIP3    H155667   4.623   1.177   6.323 -1.2857  0.7047 -1.6369
11392TIP3    H255668   4.639   1.042   6.390  2.0999  1.7870 -0.0764
11393TIP3   OH255669   4.020   3.609   1.104 -0.4484 -0.5429  0.0800
11393TIP3    H155670   4.002   3.529   1.153 -0.1631 -0.9205 -0.4129
11393TIP3    H255671   3.986   3.591   1.016  1.6670 -1.0612 -0.7156
11394TIP3   OH255672   0.800   4.133   5.252 -0.0751  0.0735 -0.4556
11394TIP3    H155673   0.889   4.125   5.218  0.9342  0.1080  1.9484
11394TIP3    H255674   0.798   4.074   5.328 -1.8850  0.6001 -0.0465
11395TIP3   OH255675   2.939   0.024   0.122 -0.1419 -0.1803 -0.4196
11395TIP3    H155676   2.944  -0.071   0.123  1.0487 -0.1577 -1.5964
11395TIP3    H255677   2.942   0.049   0.214 -0.2793 -1.2670 -0.1095
11396TIP3   OH255678   0.892   1.413   4.010  0.0088 -0.0065 -0.0120
11396TIP3    H155679   0.874   1.505   4.024 -1.3190 -0.0966 -0.9381
11396TIP3    H255680   0.908   1.406   3.916  0.5019 -0.6559  0.1138
11397TIP3   OH255681   1.899   5.853  11.509  0.3639  0.1963  0.1282
11397TIP3    H155682   1.966   5.919  11.531  1.3575 -0.9549  0.6956
11397TIP3    H255683   1.825   5.874  11.566  0.7818  0.6322  0.5245
11398TIP3   OH255684   1.319   0.014   5.553  0.1242  0.3456 -0.5070
11398TIP3    H155685   1.247   0.016   5.616  0.9587 -1.4755  0.5621
11398TIP3    H255686   1.344   0.106   5.542 -1.2783  0.8542  0.3479
11399TIP3   OH255687   4.643   3.974  14.131  0.1818 -0.2701 -0.3241
11399TIP3    H155688   4.636   4.022  14.049 -0.6853 -0.5775 -0.4439
11399TIP3    H255689   4.598   4.029  14.195  0.6052 -0.1669 -0.1109
11400TIP3   OH255690   4.869   1.507   5.092 -0.0642  0.3553 -0.4726
11400TIP3    H155691   4.888   1.413   5.088  0.5241  0.4941 -1.1310
11400TIP3    H255692   4.923   1.546   5.023 -0.9229  1.0808 -0.7573
11401TIP3   OH255693   6.495   6.796   5.867 -0.0172  0.6480 -0.4875
11401TIP3    H155694   6.493   6.807   5.772 -1.5581  0.2733 -0.5274
11401TIP3    H255695   6.418   6.743   5.887  0.5459  0.3020  0.9330
11402TIP3   OH255696   6.548   4.302  13.086 -0.5449  0.0668  0.3188
11402TIP3    H155697   6.539   4.397  13.081 -0.1440  0.4053  3.6433
11402TIP3    H255698   6.460   4.270  13.103 -0.3469  0.1127  1.4920
11403TIP3   OH255699   5.778   3.985  14.347 -0.0233  0.0440 -0.1859
11403TIP3    H155700   5.864   3.953  14.321 -0.2252 -0.4245 -0.2825
11403TIP3    H255701   5.724   3.907  14.353 -0.6461  0.4007 -0.8844
11404TIP3   OH255702   3.003   6.355   0.617  0.3417  0.1673 -0.7598
11404TIP3    H155703   2.950   6.420   0.663  2.3289  1.6062 -0.3747
11404TIP3    H255704   2.940   6.304   0.565 -1.2853  2.4780 -1.1785
11405TIP3   OH255705   1.392   5.433  11.944 -0.1334  0.5968 -0.1495
11405TIP3    H155706   1.479   5.409  11.976  0.4719  0.9931 -1.4405
11405TIP3    H255707   1.376   5.373  11.870 -0.3621  1.4196 -0.7857
11406TIP3   OH255708   3.372   2.863  12.290  0.2663  0.0697  0.1129
11406TIP3    H155709   3.328   2.948  12.295 -0.2351 -0.2353  1.1320
11406TIP3    H255710   3.447   2.878  12.232 -0.0471  1.0998 -0.0405
11407TIP3   OH255711   0.239   2.344  12.392  0.2445  0.2120  0.3812
11407TIP3    H155712   0.208   2.365  12.304 -0.1352 -1.3784  0.1047
11407TIP3    H255713   0.188   2.267  12.418  1.1504 -0.0280  1.5453
11408TIP3   OH255714   3.688   1.254   4.018  0.3985 -0.3830  0.0070
11408TIP3    H155715   3.619   1.217   3.963 -0.1105  1.2905 -0.5143
11408TIP3    H255716   3.671   1.219   4.106 -1.4135  0.3652 -0.0131
11409TIP3   OH255717   5.072   6.277  14.362  0.3234 -0.0455  0.1054
11409TIP3    H155718   5.017   6.355  14.372  1.2017  0.5712  0.2239
11409TIP3    H255719   5.018   6.205  14.396  0.1046  0.7517  1.4973
11410TIP3   OH255720   1.008   5.180   2.741  0.1500 -0.3138 -0.1429
11410TIP3    H155721   1.041   5.122   2.809 -0.9273 -0.3308  0.3664
11410TIP3    H255722   1.061   5.159   2.664  2.8340  1.1244  1.1556
11411TIP3   OH255723   1.179   2.925  16.967  0.3122 -0.1452 -0.2706
11411TIP3    H155724   1.130   2.996  16.925  0.2159  0.0573  0.1766
11411TIP3    H255725   1.198   2.958  17.055 -1.0743 -1.2679  0.4925
11412TIP3   OH255726   2.555   6.180   4.831  0.4519 -0.2820  0.0440
11412TIP3    H155727   2.503   6.100   4.824  1.2730 -0.9939  1.5488
11412TIP3    H255728   2.494   6.250   4.809 -0.9067 -1.1690  0.8211
11413TIP3   OH255729   1.198   3.620   1.600 -0.0660  0.0450  0.0634
11413TIP3    H155730   1.124   3.618   1.661  0.9043 -0.0881  1.2739
11413TIP3    H255731   1.255   3.549   1.629  0.8817  0.5970 -0.4065
11414TIP3   OH255732   2.197   3.811   4.061 -0.2899  0.3192  0.4031
11414TIP3    H155733   2.111   3.826   4.101 -0.1440  1.4057  0.3393
11414TIP3    H255734   2.221   3.896   4.024 -0.1244 -0.4920 -1.4416
11415TIP3   OH255735   0.267   3.027  16.887  0.3591  0.5176 -1.0639
11415TIP3    H155736   0.361   3.014  16.876  0.6547  0.1653  1.3672
11415TIP3    H255737   0.228   2.941  16.870  0.6436  0.2923 -0.5909
11416TIP3   OH255738   1.665   5.957   1.506  0.3217 -0.1770  0.0834
11416TIP3    H155739   1.721   5.955   1.583  1.3080  1.5893 -0.5336
11416TIP3    H255740   1.700   5.888   1.449  0.2860 -0.7327  0.7196
11417TIP3   OH255741   2.949   1.397  11.865 -0.3546  0.2317  0.4633
11417TIP3    H155742   3.044   1.392  11.875 -0.2387 -1.0602 -0.8954
11417TIP3    H255743   2.916   1.320  11.912 -0.7482  0.6762  0.9316
11418TIP3   OH255744   1.634   1.277   0.984  0.0411  0.2100  0.6866
11418TIP3    H155745   1.637   1.330   0.904 -1.2687  1.6253  1.5252
11418TIP3    H255746   1.664   1.190   0.956  0.6409  0.9437 -1.0928
11419TIP3   OH255747   1.996   5.332   6.478 -0.1593  0.0891 -0.0444
11419TIP3    H155748   1.905   5.341   6.506 -0.3066  0.8042 -0.7186
11419TIP3    H255749   2.027   5.252   6.521 -0.9391  0.1321  0.6208
11420TIP3   OH255750   1.445   4.846   4.209 -0.0242  0.1170  0.3988
11420TIP3    H155751   1.433   4.751   4.202 -0.5623  0.1356  0.9082
11420TIP3    H255752   1.365   4.876   4.253 -0.0020  0.8484 -0.0570
11421TIP3   OH255753   3.740   3.306   3.786 -0.3897 -0.7199  0.1494
11421TIP3    H155754   3.652   3.333   3.813  0.2164 -0.1121  1.6052
11421TIP3    H255755   3.779   3.268   3.864  1.1218  0.2588 -0.0901
11422TIP3   OH255756   3.273   4.235   2.920  0.7173  0.3187  0.2593
11422TIP3    H155757   3.222   4.176   2.865 -0.7723 -0.3359  2.2248
11422TIP3    H255758   3.352   4.185   2.941  0.5521 -0.0480  0.0254
11423TIP3   OH255759   5.440   2.585   3.782  0.3213  0.0970  0.6740
11423TIP3    H155760   5.355   2.556   3.749  0.3853 -1.4685  1.7770
11423TIP3    H255761   5.425   2.676   3.809 -0.2369  0.7946 -1.6859
11424TIP3   OH255762   2.786   6.018   5.324 -0.0150 -0.6760  0.1595
11424TIP3    H155763   2.851   6.085   5.347  0.3498 -1.2046  0.6785
11424TIP3    H255764   2.703   6.065   5.324  0.1107 -0.4159  1.5093
11425TIP3   OH255765   1.613   4.579   5.789 -0.3347  0.3133 -0.2368
11425TIP3    H155766   1.565   4.606   5.867 -0.7223 -0.8570 -0.0389
11425TIP3    H255767   1.705   4.596   5.810 -0.5794  1.8577 -0.3194
11426TIP3   OH255768   5.305   1.143   1.625  0.3326 -0.5049 -0.2103
11426TIP3    H155769   5.238   1.123   1.691 -0.4180 -0.4685 -0.9505
11426TIP3    H255770   5.277   1.094   1.547  0.3602  0.6685 -0.9752
11427TIP3   OH255771   2.057   3.518   2.505 -0.0483 -0.6487 -0.5841
11427TIP3    H155772   2.077   3.425   2.503 -0.2867 -0.7040 -0.3184
11427TIP3    H255773   2.080   3.547   2.593  0.9807 -0.2422 -0.9684
11428TIP3   OH255774   6.596   6.774   1.944  0.3495 -0.1924  0.4526
11428TIP3    H155775   6.548   6.702   1.903  1.5065 -0.5294 -0.3503
11428TIP3    H255776   6.597   6.751   2.037  0.0073 -0.8000  0.3132
11429TIP3   OH255777   3.248   4.858   5.591  0.3345  0.0407  0.3229
11429TIP3    H155778   3.252   4.786   5.527 -0.1407 -0.0145  0.3499
11429TIP3    H255779   3.301   4.927   5.552 -0.6579  0.3308 -0.5569
11430TIP3   OH255780   4.723   6.642   4.684  0.0433 -0.2724 -0.0681
11430TIP3    H155781   4.660   6.640   4.756  0.2227  2.2643  0.2517
11430TIP3    H255782   4.797   6.590   4.716 -0.3061 -0.0521  1.1517
11431TIP3   OH255783   1.067   1.507  13.799  0.1406  0.6682  0.3083
11431TIP3    H155784   0.980   1.467  13.797  0.6343 -0.4124 -0.6145
11431TIP3    H255785   1.126   1.434  13.816  0.9983  1.1221 -0.6395
11432TIP3   OH255786   1.155   1.470   1.818 -0.0594  0.2115 -0.3479
11432TIP3    H155787   1.179   1.438   1.731  0.5660 -0.1818 -0.0431
11432TIP3    H255788   1.135   1.390   1.868 -3.2386  0.5508 -0.8871
11433TIP3   OH255789   3.976   4.641   4.165 -0.0587 -0.5256  0.1524
11433TIP3    H155790   3.983   4.731   4.132  1.1834 -1.0447 -1.1022
11433TIP3    H255791   4.046   4.634   4.230 -0.1116 -0.6131  0.1996
11434TIP3   OH255792   4.677   6.773  13.872 -0.0992 -0.2964  0.1633
11434TIP3    H155793   4.768   6.744  13.862  0.1288  0.1978  0.7776
11434TIP3    H255794   4.662   6.828  13.795  0.4364  0.4155  0.5622
11435TIP3   OH255795   5.300   4.135  16.071 -0.4233 -0.9097 -0.3058
11435TIP3    H155796   5.317   4.115  15.979  1.2505  2.4902 -0.9342
11435TIP3    H255797   5.237   4.208  16.068  2.7160  2.1578  0.7865
11436TIP3   OH255798   1.360   3.694  17.125 -0.5620 -0.3290  0.1409
11436TIP3    H155799   1.287   3.635  17.145  0.1458 -0.8648  1.2894
11436TIP3    H255800   1.328   3.781  17.147 -1.3669 -0.3552 -0.8547
11437TIP3   OH255801   3.175   6.703  12.898 -0.1606  0.3812  0.0139
11437TIP3    H155802   3.115   6.777  12.894 -0.4245  0.1998  0.5825
11437TIP3    H255803   3.210   6.696  12.809 -0.3999  0.9640 -0.1315
11438TIP3   OH255804   4.280   5.257   1.874  0.1892 -0.0116 -0.2976
11438TIP3    H155805   4.271   5.222   1.962  1.9307  0.1852 -0.0085
11438TIP3    H255806   4.355   5.317   1.879  0.4362 -0.1327 -1.9471
11439TIP3   OH255807   3.140   5.603  16.547  0.0376  0.4608 -0.0207
11439TIP3    H155808   3.049   5.590  16.523 -0.1201  1.2802  0.1106
11439TIP3    H255809   3.142   5.585  16.641  0.1106 -0.0346 -0.1145
11440TIP3   OH255810   1.136   4.151  17.107 -0.0687  0.4104  0.0012
11440TIP3    H155811   1.147   4.241  17.138  1.1033  1.1955 -2.4274
11440TIP3    H255812   1.174   4.151  17.019 -0.8864 -2.2489 -0.4471
11441TIP3   OH255813   5.568   6.810   5.347  0.1949 -0.1247  0.5025
11441TIP3    H155814   5.475   6.797   5.365  0.2887 -1.0228  0.3838
11441TIP3    H255815   5.573   6.809   5.251  0.3772 -0.4685  0.5153
11442TIP3   OH255816   4.811   5.201   4.073  0.0512  0.3956  0.8988
11442TIP3    H155817   4.858   5.135   4.124  1.6556  0.3584 -0.5248
11442TIP3    H255818   4.766   5.255   4.138 -1.6468 -2.2876  2.0983
11443TIP3   OH255819   6.035   5.772   0.692 -0.1446  0.4083 -0.5347
11443TIP3    H155820   6.104   5.825   0.731 -0.8594  0.9329  0.0547
11443TIP3    H255821   6.059   5.765   0.600  0.1924  1.3903 -0.5368
11444TIP3   OH255822   3.989   4.667   2.207  0.3486  0.0773 -0.4944
11444TIP3    H155823   4.026   4.622   2.283  1.0142 -1.0008 -1.4336
11444TIP3    H255824   4.054   4.734   2.185  0.4910 -0.0752 -0.5406
11445TIP3   OH255825   5.014   3.664  16.342 -0.2719  0.2627 -0.1441
11445TIP3    H155826   4.919   3.657  16.349 -0.3725  1.1283 -0.4466
11445TIP3    H255827   5.033   3.754  16.369  0.3729  0.3436 -0.8399
11446TIP3   OH255828   5.578   1.156   0.570  0.1812  0.7096  0.2467
11446TIP3    H155829   5.571   1.065   0.544  1.2731  0.3979  0.9826
11446TIP3    H255830   5.532   1.162   0.654  0.7960  0.6496  0.5945
11447TIP3   OH255831   0.334   1.286  14.776  0.9568 -0.0107 -0.5020
11447TIP3    H155832   0.297   1.366  14.739 -1.4004 -0.9509 -0.3743
11447TIP3    H255833   0.346   1.228  14.701  1.4312  0.0001 -0.4373
11448TIP3   OH255834   2.967   4.089  17.015  0.5004  0.8477  0.3891
11448TIP3    H155835   3.007   4.003  17.017  0.6351  0.8627 -0.9726
11448TIP3    H255836   3.034   4.147  16.979 -0.0707  1.2404 -0.0740
11449TIP3   OH255837   5.082   3.566   0.124 -0.1731 -0.1075 -0.2176
11449TIP3    H155838   5.036   3.522   0.195 -0.3796 -0.6513 -0.6788
11449TIP3    H255839   5.167   3.523   0.119  1.4341  2.4652  2.2158
11450TIP3   OH255840   3.805   4.410  13.936  0.2243 -0.0079  0.3786
11450TIP3    H155841   3.714   4.410  13.906  1.0576  0.5941 -2.5542
11450TIP3    H255842   3.829   4.317  13.941 -0.4903 -0.1649  1.0368
11451TIP3   OH255843   2.301   2.755   2.537 -0.2586  0.4746  0.1265
11451TIP3    H155844   2.251   2.784   2.613 -1.4038  1.0304 -0.7957
11451TIP3    H255845   2.392   2.761   2.564 -0.6203  1.2643  1.2460
11452TIP3   OH255846   4.289   0.051   0.711  0.3350 -0.4606  0.1886
11452TIP3    H155847   4.364   0.098   0.745  0.2068  1.4852 -1.9314
11452TIP3    H255848   4.221   0.061   0.778  1.7399 -1.8008  1.8859
11453TIP3   OH255849   2.838   2.690   0.622  0.0468  0.8294  0.1197
11453TIP3    H155850   2.900   2.746   0.575  1.0718  0.0804  0.5403
11453TIP3    H255851   2.762   2.686   0.565  0.8374  0.8198 -0.9721
11454TIP3   OH255852   2.900   5.148  10.417 -0.0827 -0.2602 -0.0049
11454TIP3    H155853   2.903   5.244  10.414 -0.4606 -0.2577 -0.3135
11454TIP3    H255854   2.807   5.127  10.415 -0.0599 -0.5974  1.3647
11455TIP3   OH255855   0.891   2.890  15.852 -0.2985 -0.0263 -0.2531
11455TIP3    H155856   0.863   2.971  15.894  0.3177  0.2649 -0.3852
11455TIP3    H255857   0.840   2.822  15.895 -0.9911  0.4530 -0.3024
11456TIP3   OH255858   3.159   1.569   0.728 -0.0078  0.0085  0.0864
11456TIP3    H155859   3.183   1.488   0.683  1.9295 -0.0191  1.0153
11456TIP3    H255860   3.227   1.632   0.702  0.2199  0.4527  1.6546
11457TIP3   OH255861   0.657   4.526   1.466  0.3972  0.1683  0.1681
11457TIP3    H155862   0.574   4.491   1.434  0.9211 -1.0072  0.0659
11457TIP3    H255863   0.641   4.621   1.473 -0.6822  0.0701 -0.6442
11458TIP3   OH255864   4.606   6.612  16.683  0.0808 -0.1896 -0.3102
11458TIP3    H155865   4.524   6.605  16.732  1.1361 -0.5926  1.4745
11458TIP3    H255866   4.632   6.704  16.692  1.1795 -0.6329  1.4908
11459TIP3   OH255867   3.719   6.150  11.128 -0.3871  0.1647 -0.0176
11459TIP3    H155868   3.735   6.167  11.035  1.2397  2.3872  0.5815
11459TIP3    H255869   3.644   6.205  11.150 -1.1196 -0.7759 -0.1015
11460TIP3   OH255870   1.552   2.272   4.372  0.0118  0.2306 -0.3878
11460TIP3    H155871   1.543   2.293   4.465  0.7544  0.5329 -0.3757
11460TIP3    H255872   1.586   2.182   4.371 -2.8582 -0.9504 -0.4349
11461TIP3   OH255873   1.402   4.736   0.784  0.8346  0.5874  0.1867
11461TIP3    H155874   1.339   4.808   0.786  0.7835  0.5332  1.8890
11461TIP3    H255875   1.350   4.659   0.806  0.4735 -0.3966 -3.5359
11462TIP3   OH255876   3.286   0.255  11.118  0.0326 -0.1020 -1.1398
11462TIP3    H155877   3.339   0.206  11.056 -1.1564 -2.1803 -0.6121
11462TIP3    H255878   3.206   0.277  11.069  0.9785  2.3922 -1.7157
11463TIP3   OH255879   0.756   6.436  13.892 -0.0970 -0.2268 -0.5348
11463TIP3    H155880   0.702   6.439  13.971  0.5706  1.5073 -0.1091
11463TIP3    H255881   0.831   6.493  13.912 -0.0044  0.3897 -2.4788
11464TIP3   OH255882   1.339   4.646   6.355 -0.4945 -0.3203  0.1061
11464TIP3    H155883   1.403   4.716   6.370 -1.2512  0.4750 -0.2334
11464TIP3    H255884   1.363   4.608   6.270 -1.0034  0.6013 -0.4706
11465TIP3   OH255885   4.735   6.463   2.803  0.3941 -0.0342  0.0739
11465TIP3    H155886   4.689   6.391   2.762 -0.0119  0.4685 -0.3621
11465TIP3    H255887   4.692   6.474   2.888 -1.3528  1.4164 -0.9266
11466TIP3   OH255888   2.727   6.311  15.244  0.0241 -0.0360  0.7461
11466TIP3    H155889   2.818   6.297  15.269  0.3175  0.3625 -0.0539
11466TIP3    H255890   2.703   6.233  15.193 -0.0365 -0.0772  0.8371
11467TIP3   OH255891   0.626   1.309   3.727  0.0215 -0.2650  0.3610
11467TIP3    H155892   0.627   1.216   3.749 -3.0716 -0.4801 -0.0290
11467TIP3    H255893   0.613   1.311   3.632  0.2647  0.5821  0.3328
11468TIP3   OH255894   6.190   5.164   5.359  0.5581  0.3567  0.0955
11468TIP3    H155895   6.237   5.244   5.385  0.8919 -0.5260  2.4372
11468TIP3    H255896   6.248   5.123   5.295  1.9526  0.4259  1.2577
11469TIP3   OH255897   5.857   1.569   2.615  0.2483  0.4016  0.0773
11469TIP3    H155898   5.839   1.635   2.548  0.5898 -0.4737 -0.9097
11469TIP3    H255899   5.885   1.619   2.691 -0.1722  1.4249 -0.4179
11470TIP3   OH255900   6.684   6.033  11.922 -0.0508  0.1062 -0.0903
11470TIP3    H155901   6.727   5.952  11.953 -0.3885 -0.1872 -0.3828
11470TIP3    H255902   6.753   6.080  11.875 -0.1467 -0.5637 -0.9303
11471TIP3   OH255903   5.827   6.643  13.523  0.0085 -0.4118 -0.3333
11471TIP3    H155904   5.786   6.719  13.566  0.5135 -1.7215  2.7610
11471TIP3    H255905   5.757   6.578  13.519  0.2746 -0.6907 -0.4115
11472TIP3   OH255906   4.558   2.653   2.995  0.4468 -0.2365  0.2800
11472TIP3    H155907   4.511   2.714   3.053 -2.1306 -1.9627  0.1703
11472TIP3    H255908   4.535   2.683   2.907  1.4148  0.2242  0.1751
11473TIP3   OH255909   1.146   4.460  10.987  0.1597 -0.4207 -0.2597
11473TIP3    H155910   1.121   4.389  11.047 -0.7304 -0.0748 -0.2061
11473TIP3    H255911   1.238   4.443  10.967  0.8810  0.1110  2.1706
11474TIP3   OH255912   5.539   4.992  10.580  0.3259 -0.0023 -0.7197
11474TIP3    H155913   5.629   5.004  10.611 -0.3788 -0.6733  1.7848
11474TIP3    H255914   5.505   5.082  10.572  1.1488  0.2536 -1.6211
11475TIP3   OH255915   0.968   6.191   1.618 -0.3674 -0.2057 -0.5416
11475TIP3    H155916   1.010   6.264   1.571  0.3861 -0.3467 -0.1000
11475TIP3    H255917   0.879   6.189   1.584  0.1288 -0.2316 -1.8998
11476TIP3   OH255918   1.027   5.731   5.367 -0.3222  0.2312  0.5211
11476TIP3    H155919   0.940   5.765   5.386 -0.2017 -0.1206  1.8174
11476TIP3    H255920   1.017   5.636   5.373 -0.1105  0.1200 -0.5911
11477TIP3   OH255921   5.749   3.452   0.187 -0.5633  0.5297 -0.1582
11477TIP3    H155922   5.793   3.386   0.134  0.3075  0.6674  0.3680
11477TIP3    H255923   5.718   3.404   0.265 -1.0068  0.5133 -0.3381
11478TIP3   OH255924   4.129   4.331  13.688 -0.4644  0.4010  0.7573
11478TIP3    H155925   4.171   4.258  13.642 -0.5525  0.7045  0.1805
11478TIP3    H255926   4.066   4.366  13.625 -2.5626 -0.8629  2.0516
11479TIP3   OH255927   3.533   5.843   2.083  0.1655  0.0367 -0.2488
11479TIP3    H155928   3.616   5.889   2.090 -0.9680  2.2279 -0.1581
11479TIP3    H255929   3.475   5.889   2.144 -0.1251 -4.0033  2.9233
11480TIP3   OH255930   1.717   5.668   4.165 -0.2051 -0.3427  0.8875
11480TIP3    H155931   1.800   5.670   4.118 -0.3752 -0.9441  0.5542
11480TIP3    H255932   1.733   5.612   4.240 -0.3536 -0.5764  0.7435
11481TIP3   OH255933   1.245   4.392   4.562  0.2852  0.4455  0.0643
11481TIP3    H155934   1.295   4.367   4.640 -0.4907 -0.3715  0.3207
11481TIP3    H255935   1.205   4.310   4.533  0.1756  0.8363 -0.9190
11482TIP3   OH255936   3.888   3.770  12.913 -0.1672  0.4018 -0.2281
11482TIP3    H155937   3.794   3.759  12.927 -0.2723  1.1383 -0.3279
11482TIP3    H255938   3.895   3.794  12.820  0.3019 -1.7896 -0.8217
11483TIP3   OH255939   6.516   4.337  11.101  0.1406 -0.6123  0.2836
11483TIP3    H155940   6.506   4.315  11.008  0.3026 -1.1603  0.3920
11483TIP3    H255941   6.520   4.432  11.102 -1.5642 -0.4937 -0.1094
11484TIP3   OH255942   3.417   2.322   2.959 -0.6075  0.0793  0.1780
11484TIP3    H155943   3.340   2.316   2.902 -0.9192 -0.3292  0.6276
11484TIP3    H255944   3.428   2.233   2.993  1.3453 -0.4178 -1.5190
11485TIP3   OH255945   3.700   6.447  14.022 -0.1104  0.4600  0.5350
11485TIP3    H155946   3.756   6.517  14.055 -0.7990 -0.0169  2.8723
11485TIP3    H255947   3.692   6.386  14.095 -0.4972 -1.4938 -1.0448
11486TIP3   OH255948   0.935   3.030  15.038  0.2125  0.4848 -0.3487
11486TIP3    H155949   0.994   3.033  14.963 -0.5935  2.4109 -0.9517
11486TIP3    H255950   0.914   2.937  15.048  1.2718  0.0647 -1.7530
11487TIP3   OH255951   3.748   3.218   4.945 -0.0122  0.3247 -0.9376
11487TIP3    H155952   3.795   3.179   4.871 -0.9787 -1.6450 -0.5818
11487TIP3    H255953   3.688   3.150   4.974 -0.8380  1.6417  0.6338
11488TIP3   OH255954   5.589   2.547  12.981 -0.1408 -0.7857  0.4082
11488TIP3    H155955   5.499   2.543  12.951  0.0855  0.3569 -0.4807
11488TIP3    H255956   5.630   2.616  12.928  2.4014 -4.0333 -2.2558
11489TIP3   OH255957   0.025   1.870   6.280 -0.0847  0.5528 -0.2227
11489TIP3    H155958  -0.002   1.868   6.372  0.4049  2.0144 -0.0265
11489TIP3    H255959  -0.001   1.956   6.249 -0.3191  0.0383 -1.4963
11490TIP3   OH255960   3.966   1.232   6.441  0.6115 -0.1110  0.1643
11490TIP3    H155961   3.873   1.241   6.458  0.5825 -0.7978  0.3970
11490TIP3    H255962   3.994   1.160   6.497  1.8662  1.8839  2.2623
11491TIP3   OH255963   6.374   6.209  12.308 -0.4016 -0.2267 -0.0079
11491TIP3    H155964   6.394   6.199  12.215  1.6129  0.0947  0.3646
11491TIP3    H255965   6.428   6.143  12.351 -1.4709 -0.5111  0.9361
11492TIP3   OH255966   6.370   4.094   3.522  0.4398 -0.4093  0.6025
11492TIP3    H155967   6.371   4.014   3.470  0.8275 -0.7090  1.0666
11492TIP3    H255968   6.305   4.150   3.478 -0.0961 -1.1071  0.4855
11493TIP3   OH255969   4.035   6.338   4.408 -0.1351 -0.2257  0.2924
11493TIP3    H155970   4.033   6.323   4.314 -0.0564 -1.1764  0.4280
11493TIP3    H255971   3.946   6.365   4.431  0.2806  1.8510 -0.3090
11494TIP3   OH255972   2.914   1.854   4.680  0.3910 -0.6384  0.1527
11494TIP3    H155973   2.902   1.888   4.591 -0.8207  0.0138  0.5408
11494TIP3    H255974   3.009   1.843   4.689  0.6971  1.0945 -0.5800
11495TIP3   OH255975   2.956   2.131   5.395  0.5677  0.0605  0.0509
11495TIP3    H155976   2.989   2.083   5.470 -0.4170  0.0203  0.4718
11495TIP3    H255977   2.900   2.068   5.349 -0.4926  0.6983  0.4420
11496TIP3   OH255978   2.540   2.132   1.128 -0.3316  0.3543  0.8052
11496TIP3    H155979   2.599   2.159   1.199  0.2337  0.1257  0.4341
11496TIP3    H255980   2.499   2.213   1.099  1.8658  1.0207 -0.7722
11497TIP3   OH255981   5.876   5.908   2.490  0.4230  0.6799 -0.2446
11497TIP3    H155982   5.887   5.904   2.585  1.7917 -0.0502 -0.4101
11497TIP3    H255983   5.832   5.825   2.468 -0.5315  1.1557 -0.1931
11498TIP3   OH255984   3.712   1.961  10.976 -0.4243  0.7536  0.0630
11498TIP3    H155985   3.761   1.982  11.055  1.3950 -2.1150 -0.1536
11498TIP3    H255986   3.657   1.887  11.001  0.3169 -0.3211 -1.3640
11499TIP3   OH255987   4.165   3.304   4.249  0.1975  0.4471  0.6255
11499TIP3    H155988   4.257   3.324   4.228 -0.4144  2.0607 -0.6963
11499TIP3    H255989   4.137   3.377   4.303  0.2050 -1.0422  2.7767
11500TIP3   OH255990   3.835   1.605   4.505 -1.0029 -0.2259 -0.0775
11500TIP3    H155991   3.783   1.641   4.576 -0.5080 -2.0725  1.3033
11500TIP3    H255992   3.923   1.595   4.542 -1.2801 -3.5874  0.0133
11501TIP3   OH255993   0.943   0.328  14.001 -0.6566 -0.1231 -0.1269
11501TIP3    H155994   0.853   0.313  13.971 -0.8594 -0.3468  0.5672
11501TIP3    H255995   0.996   0.321  13.922 -1.3813  1.3597 -0.7890
11502TIP3   OH255996   1.631   6.344  11.088  0.1178 -0.0456 -0.2990
11502TIP3    H155997   1.667   6.369  11.003  0.3145 -2.6461 -1.0968
11502TIP3    H255998   1.702   6.297  11.131 -0.4956 -0.1540  0.6202
11503TIP3   OH255999   1.649   1.854   4.714 -0.4480 -0.0621  0.4088
11503TIP3    H156000   1.715   1.815   4.772  0.4248 -0.6738 -0.9340
11503TIP3    H256001   1.656   1.948   4.729 -0.8266 -0.2380  1.8758
11504TIP3   OH256002   5.960   4.814  16.542  0.0386 -0.7895  0.0348
11504TIP3    H156003   5.992   4.843  16.627  1.9662 -2.3267 -0.0806
11504TIP3    H256004   5.954   4.719  16.550 -0.4008 -0.9029 -1.3408
11505TIP3   OH256005   3.398   3.290   2.598  0.2828  0.3982 -0.2114
11505TIP3    H156006   3.394   3.259   2.688 -0.1294 -0.2113 -0.4272
11505TIP3    H256007   3.481   3.256   2.564  1.5794  2.5662  0.5982
11506TIP3   OH256008   0.697   2.513  13.281 -0.4738  0.0477 -0.2982
11506TIP3    H156009   0.673   2.587  13.338 -0.5704 -0.6885  0.6310
11506TIP3    H256010   0.793   2.513  13.283 -0.4415  0.7911 -1.1587
11507TIP3   OH256011   4.219   0.496  10.520 -0.3498  0.8210  0.2532
11507TIP3    H156012   4.134   0.470  10.557 -0.4664 -0.1602 -0.6674
11507TIP3    H256013   4.197   0.552  10.446 -0.3829 -1.7191 -1.8164
11508TIP3   OH256014   2.091   3.121   5.935 -0.6718  0.0710 -0.5243
11508TIP3    H156015   2.079   3.096   5.844  0.9150 -3.4500  0.0485
11508TIP3    H256016   2.007   3.160   5.961 -1.5186  0.1937 -3.1618
11509TIP3   OH256017   4.101   4.797  13.105 -0.1772  0.6548  0.0282
11509TIP3    H156018   4.032   4.791  13.171  0.2645  0.1075  0.4417
11509TIP3    H256019   4.108   4.708  13.070 -0.3316  0.9151 -0.6853
11510TIP3   OH256020   6.305   4.928  17.107  0.3606  0.3850 -0.5038
11510TIP3    H156021   6.379   4.988  17.095 -0.1499  1.2206  0.4196
11510TIP3    H256022   6.231   4.971  17.064  0.0982  0.1703 -0.2707
11511TIP3   OH256023   5.288   5.422  14.301  0.4849  0.0903  0.2009
11511TIP3    H156024   5.360   5.445  14.242  0.9101  1.2903  1.1441
11511TIP3    H256025   5.210   5.421  14.245  0.8900  1.1008 -0.4175
11512TIP3   OH256026   0.268   3.092   4.086  0.0843  0.3629 -0.0456
11512TIP3    H156027   0.176   3.069   4.072 -0.2755  0.9565  1.1636
11512TIP3    H256028   0.294   3.137   4.006 -0.3634 -0.7030 -0.8168
11513TIP3   OH256029   1.625   4.772   4.416  0.2910 -0.1823 -0.3119
11513TIP3    H156030   1.585   4.786   4.330 -0.1186  0.0278 -0.0931
11513TIP3    H256031   1.620   4.857   4.459  1.5007 -0.0195 -0.4876
11514TIP3   OH256032   4.634   0.218  13.101 -0.2902 -0.0246  0.2697
11514TIP3    H156033   4.654   0.125  13.091  1.6239  0.5039 -1.6402
11514TIP3    H256034   4.558   0.233  13.044 -1.0617 -0.5167  1.1440
11515TIP3   OH256035   1.846   6.002  13.838 -0.1707 -0.1546 -0.2767
11515TIP3    H156036   1.826   5.956  13.757  0.6853 -1.1218  0.0378
11515TIP3    H256037   1.868   5.932  13.901 -1.9838  0.4805  1.1379
11516TIP3   OH256038   0.542   4.790  16.730  0.1692  0.2925  0.2257
11516TIP3    H156039   0.608   4.849  16.764 -0.0235  1.3133 -1.0933
11516TIP3    H256040   0.580   4.753  16.650  0.3057 -1.4321  1.0391
11517TIP3   OH256041   5.541   3.345   5.826  0.1514 -0.1346  0.3866
11517TIP3    H156042   5.499   3.309   5.748 -0.6718 -0.8498  1.1342
11517TIP3    H256043   5.469   3.362   5.887  0.7737  0.4607  0.9772
11518TIP3   OH256044   0.167   3.804  12.056  0.0426  0.2209  0.4157
11518TIP3    H156045   0.190   3.883  12.006  0.5677  0.2190  0.6559
11518TIP3    H256046   0.175   3.830  12.147 -0.1620 -0.0038  0.4984
11519TIP3   OH256047   6.338   2.717  14.513 -0.3181  0.5156  0.6939
11519TIP3    H156048   6.387   2.799  14.508 -0.1085  0.3760  0.4280
11519TIP3    H256049   6.394   2.652  14.470  0.7162 -0.3618  3.1532
11520TIP3   OH256050   5.047   5.435   3.821  0.7350 -0.1852  0.3383
11520TIP3    H156051   5.065   5.526   3.794  0.2105  0.2186  1.3191
11520TIP3    H256052   4.972   5.441   3.880 -0.8162 -1.5273 -1.3764
11521TIP3   OH256053   5.508   5.448   4.116  0.0823 -0.4358  0.2111
11521TIP3    H156054   5.603   5.445   4.123  0.1167 -2.4855 -0.6263
11521TIP3    H256055   5.490   5.451   4.022 -0.6998  0.4200  0.3633
11522TIP3   OH256056   6.460   6.520  15.111 -0.0859 -0.0153  0.2147
11522TIP3    H156057   6.523   6.493  15.177 -0.4325 -0.8826  0.2039
11522TIP3    H256058   6.513   6.568  15.046  0.3175  0.4806  0.8947
11523TIP3   OH256059   0.383   2.184   3.114  0.4473 -0.9200  0.1577
11523TIP3    H156060   0.464   2.160   3.158  2.7298  0.8997 -2.6648
11523TIP3    H256061   0.390   2.145   3.027  0.5086  2.7804 -1.7005
11524TIP3   OH256062   1.502   4.458  12.818  0.2736 -0.1783 -0.1321
11524TIP3    H156063   1.420   4.472  12.771 -0.4786 -1.1849  0.8526
11524TIP3    H256064   1.543   4.384  12.773  0.1982 -0.2701 -0.0503
11525TIP3   OH256065   4.161   0.546   1.471 -0.5026  0.1214  1.0905
11525TIP3    H156066   4.074   0.540   1.431 -1.5005 -2.1397  3.3175
11525TIP3    H256067   4.149   0.610   1.542  0.8349  2.8994 -1.0053
11526TIP3   OH256068   1.241   2.379   2.642  0.0885 -0.0844  0.3666
11526TIP3    H156069   1.316   2.406   2.588  0.5273  0.3512  1.1821
11526TIP3    H256070   1.256   2.286   2.660  0.1917 -0.1096  0.1577
11527TIP3   OH256071   0.720   1.506   4.769  0.4534  0.2833  0.1655
11527TIP3    H156072   0.698   1.600   4.770 -0.6200  0.1752 -2.8599
11527TIP3    H256073   0.806   1.502   4.728  1.1684 -0.0147  1.6380
11528TIP3   OH256074   6.631   4.200  16.321 -0.1812 -0.4530 -0.3811
11528TIP3    H156075   6.633   4.295  16.331  1.6509 -0.5601  0.7996
11528TIP3    H256076   6.547   4.174  16.358  0.7303  0.4640  2.7091
11529TIP3   OH256077   0.967   2.207  12.946 -0.3417 -0.0099  0.4901
11529TIP3    H156078   0.883   2.253  12.955 -1.3282 -1.6350  0.0589
11529TIP3    H256079   0.943   2.121  12.910  1.4089 -0.9098  1.3698
11530TIP3   OH256080   3.235   6.798  12.631  0.5925 -0.7087 -0.4774
11530TIP3    H156081   3.216   6.827  12.542  1.3332 -0.3108 -0.5121
11530TIP3    H256082   3.292   6.866  12.666 -0.0662 -0.6171  0.4661
11531TIP3   OH256083   2.573   6.321   0.789 -0.4596 -0.1964  0.1079
11531TIP3    H156084   2.580   6.390   0.723 -1.0176 -0.5370 -0.3199
11531TIP3    H256085   2.646   6.337   0.849  0.1244  0.0509 -0.6556
11532TIP3   OH256086   3.007   5.001   3.376  0.7720 -0.5306  0.6175
11532TIP3    H156087   3.035   5.061   3.445  0.1058  0.6112 -0.0695
11532TIP3    H256088   2.913   4.991   3.392  0.1016  1.6018 -1.4198
11533TIP3   OH256089   4.979   5.911   3.557 -0.1950  0.0825 -0.1768
11533TIP3    H156090   5.034   5.990   3.551 -1.1671  0.8498  0.6593
11533TIP3    H256091   4.890   5.943   3.542 -0.5534 -0.9517 -0.3333
11534TIP3   OH256092   3.481   5.923   0.239 -0.5130  0.0134 -0.3870
11534TIP3    H156093   3.461   6.016   0.234 -1.2115 -0.1545 -0.7534
11534TIP3    H256094   3.541   5.908   0.165  0.7054  0.4281  0.4697
11535TIP3   OH256095   0.813   0.084   3.387 -0.2018 -0.3144  0.5282
11535TIP3    H156096   0.901   0.119   3.372  0.0447  0.0849  2.5380
11535TIP3    H256097   0.758   0.127   3.321  1.1909 -1.1149 -1.2361
11536TIP3   OH256098   5.076   0.841   1.052 -0.3010 -0.2605 -0.5811
11536TIP3    H156099   5.065   0.757   1.008 -1.0780  0.1107 -1.1075
11536TIP3    H256100   5.033   0.904   0.996 -1.2454  0.2412  0.6595
11537TIP3   OH256101   0.928   0.680  16.998  0.0730 -0.2397 -0.0302
11537TIP3    H156102   0.880   0.720  16.926 -0.2643 -1.7425 -0.6769
11537TIP3    H256103   0.877   0.701  17.077  0.3074  1.1935 -0.2371
11538TIP3   OH256104   3.757   3.177   0.757  0.6011 -0.1408 -0.2474
11538TIP3    H156105   3.671   3.192   0.718 -0.6681  1.0426  2.7062
11538TIP3    H256106   3.777   3.086   0.735 -0.8659 -0.1185 -1.9291
11539TIP3   OH256107   3.174   4.426   4.661 -0.1272  0.2453  0.2564
11539TIP3    H156108   3.126   4.506   4.684 -0.7412  0.0765 -0.4203
11539TIP3    H256109   3.170   4.372   4.740 -1.1182  0.2013  0.1769
11540TIP3   OH256110   4.467   1.277   1.688  0.4247  0.2960  0.1552
11540TIP3    H156111   4.501   1.206   1.742  0.2247  0.9976  1.2239
11540TIP3    H256112   4.526   1.350   1.704  0.2161  0.5853 -0.3800
11541TIP3   OH256113   2.948   0.028   2.909  0.1671 -0.3166  0.0271
11541TIP3    H156114   3.031   0.074   2.909 -1.3191  2.6454  0.8153
11541TIP3    H256115   2.908   0.048   2.825  0.2199 -1.7424 -0.3659
11542TIP3   OH256116   4.275   4.260   6.622  0.0326  0.4337  0.2161
11542TIP3    H156117   4.365   4.229   6.611  0.7583  2.7227 -0.8717
11542TIP3    H256118   4.222   4.198   6.572  1.1377 -0.3288 -0.0367
11543TIP3   OH256119   3.651   0.186  10.998  0.2314  0.0771  0.1846
11543TIP3    H156120   3.651   0.272  11.040  1.2191 -0.1499  0.6852
11543TIP3    H256121   3.679   0.126  11.067 -0.8744 -0.7215 -0.0414
11544TIP3   OH256122   4.750   6.458  10.670 -0.2054 -0.0890  0.0111
11544TIP3    H156123   4.722   6.507  10.747  0.5442 -1.5710  1.2991
11544TIP3    H256124   4.726   6.367  10.689 -0.2679 -0.4529 -1.6457
11545TIP3   OH256125   3.567   0.831   2.931 -0.0522  0.4399  0.2388
11545TIP3    H156126   3.513   0.899   2.893  0.4778  1.5099  1.3266
11545TIP3    H256127   3.530   0.817   3.018  0.3696 -0.0483  0.3472
11546TIP3   OH256128   5.488   5.269  10.966  0.6144  0.1620 -0.0485
11546TIP3    H156129   5.511   5.357  10.995  2.3653 -0.4257  0.4899
11546TIP3    H256130   5.573   5.227  10.948 -0.2208 -1.1259 -1.1594
11547TIP3   OH256131   6.276   5.348  12.007 -0.3954  0.2201  0.3522
11547TIP3    H156132   6.214   5.421  11.999 -1.9925 -1.0056  1.0183
11547TIP3    H256133   6.356   5.388  12.042 -0.6710  1.9071 -0.8704
11548TIP3   OH256134   5.733   2.602   3.666 -0.3575  0.3240  0.2584
11548TIP3    H156135   5.779   2.522   3.691  1.5783  1.5107  0.7484
11548TIP3    H256136   5.645   2.573   3.642  0.3878 -1.9774  0.0506
11549TIP3   OH256137   6.580   0.390  11.816  0.3036 -0.4447  0.3370
11549TIP3    H156138   6.544   0.479  11.814 -1.6183 -1.1987  0.2869
11549TIP3    H256139   6.583   0.368  11.909 -0.9379 -0.9899  0.2558
11550TIP3   OH256140   5.451   3.821   3.551 -0.2516 -0.0528  0.1439
11550TIP3    H156141   5.486   3.820   3.462 -1.5388  1.0606 -0.4232
11550TIP3    H256142   5.417   3.910   3.563  0.3196 -0.0303  1.9414
11551TIP3   OH256143   0.299   5.746   6.086  0.1203  0.2463 -0.5964
11551TIP3    H156144   0.276   5.766   5.995 -1.4818  0.1717 -0.2249
11551TIP3    H256145   0.219   5.710   6.124  0.1100  2.2341  1.4394
11552TIP3   OH256146   2.669   1.927  12.366  0.1194  0.3462 -0.0486
11552TIP3    H156147   2.755   1.916  12.324 -0.0982  1.7222 -0.9305
11552TIP3    H256148   2.657   2.022  12.370 -2.7434  0.2514 -2.9220
11553TIP3   OH256149   6.668   5.739   5.430 -0.0491  0.3403  0.6420
11553TIP3    H156150   6.718   5.745   5.349 -0.5668 -2.4208 -0.0077
11553TIP3    H256151   6.594   5.682   5.408 -0.2232 -0.4685  3.0018
11554TIP3   OH256152   0.369   0.442  11.010  0.0809 -0.7249 -0.2040
11554TIP3    H156153   0.337   0.473  10.925 -3.4954 -1.4349  0.7350
11554TIP3    H256154   0.380   0.348  10.999  0.5135 -0.6838 -0.1293
11555TIP3   OH256155   3.032   0.357   4.325  0.5105 -0.1224 -0.0495
11555TIP3    H156156   3.031   0.284   4.386 -2.6092 -0.1826 -0.0275
11555TIP3    H256157   3.009   0.319   4.240 -0.8068  0.7420 -0.1060
11556TIP3   OH256158   0.772   3.656  11.720  0.4980  0.3927 -0.5560
11556TIP3    H156159   0.740   3.740  11.689  0.4820  0.5944 -0.0040
11556TIP3    H256160   0.860   3.674  11.753  0.2824  0.3065  0.0724
11557TIP3   OH256161   2.559   0.888  15.837 -0.0106 -0.0062  0.2215
11557TIP3    H156162   2.566   0.963  15.778  0.9540 -0.7742 -0.6887
11557TIP3    H256163   2.630   0.829  15.809 -0.5483 -1.1143  1.1115
11558TIP3   OH256164   0.754   1.447  15.692 -0.1718 -0.3142 -0.9391
11558TIP3    H156165   0.678   1.453  15.635 -0.8760 -1.3744 -0.1351
11558TIP3    H256166   0.812   1.384  15.650  1.1922  1.8708 -2.5421
11559TIP3   OH256167   2.560   3.698  14.712 -0.3206  0.0710  0.0528
11559TIP3    H156168   2.629   3.662  14.656 -0.4651 -0.6915  0.3455
11559TIP3    H256169   2.486   3.638  14.700 -0.3144 -0.1633  1.1339
11560TIP3   OH256170   4.171   0.256  15.626  0.6079 -0.8334 -0.9676
11560TIP3    H156171   4.085   0.223  15.653  0.7627 -1.0232 -0.7052
11560TIP3    H256172   4.171   0.250  15.531  0.5576 -1.3952 -0.9321
11561TIP3   OH256173   1.881   3.976   5.119 -0.2909 -0.4435 -0.1579
11561TIP3    H156174   1.897   4.040   5.187 -0.5731  0.3838 -0.8552
11561TIP3    H256175   1.821   3.913   5.158 -2.4643  1.3740 -0.3928
11562TIP3   OH256176   0.989   6.605   4.175 -0.2300  0.0544  0.1893
11562TIP3    H156177   0.998   6.514   4.202  0.3271 -0.0429 -0.3017
11562TIP3    H256178   1.059   6.619   4.111 -3.0824 -0.5817 -3.4498
11563TIP3   OH256179   3.722   0.967  13.060 -0.1361 -0.1744  0.0818
11563TIP3    H156180   3.787   0.919  13.008 -0.2798  0.5546 -0.7987
11563TIP3    H256181   3.641   0.918  13.046 -0.3190  0.3861 -0.9535
11564TIP3   OH256182   3.905   4.660   4.517  0.4188 -0.6792 -0.1185
11564TIP3    H156183   3.987   4.622   4.486  0.8966  0.7180 -0.6606
11564TIP3    H256184   3.882   4.609   4.595  2.6479 -0.1286  0.9936
11565TIP3   OH256185   0.853   3.324   2.634  0.3948  0.1214 -0.2363
11565TIP3    H156186   0.824   3.281   2.553  0.2289  3.5098 -2.1391
11565TIP3    H256187   0.948   3.328   2.627  0.6445 -1.7679  1.0600
11566TIP3   OH256188   2.451   0.102   2.197 -0.5536  0.4486 -0.2548
11566TIP3    H156189   2.374   0.157   2.214  0.1256  0.9900  1.2718
11566TIP3    H256190   2.525   0.162   2.205  0.1118 -0.3526 -0.2696
11567TIP3   OH256191   4.165   3.104   0.924 -0.6987  0.3208  0.0854
11567TIP3    H156192   4.115   3.186   0.922 -0.9692  0.1660  0.4614
11567TIP3    H256193   4.107   3.040   0.884 -0.1300  0.5028 -1.0530
11568TIP3   OH256194   4.919   2.254   1.661  0.2147 -0.2127  0.6919
11568TIP3    H156195   4.965   2.233   1.580 -0.7327 -1.1536  0.3876
11568TIP3    H256196   4.847   2.191   1.666 -0.9778  1.1356  1.2182
11569TIP3   OH256197   5.270   0.355   6.428 -0.4809 -0.1649  0.0660
11569TIP3    H156198   5.310   0.388   6.347  0.6394  3.6498  1.9473
11569TIP3    H256199   5.176   0.368   6.415 -0.5064 -1.3137 -1.2065
11570TIP3   OH256200   4.001   6.180   2.867  0.5084  0.8369 -0.1246
11570TIP3    H156201   3.920   6.142   2.833  1.3439 -1.5614  0.4077
11570TIP3    H256202   4.011   6.261   2.817 -2.6262  1.7082  0.3839
11571TIP3   OH256203   0.814   4.724  12.227  0.1756 -0.4430 -0.1006
11571TIP3    H156204   0.881   4.671  12.185 -1.6022 -2.2554 -0.8274
11571TIP3    H256205   0.736   4.711  12.173 -1.0931  0.5705  1.3984
11572TIP3   OH256206   0.683   0.805  16.909 -0.5333 -0.6255 -0.5364
11572TIP3    H156207   0.685   0.711  16.892 -2.4447 -1.2391  2.0723
11572TIP3    H256208   0.591   0.826  16.923  0.0769  1.0744  1.5492
11573TIP3   OH256209   4.114   3.936   0.876  0.2467  0.5508  0.4138
11573TIP3    H156210   4.144   4.024   0.899  1.7655  0.8076 -2.1439
11573TIP3    H256211   4.129   3.930   0.781 -0.3227 -2.2914  0.4232
11574TIP3   OH256212   4.248   0.126   2.390  0.1952 -0.2076 -0.2626
11574TIP3    H156213   4.184   0.173   2.444  1.2060  0.0035  0.7770
11574TIP3    H256214   4.196   0.061   2.343 -0.8084  0.0485  0.4583
11575TIP3   OH256215   3.804   1.927   4.281 -0.2704 -0.1950  0.8022
11575TIP3    H156216   3.794   1.858   4.347 -1.0968 -0.4755  0.3964
11575TIP3    H256217   3.718   1.968   4.275 -0.2095 -0.1706 -0.1004
11576TIP3   OH256218   6.617   0.933   5.029 -0.6074 -0.1226 -0.0049
11576TIP3    H156219   6.562   1.010   5.014  1.0439  0.8227 -1.5170
11576TIP3    H256220   6.622   0.890   4.943  0.2773 -0.6967  0.3229
11577TIP3   OH256221   1.088   4.676  13.553  0.2598  0.0847 -0.2951
11577TIP3    H156222   1.175   4.668  13.515  0.7670  2.1615  0.2804
11577TIP3    H256223   1.092   4.626  13.634 -0.3496 -3.0608 -2.0181
11578TIP3   OH256224   2.767   1.135   3.320  0.0392  0.1088 -0.2949
11578TIP3    H156225   2.757   1.227   3.345 -0.8878 -0.6474  2.4706
11578TIP3    H256226   2.678   1.105   3.304 -0.3111 -1.3406  3.3738
11579TIP3   OH256227   3.220   6.607   2.342 -0.6652  0.1216 -0.7473
11579TIP3    H156228   3.312   6.632   2.329 -0.4692  0.4251  1.0207
11579TIP3    H256229   3.224   6.515   2.368 -0.7551  0.4387  0.4294
11580TIP3   OH256230   1.699   3.859  11.074  0.5169  0.4379  0.0046
11580TIP3    H156231   1.674   3.921  11.006  0.4611 -0.6346 -0.9803
11580TIP3    H256232   1.791   3.841  11.057  0.8803  1.1699  1.0533
11581TIP3   OH256233   3.561   6.738  14.690  0.1283 -0.0689  0.1010
11581TIP3    H156234   3.579   6.650  14.658  0.3719 -0.5862  1.5824
11581TIP3    H256235   3.575   6.794  14.614 -1.8188 -1.4482 -1.3629
11582TIP3   OH256236   0.762   1.744  13.178  0.0716  0.1565  0.0132
11582TIP3    H156237   0.669   1.739  13.202  0.2546  1.2499  1.0621
11582TIP3    H256238   0.809   1.721  13.259  0.7396 -1.1913 -0.7175
11583TIP3   OH256239   6.163   6.642   3.039  0.5395 -0.1805 -0.5341
11583TIP3    H156240   6.243   6.622   2.990  1.9797  3.0022  0.2667
11583TIP3    H256241   6.114   6.700   2.982 -0.4692 -0.8235 -0.3541
11584TIP3   OH256242   5.237   6.248   5.124  0.1413 -0.1546 -0.1843
11584TIP3    H156243   5.163   6.298   5.092 -0.9003 -1.1157  0.6564
11584TIP3    H256244   5.251   6.280   5.213  1.3414  0.6593 -0.6395
11585TIP3   OH256245   6.488   0.111   3.898 -0.0174  0.5168 -0.3239
11585TIP3    H156246   6.466   0.032   3.948  1.5069 -0.6010 -1.3157
11585TIP3    H256247   6.404   0.147   3.871 -0.7445 -1.2743 -0.5890
11586TIP3   OH256248   0.880   1.315   6.724 -0.1637 -0.6764 -0.6530
11586TIP3    H156249   0.809   1.251   6.722 -0.9524  0.1067  0.5614
11586TIP3    H256250   0.960   1.264   6.711 -0.8766 -1.6948 -1.1419
11587TIP3   OH256251   1.346   4.851  15.034 -0.2168 -0.2639 -0.3753
11587TIP3    H156252   1.332   4.829  14.942  0.2227 -1.4571 -0.1787
11587TIP3    H256253   1.284   4.922  15.052  1.4010  1.7926 -2.2529
11588TIP3   OH256254   4.390   4.408   2.732 -0.0530  0.6245  0.0710
11588TIP3    H156255   4.350   4.323   2.714  0.3971  0.4537 -0.1301
11588TIP3    H256256   4.322   4.457   2.777 -0.5453  0.3865 -0.3994
11589TIP3   OH256257   5.845   4.292   6.264  0.3298  0.1268 -0.5241
11589TIP3    H156258   5.884   4.205   6.256  1.2705  0.6012 -1.2825
11589TIP3    H256259   5.758   4.282   6.226 -0.7745 -1.1844  2.0669
11590TIP3   OH256260   1.452   3.409   0.638 -0.1656  0.1227 -0.1499
11590TIP3    H156261   1.361   3.431   0.660 -0.1868 -0.5653  0.5010
11590TIP3    H256262   1.484   3.362   0.714  0.8971  0.7643 -0.1944
11591TIP3   OH256263   6.026   3.718  13.668  0.0021  0.0132  0.8595
11591TIP3    H156264   6.121   3.708  13.657 -0.0162  0.2184  0.5220
11591TIP3    H256265   5.998   3.767  13.591 -0.3135  0.3370  1.1787
11592TIP3   OH256266   0.902   6.748  15.174  0.4235  0.0239 -0.3353
11592TIP3    H156267   0.838   6.796  15.121  0.5400  0.0052 -0.4915
11592TIP3    H256268   0.865   6.751  15.263  0.3814  0.3236 -0.3594
11593TIP3   OH256269   0.212   6.440  16.318 -0.3711  0.4221 -0.3276
11593TIP3    H156270   0.287   6.395  16.357 -1.3812 -0.2832  0.8632
11593TIP3    H256271   0.228   6.533  16.336  1.0495  0.4597 -1.6066
11594TIP3   OH256272   5.705   4.727   2.847  1.0322 -0.5943  0.3644
11594TIP3    H156273   5.764   4.692   2.781 -0.3286 -2.9960  0.3037
11594TIP3    H256274   5.645   4.784   2.798  2.4999  0.9652  0.2645
11595TIP3   OH256275   1.012   0.634  14.103 -0.5051  0.9452  0.2229
11595TIP3    H156276   1.093   0.660  14.148  0.2080 -0.5545 -0.1359
11595TIP3    H256277   0.977   0.562  14.156 -0.5200  0.2420 -0.7210
11596TIP3   OH256278   0.170   1.754  15.112 -0.6302  0.1546  0.0821
11596TIP3    H156279   0.251   1.777  15.157 -1.3815  1.8670  0.6614
11596TIP3    H256280   0.197   1.738  15.021  0.0418  4.1751 -0.6270
11597TIP3   OH256281   3.724   4.058   2.927 -0.6178  0.5768  0.4282
11597TIP3    H156282   3.679   4.122   2.982  0.4711  2.0480 -0.2978
11597TIP3    H256283   3.742   4.105   2.845  1.9774  0.0286  0.5919
11598TIP3   OH256284   3.945   1.099   1.607 -0.3381  0.5110 -1.0067
11598TIP3    H156285   3.897   1.019   1.585 -1.5925  1.2204 -0.9617
11598TIP3    H256286   3.994   1.077   1.686 -0.5430 -0.2571 -1.0840
11599TIP3   OH256287   1.688   0.458  11.280  0.3480  0.5491 -0.1852
11599TIP3    H156288   1.751   0.477  11.211 -1.0128  2.0866 -1.0851
11599TIP3    H256289   1.617   0.412  11.235  1.0940 -1.8608  0.9503
11600TIP3   OH256290   4.245   4.875   2.429 -0.5502 -0.4550 -0.0199
11600TIP3    H156291   4.291   4.926   2.496 -0.1801 -1.3191  0.3953
11600TIP3    H256292   4.188   4.939   2.386 -0.5628  0.1829  0.9046
11601TIP3   OH256293   5.125   6.709  16.022 -0.2591 -0.4219  0.7098
11601TIP3    H156294   5.159   6.646  15.959  0.1506 -0.2720  0.7737
11601TIP3    H256295   5.082   6.655  16.088  0.1581 -0.6467  0.8059
11602TIP3   OH256296   5.943   2.351  15.741 -0.9135  0.5903 -0.3637
11602TIP3    H156297   6.027   2.328  15.701 -1.1017  1.8826 -1.5601
11602TIP3    H256298   5.904   2.267  15.764  1.1197 -0.0224  1.1439
11603TIP3   OH256299   2.246   0.634  14.208  0.6759 -0.5450  0.2159
11603TIP3    H156300   2.214   0.704  14.152  0.6200 -0.7772 -0.0463
11603TIP3    H256301   2.331   0.664  14.239  0.9681 -0.6640 -0.4634
11604TIP3   OH256302   5.625   0.848  12.749 -0.0982 -0.3755 -0.4169
11604TIP3    H156303   5.704   0.826  12.798  1.0677  0.5438 -1.8221
11604TIP3    H256304   5.563   0.778  12.772  1.0851 -1.0999  0.7261
11605TIP3   OH256305   4.386   6.614  16.859  0.3899 -0.3465 -0.4045
11605TIP3    H156306   4.308   6.559  16.865 -0.1941  0.5483  0.5461
11605TIP3    H256307   4.450   6.571  16.917  0.4044 -0.7488 -0.7170
11606TIP3   OH256308   5.233   6.817  10.710  0.1764 -0.2092  0.1412
11606TIP3    H156309   5.142   6.843  10.719  0.0589 -0.6798  0.3598
11606TIP3    H256310   5.283   6.892  10.741 -0.0847  0.7139 -1.5716
11607TIP3   OH256311   1.560   0.870  16.625 -0.3311 -0.3467  0.0840
11607TIP3    H156312   1.471   0.897  16.648 -0.6024 -1.8658  0.9659
11607TIP3    H256313   1.561   0.867  16.530 -0.9106  0.6263  0.0294
11608TIP3   OH256314   5.915   6.765   0.562 -0.0658  0.0315 -0.6059
11608TIP3    H156315   5.967   6.812   0.627 -0.5260  1.7219 -1.3976
11608TIP3    H256316   5.970   6.692   0.535  1.3724  1.0298 -0.4804
11609TIP3   OH256317   2.375   4.876   0.506  0.7428 -0.2102 -0.6029
11609TIP3    H156318   2.375   4.781   0.491  0.3925 -0.6647  1.7432
11609TIP3    H256319   2.313   4.888   0.578 -0.0906  1.9803 -1.5966
11610TIP3   OH256320   5.391   6.060  14.246  0.0002 -0.0308 -0.1737
11610TIP3    H156321   5.356   6.109  14.321  1.8968  0.2953  0.5577
11610TIP3    H256322   5.318   6.004  14.219 -0.9187  0.2144  1.5882
11611TIP3   OH256323   0.559   3.181  13.437 -0.5269  0.2443  0.3482
11611TIP3    H156324   0.517   3.123  13.499  1.1958  0.1074  1.4602
11611TIP3    H256325   0.652   3.179  13.461  0.8364 -2.1872 -4.0750
11612TIP3   OH256326   0.615   3.836  15.975 -0.0735 -0.5211 -0.4578
11612TIP3    H156327   0.686   3.834  15.911  0.0826  1.9242 -0.4837
11612TIP3    H256328   0.603   3.745  16.002  0.4951 -1.5056 -3.2312
11613TIP3   OH256329   4.676   1.656  11.395 -0.2138  0.1250 -0.2472
11613TIP3    H156330   4.688   1.567  11.428 -3.1350 -0.3179 -0.0391
11613TIP3    H256331   4.661   1.645  11.301 -0.1814  0.4430 -0.2930
11614TIP3   OH256332   3.130   5.266  16.603 -0.4435 -0.1909  0.8682
11614TIP3    H156333   3.060   5.215  16.643 -1.2306  0.8930  0.9188
11614TIP3    H256334   3.103   5.277  16.512  1.0811 -2.1937  0.0901
11615TIP3   OH256335   1.900   2.626  11.732 -0.4934 -0.4324 -0.2662
11615TIP3    H156336   1.851   2.615  11.813 -3.4021 -3.3471 -2.1804
11615TIP3    H256337   1.878   2.715  11.703 -0.8461 -0.0199  1.1735
11616TIP3   OH256338   6.462   2.821  12.572 -0.2446  0.4159  0.3569
11616TIP3    H156339   6.400   2.811  12.500 -1.2791 -1.4790  1.4204
11616TIP3    H256340   6.529   2.755  12.554  1.0913  1.9075 -0.3554
11617TIP3   OH256341   1.380   4.766  15.908  0.2247  0.0865  0.0965
11617TIP3    H156342   1.449   4.759  15.842  1.3029  0.5468  1.1318
11617TIP3    H256343   1.363   4.860  15.916  0.8815  0.1334  1.2085
11618TIP3   OH256344   1.971   5.019   3.378 -0.4052  0.4124  0.0672
11618TIP3    H156345   2.018   4.961   3.317 -0.8029 -0.4960  0.6024
11618TIP3    H256346   1.891   5.042   3.332  0.3812  1.7127 -0.7215
11619TIP3   OH256347   0.853   2.193  14.567 -0.6361 -0.3283 -0.1778
11619TIP3    H156348   0.875   2.175  14.475 -1.2169 -0.3312 -0.3168
11619TIP3    H256349   0.938   2.204  14.609 -0.2185 -2.7486 -0.2222
11620TIP3   OH256350   0.117   3.285  15.017 -0.9838  0.2219  0.2449
11620TIP3    H156351   0.090   3.213  15.075  0.8692 -0.3662  0.4302
11620TIP3    H256352   0.071   3.362  15.050 -1.3031 -0.4544  1.4045
11621TIP3   OH256353   1.714   3.476  12.374  0.7047 -0.2344  0.0827
11621TIP3    H156354   1.767   3.550  12.402  1.3686  0.1900 -2.1387
11621TIP3    H256355   1.659   3.511  12.303  2.0736 -2.1231 -2.0328
11622TIP3   OH256356   6.737   0.209  13.147 -0.1833 -1.3834  0.0740
11622TIP3    H156357   6.743   0.259  13.229 -1.5981  0.1536 -0.7166
11622TIP3    H256358   6.654   0.162  13.153  0.7999 -3.1717  0.4937
11623TIP3   OH256359   0.329   2.912  13.846 -0.6023 -0.4696 -0.6182
11623TIP3    H156360   0.366   2.827  13.821  0.1915 -1.6564  3.7837
11623TIP3    H256361   0.237   2.906  13.823 -0.4949 -2.3826 -0.7070
11624TIP3   OH256362   4.156   2.409  12.711 -0.3361  0.1625  0.3923
11624TIP3    H156363   4.247   2.435  12.702 -0.6474  0.6853 -1.9264
11624TIP3    H256364   4.112   2.451  12.636 -2.4296 -0.2410  1.3327
11625TIP3   OH256365   1.662   5.434  14.781 -0.1747  0.0845 -0.4004
11625TIP3    H156366   1.726   5.464  14.717 -0.9427  0.5617 -0.9632
11625TIP3    H256367   1.673   5.494  14.855 -1.5903  1.7412 -1.4572
11626TIP3   OH256368   2.520   3.956  14.797 -0.1886  0.4605  0.0772
11626TIP3    H156369   2.548   3.875  14.753 -0.3394  0.6540 -0.3795
11626TIP3    H256370   2.573   4.025  14.758 -1.2822  0.8345 -0.8095
11627TIP3   OH256371   1.235   6.592  13.301 -0.2177  0.6373  0.7245
11627TIP3    H156372   1.315   6.636  13.330 -0.9404  3.1678 -0.8120
11627TIP3    H256373   1.265   6.512  13.259  1.5198  1.5033  0.2392
11628TIP3   OH256374   4.359   4.383   5.156  0.1521  0.8597 -0.0143
11628TIP3    H156375   4.306   4.429   5.221  0.2666  1.4443 -0.3290
11628TIP3    H256376   4.296   4.350   5.092 -0.1568 -1.2589  1.2826
11629TIP3   OH256377   5.977   2.640  13.384  0.2952  0.2587 -0.8673
11629TIP3    H156378   6.004   2.730  13.366 -1.3527  0.6656 -1.5444
11629TIP3    H256379   5.885   2.637  13.357 -0.6081 -0.7806  1.9211
11630TIP3   OH256380   0.025   3.762   0.358  0.1446  0.2732 -0.3132
11630TIP3    H156381  -0.005   3.675   0.331 -0.5774 -0.3128  2.0813
11630TIP3    H256382   0.085   3.745   0.431  0.5363  1.7612 -0.2679
11631TIP3   OH256383   6.816   2.255   1.246 -0.3499 -0.3728 -0.2208
11631TIP3    H156384   6.870   2.212   1.180  1.0148  0.9489 -0.0203
11631TIP3    H256385   6.727   2.255   1.208 -0.0996 -1.9292 -0.8795
11632TIP3   OH256386   3.133   5.145   1.582 -0.4591 -0.8649 -0.0684
11632TIP3    H156387   3.116   5.127   1.675  0.5373 -2.1129 -0.1062
11632TIP3    H256388   3.215   5.099   1.563 -2.1653 -3.2786 -2.3356
11633TIP3   OH256389   2.635   3.754   5.472 -0.4081  0.3638 -0.6371
11633TIP3    H156390   2.621   3.701   5.550 -1.1427 -0.4125 -1.2871
11633TIP3    H256391   2.552   3.751   5.425  0.2559  0.1781 -1.8397
11634TIP3   OH256392   3.666   5.961  13.089  0.4154  0.2906  0.1254
11634TIP3    H156393   3.708   6.042  13.119 -0.9983  0.7805  0.9080
11634TIP3    H256394   3.695   5.951  12.998  1.7976  0.8489  0.4806
11635TIP3   OH256395   4.766   3.438  14.177  0.4701  0.2495 -0.3189
11635TIP3    H156396   4.673   3.446  14.157 -0.1733 -0.5584  1.9350
11635TIP3    H256397   4.792   3.525  14.210  0.1003  0.0962  0.4085
11636TIP3   OH256398   6.345   0.534  12.875 -0.1978  0.0289  0.3607
11636TIP3    H156399   6.316   0.469  12.811  0.8622 -0.6502  0.5335
11636TIP3    H256400   6.392   0.483  12.942 -0.4155  0.8374  1.1551
11637TIP3   OH256401   3.983   6.261  16.348 -0.0438  0.0517 -0.2940
11637TIP3    H156402   4.076   6.254  16.325 -0.0645  0.1532 -0.4142
11637TIP3    H256403   3.978   6.234  16.439 -0.1213 -1.5401 -0.7341
11638TIP3   OH256404   2.036   3.900   2.157 -0.0866 -0.3923 -0.0411
11638TIP3    H156405   2.007   3.984   2.121  0.5840 -0.0020  0.3153
11638TIP3    H256406   1.958   3.845   2.153 -0.6637  0.3908  0.1431
11639TIP3   OH256407   2.760   2.639   4.131  0.3067  0.6172 -0.6066
11639TIP3    H156408   2.778   2.573   4.064  1.1821  2.0335 -1.8257
11639TIP3    H256409   2.831   2.630   4.194 -0.0280 -0.1348 -0.3307
11640TIP3   OH256410   2.986   2.301   1.009  0.0835 -0.3233 -0.5011
11640TIP3    H156411   2.957   2.297   1.100 -0.3623  0.2705 -0.6088
11640TIP3    H256412   2.972   2.393   0.984  1.6559 -0.1122 -0.6943
11641TIP3   OH256413   6.381   5.792  11.018 -0.3385  0.4465  0.1901
11641TIP3    H156414   6.395   5.866  11.077  0.1326  0.0903  0.5331
11641TIP3    H256415   6.349   5.722  11.074  1.2276 -0.2627  0.2578
11642TIP3   OH256416   6.478   5.382   4.035 -0.1560  0.1640 -0.5755
11642TIP3    H156417   6.559   5.422   4.004 -1.1940  1.4040 -1.8138
11642TIP3    H256418   6.444   5.334   3.960  0.7334 -2.6832  0.6924
11643TIP3   OH256419   3.186   0.063   0.739 -0.3316  0.1587  0.5747
11643TIP3    H156420   3.190   0.158   0.741  0.2704  0.1298  1.7341
11643TIP3    H256421   3.105   0.041   0.785 -1.1135  0.1270 -0.7821
11644TIP3   OH256422   2.962   0.105  12.872  0.0498  0.4608 -0.2666
11644TIP3    H156423   2.878   0.070  12.901  1.2470 -1.4460  1.1259
11644TIP3    H256424   2.976   0.183  12.925 -1.0120  1.0588 -0.8307
11645TIP3   OH256425   6.221   2.549  12.351 -0.4033 -0.2794 -0.2140
11645TIP3    H156426   6.141   2.540  12.299 -0.1222 -1.2085 -0.5136
11645TIP3    H256427   6.190   2.552  12.442 -0.9416  1.9133 -0.3997
11646TIP3   OH256428   3.598   4.812  17.206  0.4290  0.0948 -0.5380
11646TIP3    H156429   3.548   4.760  17.143 -0.0467  0.7465 -0.7173
11646TIP3    H256430   3.600   4.758  17.285 -1.7733  0.5732 -0.0626
11647TIP3   OH256431   0.306   2.479  13.346 -0.5015  0.2271 -0.9124
11647TIP3    H156432   0.304   2.575  13.343 -3.6646  0.4464  1.9294
11647TIP3    H256433   0.231   2.452  13.293 -1.6841 -0.4143  1.0079
11648TIP3   OH256434   3.465   1.859  12.781 -0.1348 -0.2897  0.1246
11648TIP3    H156435   3.421   1.819  12.856 -0.5258  0.3657  0.2528
11648TIP3    H256436   3.394   1.886  12.723  0.1407 -0.2019 -0.1738
11649TIP3   OH256437   6.516   0.877   2.483 -0.2012 -0.1965 -0.1598
11649TIP3    H156438   6.498   0.869   2.389  1.3278  1.4339 -0.6447
11649TIP3    H256439   6.436   0.915   2.519 -0.8766 -1.0207 -0.7331
11650TIP3   OH256440   0.060   6.429  11.495 -0.0794  1.0794 -0.0759
11650TIP3    H156441   0.022   6.504  11.449  0.0379  0.6153 -0.9413
11650TIP3    H256442   0.034   6.353  11.443 -0.3492  0.4945  0.8967
11651TIP3   OH256443   4.956   1.436  16.299  0.0960  0.3030  0.2930
11651TIP3    H156444   5.037   1.447  16.248 -0.1741 -1.1667 -0.4917
11651TIP3    H256445   4.983   1.453  16.389  1.3950 -0.6071  0.1075
11652TIP3   OH256446   4.405   3.159  17.115  0.0817 -0.2206 -0.0413
11652TIP3    H156447   4.377   3.080  17.069  0.0768 -1.4746  2.0052
11652TIP3    H256448   4.341   3.225  17.091 -1.0147 -1.3512 -0.3119
11653TIP3   OH256449   4.476   0.816  16.696  0.3003  0.7768 -0.0745
11653TIP3    H156450   4.510   0.904  16.682  0.2797  0.9071  0.6393
11653TIP3    H256451   4.419   0.800  16.621  0.0825  1.4849 -0.0660
11654TIP3   OH256452   0.364   0.046   3.653 -0.2720  0.0333  0.0417
11654TIP3    H156453   0.394   0.031   3.743  0.1091 -1.8650 -0.3602
11654TIP3    H256454   0.313   0.127   3.658 -0.1854  0.0160  1.9444
11655TIP3   OH256455   0.645   3.796  13.042  0.0300  0.3062 -0.8051
11655TIP3    H156456   0.589   3.873  13.035 -0.4550 -0.0232 -0.6472
11655TIP3    H256457   0.600   3.729  12.991 -0.8921 -0.6118  1.1093
11656TIP3   OH256458   5.357   1.833   3.952  0.0054 -0.0258  0.4981
11656TIP3    H156459   5.405   1.873   4.025 -1.7756  0.4035  1.4829
11656TIP3    H256460   5.425   1.814   3.887  1.4895  0.6350  1.7799
11657TIP3   OH256461   6.151   1.038  13.977 -0.1397 -0.0372 -0.5169
11657TIP3    H156462   6.204   1.004  14.049 -0.4186  0.0546 -0.2664
11657TIP3    H256463   6.210   1.097  13.930  0.8332 -1.9382 -1.8283
11658TIP3   OH256464   0.715   2.171  12.001 -0.4125 -0.4403 -0.4613
11658TIP3    H156465   0.739   2.081  12.020 -2.1451 -0.7308  0.6050
11658TIP3    H256466   0.691   2.208  12.086 -0.2279  0.8710 -0.9527
11659TIP3   OH256467   3.542   4.881  13.156 -0.2483  0.0529  0.5975
11659TIP3    H156468   3.606   4.825  13.198 -0.2185  0.9583  1.8211
11659TIP3    H256469   3.458   4.837  13.170 -0.7082  1.7629  4.4926
11660TIP3   OH256470   2.825   2.615  16.367  0.3182 -0.3169  0.3182
11660TIP3    H156471   2.908   2.601  16.321 -0.7015 -3.1573 -0.8922
11660TIP3    H256472   2.847   2.603  16.459  1.5483  0.6985  0.1807
11661TIP3   OH256473   6.237   5.177   1.791  0.1359 -0.7261 -0.0041
11661TIP3    H156474   6.294   5.250   1.769 -0.6057 -0.3066 -0.6038
11661TIP3    H256475   6.225   5.183   1.886  0.8958 -0.6932  0.0962
11662TIP3   OH256476   5.866   5.837  16.098 -0.0285  0.5169 -0.5926
11662TIP3    H156477   5.932   5.865  16.162 -0.8617  2.5191 -0.5390
11662TIP3    H256478   5.895   5.750  16.070  1.5277  0.5024  0.9013
11663TIP3   OH256479   5.351   6.437  15.357  0.3338  0.3451 -0.5393
11663TIP3    H156480   5.317   6.370  15.417  1.0857  0.1896 -0.2714
11663TIP3    H256481   5.296   6.431  15.280  0.2364 -0.4183 -0.4157
11664TIP3   OH256482   0.939   3.931  11.151 -0.0630 -0.0339 -0.4013
11664TIP3    H156483   0.846   3.956  11.151 -0.0253  0.1507 -1.3831
11664TIP3    H256484   0.943   3.853  11.207 -0.3939  1.3485  1.6576
11665TIP3   OH256485   4.332   6.719  16.067 -0.1023  0.4741  0.2074
11665TIP3    H156486   4.340   6.786  16.136 -1.6594  2.6224 -1.5513
11665TIP3    H256487   4.422   6.700  16.042  0.4265  0.9655  1.6239
11666TIP3   OH256488   2.801   4.954  17.138 -0.5079 -0.1001  0.3503
11666TIP3    H156489   2.721   4.980  17.092 -0.1541  1.6243  0.6628
11666TIP3    H256490   2.870   5.006  17.098  0.1529 -0.1498  1.3946
11667TIP3   OH256491   3.272   3.052  14.895  0.1554  0.2994  0.2527
11667TIP3    H156492   3.296   3.142  14.873 -0.7920  0.4047 -0.4386
11667TIP3    H256493   3.299   3.041  14.986  0.5936  1.1623  0.2399
11668TIP3   OH256494   0.912   5.143   4.305  0.4333 -0.3224 -0.1703
11668TIP3    H156495   1.003   5.171   4.316  0.5910 -1.4466  2.1730
11668TIP3    H256496   0.904   5.120   4.213  1.3627  3.4923 -1.3712
11669TIP3   OH256497   5.219   4.972   1.909 -0.2738 -0.2312 -0.2476
11669TIP3    H156498   5.289   4.941   1.965 -0.8719 -1.2529 -0.0475
11669TIP3    H256499   5.216   4.909   1.837 -0.2754  0.4160 -0.8229
11670TIP3   OH256500   6.809   0.844  12.847  0.3345  0.0222 -0.3007
11670TIP3    H156501   6.763   0.899  12.911  0.2735  1.0581 -1.2132
11670TIP3    H256502   6.842   0.905  12.782 -1.3702 -1.1167 -2.3917
11671TIP3   OH256503   5.560   0.675  14.176  0.3612 -0.0617 -0.2819
11671TIP3    H156504   5.645   0.633  14.170  0.2673 -0.1521 -1.2321
11671TIP3    H256505   5.503   0.622  14.119 -0.3375 -0.0187  0.3543
11672TIP3   OH256506   3.202   3.044   2.496 -0.1712 -0.8097  0.0820
11672TIP3    H156507   3.235   3.017   2.581  0.6295 -1.6115 -0.4597
11672TIP3    H256508   3.180   2.962   2.452 -0.3993 -0.4207 -0.5453
11673TIP3   OH256509   5.490   2.456  15.807  0.4513 -0.0936  0.0658
11673TIP3    H156510   5.523   2.380  15.855 -1.7829 -0.9070  0.4260
11673TIP3    H256511   5.421   2.492  15.863  1.2278  2.0140 -0.2643
11674TIP3   OH256512   5.616   4.063   3.964  0.4849 -0.2844 -0.0708
11674TIP3    H156513   5.523   4.084   3.977  0.6966  0.0825  0.8937
11674TIP3    H256514   5.628   3.981   4.011  0.9816  0.4407  1.1129
11675TIP3   OH256515   5.968   2.793  15.746 -0.4952 -0.4408 -0.4092
11675TIP3    H156516   6.005   2.707  15.763 -0.4474 -0.2937  0.2818
11675TIP3    H256517   6.032   2.836  15.689  1.2032  0.3382  1.9246
11676TIP3   OH256518   3.642   2.476   2.851  0.4397  0.0989 -0.1467
11676TIP3    H156519   3.586   2.464   2.928 -2.1224 -0.4075 -1.9596
11676TIP3    H256520   3.620   2.402   2.794  1.9034  0.7249 -1.5985
11677TIP3   OH256521   5.022   4.516   2.158  0.1166  0.0356 -0.4843
11677TIP3    H156522   5.088   4.564   2.207 -0.2865  2.9728 -2.5754
11677TIP3    H256523   4.942   4.526   2.209  0.6318 -1.1374  0.6256
11678TIP3   OH256524   2.277   5.513   4.786  0.0206  0.1705 -0.1363
11678TIP3    H156525   2.286   5.493   4.879  1.0599  2.7383  0.4082
11678TIP3    H256526   2.192   5.557   4.780 -0.2596 -0.4145 -0.5048
11679TIP3   OH256527   3.131   4.001  11.178  0.3277  0.0817 -0.1295
11679TIP3    H156528   3.213   4.046  11.194 -0.2705  1.4983 -0.8440
11679TIP3    H256529   3.087   4.054  11.111 -0.7250 -1.1847 -0.4893
11680TIP3   OH256530   1.848   5.499  15.771 -0.0603 -0.0805  0.4132
11680TIP3    H156531   1.799   5.554  15.831  1.4801  3.1476 -1.0617
11680TIP3    H256532   1.923   5.468  15.823 -0.7409 -0.5445  1.1494
11681TIP3   OH256533   2.247   4.592   2.136 -0.1745 -0.6811  0.2297
11681TIP3    H156534   2.232   4.535   2.211 -0.4398  1.8514  2.2340
11681TIP3    H256535   2.159   4.616   2.106 -0.1646  0.9839  1.3666
11682TIP3   OH256536   0.838   2.086  15.050  0.1757  0.2562  0.4253
11682TIP3    H156537   0.805   2.000  15.025  0.3919  0.6511 -1.3323
11682TIP3    H256538   0.795   2.105  15.134 -0.8617 -1.0052  0.2088
11683TIP3   OH256539   1.571   3.609  12.967 -0.0946  0.0023 -0.0590
11683TIP3    H156540   1.613   3.526  12.944 -1.0965 -1.3264  2.5166
11683TIP3    H256541   1.549   3.600  13.060 -3.0201  1.9295 -0.4243
11684TIP3   OH256542   1.327   6.030   4.098  0.5201 -0.9591  0.0869
11684TIP3    H156543   1.388   6.091   4.139 -1.1425  1.7029 -1.1416
11684TIP3    H256544   1.376   5.993   4.024  1.2719 -0.3992  0.2950
11685TIP3   OH256545   0.186   0.998  12.696  0.2978 -0.8974  0.1532
11685TIP3    H156546   0.207   0.986  12.604 -1.1871  1.0034 -0.4882
11685TIP3    H256547   0.254   0.948  12.743  0.3496 -2.9454 -1.9323
11686TIP3   OH256548   1.600   2.440  10.837 -0.2259  0.3596 -0.2355
11686TIP3    H156549   1.541   2.372  10.804  2.0763 -2.1939  0.5388
11686TIP3    H256550   1.638   2.479  10.758 -1.8839  1.1215 -0.7007
11687TIP3   OH256551   2.722   6.793  17.164 -0.1446  0.6222 -0.3451
11687TIP3    H156552   2.765   6.837  17.238  1.2292 -0.0279 -0.7238
11687TIP3    H256553   2.642   6.757  17.201  0.1018  1.0343  0.6205
11688TIP3   OH256554   3.427   2.015  10.709  0.2867  0.4817  0.4177
11688TIP3    H156555   3.454   1.935  10.754 -0.1742  0.7832  1.2643
11688TIP3    H256556   3.349   2.044  10.756 -0.1704  0.8619 -0.5405
11689TIP3   OH256557   4.557   1.386  11.802  0.2214  0.1779  0.0981
11689TIP3    H156558   4.589   1.470  11.769 -0.3981 -0.1628 -1.4527
11689TIP3    H256559   4.568   1.326  11.728 -1.9558 -0.4373  0.2095
11690TIP3   OH256560   4.083   0.437  15.099 -0.5747 -0.3286  0.5892
11690TIP3    H156561   3.994   0.440  15.064 -0.7534 -0.5867  1.0251
11690TIP3    H256562   4.111   0.346  15.088  0.1474  0.0310 -0.8043
11691TIP3   OH256563   5.840   4.413   1.442 -0.6845 -0.5689 -0.2322
11691TIP3    H156564   5.772   4.388   1.505 -1.3846  1.5291 -0.0644
11691TIP3    H256565   5.794   4.424   1.359 -0.4099  0.0601 -0.3095
11692TIP3   OH256566   5.816   0.269   1.551 -0.0894  0.2256  0.1322
11692TIP3    H156567   5.824   0.324   1.629  1.1177 -1.1057  1.0067
11692TIP3    H256568   5.889   0.297   1.495 -0.7614  0.9566 -0.4036
11693TIP3   OH256569   1.168   3.570  12.428  0.5728 -0.3493  0.6101
11693TIP3    H156570   1.179   3.616  12.511  1.1417 -3.2228  2.2674
11693TIP3    H256571   1.076   3.582  12.406  0.8354  2.0565  0.5688
11694TIP3   OH256572   3.916   4.158   2.056  0.0281 -0.3812  0.6917
11694TIP3    H156573   3.974   4.088   2.087  1.1734 -0.0506 -0.5793
11694TIP3    H256574   3.901   4.137   1.963 -1.0485  0.1179  0.7322
11695TIP3   OH256575   0.569   1.896   3.197 -0.4565 -0.1403 -0.0803
11695TIP3    H156576   0.593   1.934   3.112 -0.8828  3.6558  1.2775
11695TIP3    H256577   0.585   1.802   3.187  2.7059  0.5011 -3.2883
11696TIP3   OH256578   0.381   0.877  14.143  0.4229  0.3458 -0.2154
11696TIP3    H156579   0.309   0.859  14.083  1.8584  1.6263 -2.4486
11696TIP3    H256580   0.459   0.849  14.096  1.4434 -1.8368  2.4760
11697TIP3   OH256581   5.524   5.588  11.852 -0.2119 -0.1066  0.4023
11697TIP3    H156582   5.467   5.596  11.929  0.0302 -2.9644  0.9974
11697TIP3    H256583   5.474   5.533  11.792  1.2593 -1.3762  0.2940
11698TIP3   OH256584   2.526   1.854   4.548  0.1250 -0.1644 -0.5390
11698TIP3    H156585   2.520   1.945   4.576  0.0570 -0.2581 -0.2484
11698TIP3    H256586   2.438   1.818   4.562  0.6318 -0.8226  1.2510
11699TIP3   OH256587   5.948   0.683  13.519 -0.0193 -0.1129 -0.0885
11699TIP3    H156588   5.930   0.610  13.459  1.4884  0.6394 -1.5389
11699TIP3    H256589   5.991   0.642  13.595 -1.1633 -0.9740  0.1128
11700TIP3   OH256590   3.975   1.606   3.543  0.2957 -0.0550  0.1510
11700TIP3    H156591   4.066   1.612   3.574  0.0036  0.7266  0.8881
11700TIP3    H256592   3.922   1.618   3.621 -0.4563  0.5362 -0.4369
11701TIP3   OH256593   4.206   5.235  11.676  0.9343 -0.8858 -0.3387
11701TIP3    H156594   4.155   5.314  11.692  1.1087 -0.5237 -1.4416
11701TIP3    H256595   4.277   5.264  11.619  0.0479 -2.1205 -2.1802
11702TIP3   OH256596   2.782   1.127  13.445  0.0440  0.0028 -0.3078
11702TIP3    H156597   2.785   1.172  13.361 -0.1958 -1.8105 -1.3252
11702TIP3    H256598   2.873   1.101  13.462  0.0447  0.1126 -0.1330
11703TIP3   OH256599   5.685   5.853   5.891  0.1124  0.0545 -0.5513
11703TIP3    H156600   5.707   5.874   5.800  1.3895  1.3379  0.0135
11703TIP3    H256601   5.714   5.930   5.941  0.1260 -0.9377  1.0328
11704TIP3   OH256602   5.227   4.023   0.228 -0.4921  0.8566 -0.4258
11704TIP3    H156603   5.304   3.968   0.212  1.2492  2.8165  0.6912
11704TIP3    H256604   5.175   3.973   0.291  0.2139 -0.2130 -0.6642
11705TIP3   OH256605   0.197   1.196  13.998  0.0846  0.5139 -0.0145
11705TIP3    H156606   0.261   1.192  13.927 -1.4644 -1.0325 -1.4301
11705TIP3    H256607   0.131   1.131  13.974 -1.9320  1.8922  1.4672
11706TIP3   OH256608   0.745   1.979   6.465  0.1977 -0.1128  0.6822
11706TIP3    H156609   0.772   1.917   6.533  0.3079 -1.6224 -0.6795
11706TIP3    H256610   0.819   2.040   6.457  1.6573 -1.9243 -0.3661
11707TIP3   OH256611   0.674   3.719   0.257  0.2675  0.1109 -0.1852
11707TIP3    H156612   0.620   3.672   0.320  0.0080  0.8766  0.1773
11707TIP3    H256613   0.763   3.689   0.274 -0.0109 -1.0523 -0.6924
11708TIP3   OH256614   5.167   5.759  16.764  0.6358 -0.1907 -0.4047
11708TIP3    H156615   5.137   5.800  16.682 -0.1622  0.9928  0.4330
11708TIP3    H256616   5.158   5.665  16.749  1.7742 -0.0756 -2.1360
11709TIP3   OH256617   5.751   6.148   3.461  0.7840  0.9412  0.3452
11709TIP3    H156618   5.696   6.110   3.529  1.1687  0.8488  0.6111
11709TIP3    H256619   5.826   6.184   3.509  0.8244  1.2979  0.0159
11710TIP3   OH256620   5.872   1.193  14.607 -0.3743 -0.6077 -0.4106
11710TIP3    H156621   5.846   1.192  14.515 -1.9533 -1.3925  0.0162
11710TIP3    H256622   5.963   1.162  14.607 -0.1583 -0.0279 -1.7364
11711TIP3   OH256623   3.806   3.397   1.934  0.3408  0.0245  0.6690
11711TIP3    H156624   3.753   3.322   1.960  1.8122 -0.7943  1.3898
11711TIP3    H256625   3.821   3.385   1.840  0.0915 -0.2544  0.6630
11712TIP3   OH256626   0.640   0.834   5.911 -0.1831 -0.2805 -0.2014
11712TIP3    H156627   0.585   0.791   5.844 -0.3682  0.2693 -0.4060
11712TIP3    H256628   0.718   0.779   5.916 -0.8730 -1.2406  0.3020
11713TIP3   OH256629   4.139   0.120   1.863 -0.0260  0.3431 -0.8670
11713TIP3    H156630   4.140   0.027   1.883 -1.7589  0.2933 -0.8232
11713TIP3    H256631   4.188   0.161   1.934 -1.5996 -0.3160  0.6931
11714TIP3   OH256632   6.446   0.620  10.709 -0.3973  0.1621  0.0945
11714TIP3    H156633   6.362   0.575  10.724 -0.7512  0.8084  0.0790
11714TIP3    H256634   6.473   0.590  10.622 -0.1786 -0.7148  0.4479
11715TIP3   OH256635   0.736   2.878   2.083  0.8066 -0.6004 -0.8757
11715TIP3    H156636   0.754   2.821   2.158 -0.3237 -0.2031 -0.2910
11715TIP3    H256637   0.670   2.831   2.033 -0.0278  0.1204 -0.4650
11716TIP3   OH256638   3.683   3.100   3.304 -0.3700 -0.4333 -0.2324
11716TIP3    H156639   3.744   3.160   3.347 -0.3326 -0.7966  0.2206
11716TIP3    H256640   3.705   3.107   3.211 -0.3813  0.2735 -0.1900
11717TIP3   OH256641   0.148   4.001  12.573  0.6131  0.0652 -0.1941
11717TIP3    H156642   0.133   4.092  12.550  0.8849 -0.1173 -1.1619
11717TIP3    H256643   0.237   3.999  12.609 -0.2736  0.5670  2.2095
11718TIP3   OH256644   4.684   6.206   4.407  0.0164  0.1241  0.3346
11718TIP3    H156645   4.767   6.252   4.424  0.2137 -0.3724  0.7579
11718TIP3    H256646   4.702   6.154   4.329  0.4418 -0.7709  1.0134
11719TIP3   OH256647   2.393   0.843   4.153  0.1753 -0.3442  0.1755
11719TIP3    H156648   2.379   0.937   4.165 -0.1104 -0.4976  1.0576
11719TIP3    H256649   2.381   0.830   4.059  1.6699  0.7387 -0.2037
11720TIP3   OH256650   0.426   2.076  16.884  0.1700 -0.0726 -0.4936
11720TIP3    H156651   0.426   2.057  16.790  0.6747 -1.6270 -0.2118
11720TIP3    H256652   0.490   2.016  16.921 -0.7053 -0.1691  0.9706
11721TIP3   OH256653   3.198   2.692   5.896 -0.4457  0.3933  0.0654
11721TIP3    H156654   3.157   2.650   5.972 -1.4452  1.5527  0.1991
11721TIP3    H256655   3.230   2.776   5.929 -1.4289  1.1760 -0.9056
11722TIP3   OH256656   3.326   0.092  11.659  0.3604 -0.0637 -0.3722
11722TIP3    H156657   3.402   0.056  11.612  0.1067 -0.9275 -0.1403
11722TIP3    H256658   3.308   0.174  11.614  1.6979  0.3768 -0.1532
11723TIP3   OH256659   3.298   2.289   2.383 -0.0602  0.2595 -0.0119
11723TIP3    H156660   3.284   2.331   2.298  1.5144 -0.3836 -0.6222
11723TIP3    H256661   3.221   2.234   2.396 -1.9114  2.8218  0.5511
11724TIP3   OH256662   1.362   5.419  17.000 -0.4566 -0.0066  0.4752
11724TIP3    H156663   1.410   5.459  17.072 -0.8262 -0.0307  0.7359
11724TIP3    H256664   1.369   5.325  17.014  1.5636 -0.1250 -0.8763
11725TIP3   OH256665   2.595   4.101  17.033 -0.3168  0.2968 -0.0071
11725TIP3    H156666   2.617   4.018  17.076  1.5606  1.2506  0.9795
11725TIP3    H256667   2.668   4.118  16.974 -0.5660  1.3529 -0.0310
11726TIP3   OH256668   1.444   0.339  13.104  0.3450  0.1578 -0.0840
11726TIP3    H156669   1.394   0.421  13.097  0.2277  0.3139  1.9717
11726TIP3    H256670   1.420   0.304  13.190  1.8696 -1.0552 -0.1133
11727TIP3   OH256671   5.300   4.564  16.431  0.3505  1.0780  0.9217
11727TIP3    H156672   5.328   4.655  16.430 -0.4589  1.3312  0.8341
11727TIP3    H256673   5.206   4.567  16.418  0.3170  0.2229  0.8730
11728TIP3   OH256674   4.743   6.302  16.325  0.4598  0.2267  0.3304
11728TIP3    H156675   4.660   6.266  16.356  1.3996 -1.3236  1.1716
11728TIP3    H256676   4.758   6.378  16.380 -0.0698  0.1088  0.6434
11729TIP3   OH256677   2.311   5.689  13.457  0.1410  0.2887  0.1928
11729TIP3    H156678   2.371   5.627  13.417  0.9064  0.4587  1.0577
11729TIP3    H256679   2.359   5.726  13.531 -1.0038  0.4598  0.8861
11730TIP3   OH256680   4.099   0.980   1.807  0.6614  0.1178  0.4471
11730TIP3    H156681   4.113   1.023   1.891  2.0029 -0.5182  0.5823
11730TIP3    H256682   4.149   1.034   1.744  1.0296 -0.3299  0.3500
11731TIP3   OH256683   6.637   1.943  12.240 -0.2888 -0.3899 -0.1980
11731TIP3    H156684   6.572   1.882  12.274 -0.7169  0.6084  0.8375
11731TIP3    H256685   6.701   1.888  12.195 -2.5674 -1.3277 -2.5578
11732TIP3   OH256686   5.540   2.007   0.083 -0.5977  0.0480 -0.6380
11732TIP3    H156687   5.474   1.942   0.109  1.7744 -2.1885  0.2369
11732TIP3    H256688   5.532   2.012  -0.013 -0.6469 -1.8596 -0.7837
11733TIP3   OH256689   1.430   5.820  13.334  0.1499 -0.3258  0.1756
11733TIP3    H156690   1.393   5.779  13.413 -3.1971  1.6120 -0.1934
11733TIP3    H256691   1.360   5.813  13.269  1.2087  1.8033 -1.2967
11734TIP3   OH256692   3.157   1.073   3.642 -0.6865  0.1563  0.2306
11734TIP3    H156693   3.094   1.075   3.570 -0.7581 -0.7387  0.2632
11734TIP3    H256694   3.130   0.999   3.696  0.1785 -0.0189  0.4420
11735TIP3   OH256695   4.617   3.144  16.054  0.8741  0.3544  0.8738
11735TIP3    H156696   4.710   3.159  16.073  1.1465  0.6196 -0.5225
11735TIP3    H256697   4.583   3.230  16.033  1.3420 -0.1644 -2.6519
11736TIP3   OH256698   6.343   5.683  15.126  0.4576  0.1344  0.3523
11736TIP3    H156699   6.281   5.624  15.085  1.1798 -0.3864 -0.0194
11736TIP3    H256700   6.340   5.660  15.219  0.3235 -0.1095  0.2887
11737TIP3   OH256701   2.199   1.774   2.939  0.0777  0.2661 -0.7659
11737TIP3    H156702   2.256   1.837   2.983 -1.7840  2.0427 -0.7820
11737TIP3    H256703   2.243   1.756   2.856 -0.6084  3.6993 -2.0083
11738TIP3   OH256704   6.534   6.491  14.433  0.0136 -0.0225 -0.5346
11738TIP3    H156705   6.453   6.441  14.442  0.8094 -1.9152 -2.8699
11738TIP3    H256706   6.530   6.528  14.345  1.6478 -0.1162 -0.6789
11739TIP3   OH256707   3.894   4.919  10.365 -0.4076  0.1163 -0.5782
11739TIP3    H156708   3.849   4.838  10.387  0.6055 -0.1243  0.7564
11739TIP3    H256709   3.825   4.976  10.331 -1.1936 -1.1794 -1.2406
11740TIP3   OH256710   5.603   6.501  14.797 -0.2484  0.7428 -1.0244
11740TIP3    H156711   5.691   6.509  14.835 -0.4875 -1.5000  0.1533
11740TIP3    H256712   5.607   6.554  14.717  2.5231 -0.1313 -1.5832
11741TIP3   OH256713   4.145   3.995   3.543 -0.5653 -0.7215  0.4723
11741TIP3    H156714   4.200   3.960   3.613 -2.9082 -1.3571  2.1279
11741TIP3    H256715   4.064   4.020   3.587 -0.9663  1.9310 -1.5341
11742TIP3   OH256716   2.708   0.451  15.289  0.9064 -0.3865 -0.2788
11742TIP3    H156717   2.756   0.532  15.303  0.3365 -0.1635  0.4124
11742TIP3    H256718   2.703   0.442  15.194  1.0085  0.3646 -0.3562
11743TIP3   OH256719   6.650   2.849   5.453 -0.4725  0.3786 -0.2610
11743TIP3    H156720   6.575   2.895   5.491 -0.1280  1.7748 -1.1736
11743TIP3    H256721   6.721   2.914   5.455 -0.1186  0.1005 -2.1266
11744TIP3   OH256722   6.508   3.668   3.630 -0.2931  0.4612 -0.5841
11744TIP3    H156723   6.426   3.702   3.595 -1.3954  0.2012  1.5605
11744TIP3    H256724   6.492   3.660   3.724  2.1185  0.1496 -0.1396
11745TIP3   OH256725   1.721   5.975  11.958 -0.0879 -0.5802  0.6037
11745TIP3    H156726   1.740   6.020  12.041  0.0301  1.8955 -0.6585
11745TIP3    H256727   1.629   5.951  11.964 -0.1481 -0.1982  1.3498
11746TIP3   OH256728   2.301   5.022   5.343 -0.1257  0.3725 -0.4724
11746TIP3    H156729   2.303   5.048   5.435  0.7630  0.6769 -0.5681
11746TIP3    H256730   2.367   5.077   5.301  1.3084 -1.4964 -0.8094
11747TIP3   OH256731   0.359   3.230   1.996 -0.4182  0.0759  0.0669
11747TIP3    H156732   0.293   3.175   1.954  0.9652 -0.9437 -0.8663
11747TIP3    H256733   0.411   3.265   1.923 -0.0518  1.0378  0.7663
11748TIP3   OH256734   6.313   4.570  11.195  0.1929 -0.4814 -0.1255
11748TIP3    H156735   6.220   4.548  11.198  0.3018 -0.9535 -0.0435
11748TIP3    H256736   6.349   4.533  11.276  0.4028 -0.0630 -0.0248
11749TIP3   OH256737   3.079   1.207  14.619 -0.2970 -0.0084 -0.5390
11749TIP3    H156738   3.166   1.183  14.648 -0.7451 -0.1579  0.7542
11749TIP3    H256739   3.022   1.186  14.694 -1.1699  1.9129 -0.6047
11750TIP3   OH256740   4.706   5.546  16.040  0.0928  0.2954 -0.2854
11750TIP3    H156741   4.781   5.603  16.058  0.4596  0.5736 -2.4779
11750TIP3    H256742   4.631   5.593  16.076  0.4376  2.0440 -1.7083
11751TIP3   OH256743   3.561   6.475   2.412 -0.2187  0.4146 -0.3056
11751TIP3    H156744   3.655   6.458   2.405 -0.1236  0.5617  0.5528
11751TIP3    H256745   3.548   6.509   2.501 -1.3051 -1.0865  0.1621
11752TIP3   OH256746   0.641   0.486  10.972 -0.7157 -0.0849 -0.0155
11752TIP3    H156747   0.555   0.449  10.952 -0.6359 -0.8929  1.0456
11752TIP3    H256748   0.630   0.581  10.960 -0.5355 -0.4249 -4.2579
11753TIP3   OH256749   2.126   1.261   5.311  0.1079 -0.2424  0.4897
11753TIP3    H156750   2.055   1.216   5.265  0.0305  0.1524  0.2232
11753TIP3    H256751   2.203   1.248   5.256  0.3985 -1.2222  1.0943
11754TIP3   OH256752   0.907   4.457   2.893 -0.9342 -0.0862  0.2924
11754TIP3    H156753   0.968   4.390   2.924 -1.0248  0.0231  0.7171
11754TIP3    H256754   0.849   4.473   2.968  0.3359  1.9042  0.9263
11755TIP3   OH256755   3.411   1.789  15.611 -0.2237 -0.2450  0.1643
11755TIP3    H156756   3.482   1.845  15.641 -0.3819 -0.2945  0.6440
11755TIP3    H256757   3.443   1.700  15.623 -0.3193 -0.2662  0.2643
11756TIP3   OH256758   1.134   4.796  11.695  0.7587 -0.3184 -0.0783
11756TIP3    H156759   1.101   4.752  11.617 -0.2493 -0.0598  0.1878
11756TIP3    H256760   1.085   4.757  11.767 -0.5418  1.5475  0.1162
11757TIP3   OH256761   0.660   0.661  12.765  0.0878 -0.6419  0.2072
11757TIP3    H156762   0.752   0.653  12.739 -0.1142  1.0722 -1.2705
11757TIP3    H256763   0.655   0.747  12.808 -1.0192 -0.2213 -0.7274
11758TIP3   OH256764   6.112   2.465   1.383 -0.2052  0.1452 -0.2647
11758TIP3    H156765   6.155   2.549   1.365  0.2197 -0.0327 -0.0832
11758TIP3    H256766   6.160   2.429   1.457  0.7361 -1.0595 -1.4164
11759TIP3   OH256767   2.191   4.412  16.954  0.4889 -0.1532 -0.0123
11759TIP3    H156768   2.134   4.430  17.029  1.8133 -1.2618  1.3309
11759TIP3    H256769   2.165   4.476  16.888 -0.5367  1.0553  1.4940
11760TIP3   OH256770   0.261   0.145  16.626 -0.4995 -0.5128  0.4172
11760TIP3    H156771   0.240   0.229  16.668  0.1338  0.6905 -1.5018
11760TIP3    H256772   0.301   0.170  16.542  0.6031 -2.7476  0.1976
11761TIP3   OH256773   5.320   0.711  11.669 -0.0016  0.3522 -0.3839
11761TIP3    H156774   5.289   0.624  11.691  1.2411  0.3412  1.6681
11761TIP3    H256775   5.384   0.697  11.599 -0.7005 -0.2285 -0.9118
11762TIP3   OH256776   4.910   3.749   0.294 -0.4185  0.5480  0.6483
11762TIP3    H156777   5.004   3.744   0.311 -0.2482 -0.5714 -0.4619
11762TIP3    H256778   4.876   3.664   0.322 -0.7800  0.2439 -0.6319
11763TIP3   OH256779   5.779   1.288   1.479  0.6201 -0.0655  0.3385
11763TIP3    H156780   5.793   1.215   1.540  0.8547  1.0529  1.6686
11763TIP3    H256781   5.864   1.331   1.473  0.9178 -0.8223 -1.7374
11764TIP3   OH256782   4.929   1.228  12.689  0.4236 -0.3635 -0.8186
11764TIP3    H156783   4.957   1.155  12.633  0.2155 -0.9586 -0.1557
11764TIP3    H256784   4.896   1.293  12.628 -1.7980 -1.8402 -1.3036
11765TIP3   OH256785   0.199   6.022   1.127 -0.3966 -0.1820 -0.0188
11765TIP3    H156786   0.200   5.933   1.090 -1.1480 -0.9680  1.7532
11765TIP3    H256787   0.289   6.052   1.120  0.4687 -2.1326  1.6948
11766TIP3   OH256788   5.270   1.238  16.391 -0.3190  0.4269 -0.0933
11766TIP3    H156789   5.239   1.186  16.317  0.8600 -1.4152  0.6215
11766TIP3    H256790   5.195   1.292  16.416 -2.6268 -2.8792  0.7717
11767TIP3   OH256791   4.455   1.813   5.670 -0.2144 -0.0558 -0.1079
11767TIP3    H156792   4.372   1.855   5.694 -1.1531 -1.4217 -0.8145
11767TIP3    H256793   4.517   1.885   5.663 -1.0526  0.8928  1.5866
11768TIP3   OH256794   2.861   1.007  16.154  0.2035 -0.1684 -0.2119
11768TIP3    H156795   2.956   1.013  16.150  0.1766 -0.2719 -2.4657
11768TIP3    H256796   2.833   1.018  16.063 -2.0016  0.7449  0.5118
11769TIP3   OH256797   6.023   3.871   1.593 -0.1052 -0.0287 -0.5641
11769TIP3    H156798   6.024   3.957   1.635  1.1131  0.0398 -0.6830
11769TIP3    H256799   6.115   3.843   1.594 -0.5014 -1.3894 -0.4022
11770TIP3   OH256800   4.381   2.737  15.059  0.3163 -0.2098 -0.2026
11770TIP3    H156801   4.350   2.784  14.982  0.2707 -0.6962 -0.4837
11770TIP3    H256802   4.374   2.801  15.130  0.2149  0.1930 -0.5704
11771TIP3   OH256803   2.407   5.877   1.256  0.0597 -0.1817 -0.0068
11771TIP3    H156804   2.470   5.921   1.198 -0.6713  2.1195  0.8345
11771TIP3    H256805   2.341   5.944   1.275 -0.2291 -1.1250  2.7413
11772TIP3   OH256806   3.945   4.643  14.381  0.2813 -0.0320 -0.3823
11772TIP3    H156807   3.925   4.583  14.309  0.8497 -1.9755  0.9941
11772TIP3    H256808   3.997   4.712  14.340 -2.9152  1.2856 -2.6255
11773TIP3   OH256809   0.186   4.321   0.053  0.0372 -0.4386  0.1947
11773TIP3    H156810   0.112   4.314   0.112 -0.3037  0.6155 -0.0910
11773TIP3    H256811   0.262   4.329   0.110 -0.0457 -1.6231  0.4891
11774TIP3   OH256812   1.630   3.012  11.282 -0.3085 -0.2147  0.1949
11774TIP3    H156813   1.576   3.065  11.223 -1.3076 -1.1564  0.2437
11774TIP3    H256814   1.706   2.988  11.229  0.2091  1.3000  0.1927
11775TIP3   OH256815   0.553   3.021  16.607 -0.6012  0.0260  0.1439
11775TIP3    H156816   0.525   3.083  16.539 -2.2946 -1.2060 -0.3304
11775TIP3    H256817   0.563   2.938  16.561 -0.5527 -0.5541  1.1747
11776TIP3   OH256818   2.400   5.776  15.643 -0.8175  0.3611  0.1550
11776TIP3    H156819   2.392   5.797  15.551 -1.1111  0.8091  0.2822
11776TIP3    H256820   2.328   5.823  15.685 -1.1504 -0.4474  0.5117
11777TIP3   OH256821   1.321   5.063   5.746  0.1491  0.1568 -0.2054
11777TIP3    H156822   1.280   4.977   5.744  0.4752 -0.0042 -0.1123
11777TIP3    H256823   1.280   5.111   5.675  0.5559 -0.3514 -0.7951
11778TIP3   OH256824   6.739   3.857   2.426 -0.1617 -0.0750  0.2115
11778TIP3    H156825   6.783   3.815   2.352  0.0302 -0.2871  0.4451
11778TIP3    H256826   6.765   3.949   2.421  2.0420 -0.5569  1.5769
11779TIP3   OH256827   2.055   1.920  14.061  0.4174  0.4669 -0.0532
11779TIP3    H156828   2.123   1.894  14.123  0.8079  1.1410 -0.1867
11779TIP3    H256829   1.978   1.937  14.115  0.7312  0.9672  0.2466
11780TIP3   OH256830   4.353   2.391   4.366 -0.2850 -0.7681 -0.3897
11780TIP3    H156831   4.333   2.328   4.296 -1.2025 -1.3600  0.3939
11780TIP3    H256832   4.322   2.350   4.446 -1.2235  0.8146  0.1149
11781TIP3   OH256833   0.732   4.029  15.757 -0.3934 -0.1395  0.3420
11781TIP3    H156834   0.685   3.969  15.700 -0.2733 -0.1386  0.2435
11781TIP3    H256835   0.810   3.981  15.784  1.3078  1.0508 -2.1830
11782TIP3   OH256836   1.646   4.649  15.842 -0.2097 -0.0969  0.4263
11782TIP3    H156837   1.674   4.565  15.807  3.8061  1.5171 -0.8321
11782TIP3    H256838   1.724   4.683  15.888 -1.6201  2.9284  0.8369
11783TIP3   OH256839   5.452   4.272  14.445 -0.0633  0.0565  0.4095
11783TIP3    H156840   5.416   4.245  14.360 -0.9959  0.0185  0.7992
11783TIP3    H256841   5.398   4.225  14.509 -0.5320  1.4546  1.0660
11784TIP3   OH256842   4.861   1.349  15.522 -0.5143 -0.0610  0.2337
11784TIP3    H156843   4.910   1.412  15.470 -1.5499  1.1194  0.6417
11784TIP3    H256844   4.918   1.331  15.597 -0.3327  0.6388  0.2738
11785TIP3   OH256845   4.623   5.807  15.925  0.7066 -0.0040  0.6124
11785TIP3    H156846   4.569   5.731  15.948  0.1919  0.6346  1.5374
11785TIP3    H256847   4.621   5.863  16.002  0.6204  1.2276 -0.2507
11786TIP3   OH256848   1.955   6.351  14.038 -0.0804 -0.0185 -0.4999
11786TIP3    H156849   1.901   6.411  13.987 -0.3794  1.0926  1.0625
11786TIP3    H256850   2.024   6.322  13.978  0.4032  2.3322 -1.1546
11787TIP3   OH256851   4.850   2.916  14.849 -0.5315 -0.2269 -0.7123
11787TIP3    H156852   4.860   2.988  14.787 -4.3363  2.3523  1.2837
11787TIP3    H256853   4.842   2.838  14.793  2.9344  0.8237 -2.9927
11788TIP3   OH256854   5.329   4.371   3.483  0.1725 -0.3932  0.3938
11788TIP3    H156855   5.361   4.458   3.461 -0.4906  0.2261  1.7691
11788TIP3    H256856   5.389   4.311   3.439  1.6479  0.7487  0.8077
11789TIP3   OH256857   1.747   3.446   1.138 -0.9826 -0.1092  0.4944
11789TIP3    H156858   1.809   3.379   1.165 -1.4051 -0.6978  0.0165
11789TIP3    H256859   1.762   3.518   1.200  0.1115 -0.2672  0.4334
11790TIP3   OH256860   1.092   3.283  15.036  0.1327  0.6403  0.6135
11790TIP3    H156861   1.108   3.189  15.022 -0.2302  0.6470  0.1180
11790TIP3    H256862   0.998   3.293  15.023  0.3649  1.3068 -0.8130
11791TIP3   OH256863   1.291   6.422  12.532  0.3741 -0.3987  0.6851
11791TIP3    H156864   1.310   6.512  12.505  0.3901 -0.5484  0.1910
11791TIP3    H256865   1.209   6.400  12.487  0.5503 -0.7500  0.5328
11792TIP3   OH256866   6.285   6.218   5.291 -0.3681  0.3877 -0.1137
11792TIP3    H156867   6.274   6.144   5.231 -1.0231 -1.1726  1.8525
11792TIP3    H256868   6.310   6.179   5.374 -0.8500  2.3858  1.0314
11793TIP3   OH256869   2.691   2.280   0.743 -0.7071  0.1146 -0.1151
11793TIP3    H156870   2.634   2.298   0.669 -1.8958 -1.2522  0.4159
11793TIP3    H256871   2.693   2.362   0.793 -0.8450  0.6788 -1.0107
11794TIP3   OH256872   5.565   4.240  13.413  0.3637  0.3287  0.3905
11794TIP3    H156873   5.615   4.216  13.491  1.0612 -0.4911 -0.2757
11794TIP3    H256874   5.631   4.274  13.352 -0.1388  0.7737  0.0868
11795TIP3   OH256875   6.462   5.540  12.089 -0.3674 -0.0434 -0.6038
11795TIP3    H156876   6.544   5.568  12.048 -0.9282  1.2782 -0.8703
11795TIP3    H256877   6.413   5.621  12.102 -1.3088 -0.7343  0.2699
11796TIP3   OH256878   4.937   6.517  14.469  0.1074  0.1065  0.6343
11796TIP3    H156879   4.870   6.555  14.412 -0.0030 -1.3579 -0.2597
11796TIP3    H256880   4.990   6.592  14.497 -0.1921  0.9467 -0.9239
11797TIP3   OH256881   1.513   3.714  12.369 -0.4234 -0.2389 -0.0566
11797TIP3    H156882   1.602   3.721  12.404 -0.9483  0.8486  1.1230
11797TIP3    H256883   1.496   3.800  12.330 -0.9310 -0.4716 -0.3565
11798TIP3   OH256884   1.555   4.257   6.074 -0.1009  0.3504 -0.2934
11798TIP3    H156885   1.644   4.233   6.049 -0.2145  0.7522 -1.1231
11798TIP3    H256886   1.508   4.173   6.080  0.4959  0.0852  0.8500
11799TIP3   OH256887   6.319   0.984  14.191 -0.2555 -0.3007 -0.3801
11799TIP3    H156888   6.401   1.023  14.222  1.1516 -3.1893 -0.1031
11799TIP3    H256889   6.266   0.974  14.270 -1.2810  2.2539 -0.6645
11800TIP3   OH256890   2.669   4.530   2.257  0.1358  0.4184  0.0731
11800TIP3    H156891   2.615   4.607   2.242 -0.7012  0.2518  1.9918
11800TIP3    H256892   2.616   4.457   2.224 -1.2294  0.1716  2.5940
11801TIP3   OH256893   0.062   2.850   0.110  0.3995  0.0968 -0.4907
11801TIP3    H156894   0.063   2.933   0.158 -1.1096  0.2330 -0.6528
11801TIP3    H256895   0.051   2.875   0.019 -0.5519 -0.2749 -0.4946
11802TIP3   OH256896   0.721   6.641  13.023 -0.1906  0.5027 -0.0114
11802TIP3    H156897   0.673   6.695  13.086 -2.1236  1.3489 -2.0606
11802TIP3    H256898   0.811   6.671  13.029 -0.3336  0.6516  2.1870
11803TIP3   OH256899   1.012   5.398   5.023  0.1370 -0.1478  0.0943
11803TIP3    H156900   0.991   5.438   4.939  0.0882  0.9149  0.5865
11803TIP3    H256901   1.010   5.304   5.007  1.5328  0.0456 -1.4275
11804TIP3   OH256902   0.077   0.986   5.716 -0.0039  0.6505 -0.1205
11804TIP3    H156903   0.120   1.069   5.738  0.0626  0.6509 -0.2556
11804TIP3    H256904   0.098   0.971   5.624  0.4515  0.1981  0.0529
11805TIP3   OH256905   5.454   6.640  15.988  0.4403 -0.5766 -0.2406
11805TIP3    H156906   5.398   6.717  16.003 -0.2184 -0.8958 -0.9792
11805TIP3    H256907   5.398   6.579  15.941  1.0911 -1.3539 -0.0176
11806TIP3   OH256908   3.232   2.813  11.000 -0.3559  0.4523  0.1592
11806TIP3    H156909   3.273   2.831  11.085 -1.3107  0.6644  0.5899
11806TIP3    H256910   3.160   2.753  11.020 -0.6025  0.5233 -0.4947
11807TIP3   OH256911   0.086   5.808  16.041 -0.1836  0.3546  0.0251
11807TIP3    H156912   0.040   5.770  16.116  2.2149  0.1653  1.5217
11807TIP3    H256913   0.073   5.902  16.050  0.7035  0.3908  1.1788
11808TIP3   OH256914   6.780   6.412  13.225  0.0186 -0.6330 -0.3733
11808TIP3    H156915   6.713   6.353  13.261 -0.1897 -0.9333 -1.2385
11808TIP3    H256916   6.854   6.404  13.285 -0.9956  0.3178  1.0744
11809TIP3   OH256917   4.385   4.142   5.790  0.2765  1.0337 -0.2331
11809TIP3    H156918   4.441   4.106   5.859 -2.3901 -0.7052  1.2350
11809TIP3    H256919   4.441   4.146   5.712  2.2643 -1.1135  0.9736
11810TIP3   OH256920   5.993   4.396  11.672 -0.0724 -0.1892 -0.0987
11810TIP3    H156921   6.058   4.458  11.705 -0.3482  1.2066 -2.0241
11810TIP3    H256922   5.928   4.389  11.741  2.3295 -2.1039  2.1690
11811TIP3   OH256923   0.859   4.284  12.354  0.0037  0.1560  0.4050
11811TIP3    H156924   0.841   4.375  12.329  0.7318  0.7698  1.9744
11811TIP3    H256925   0.950   4.285  12.385  1.0604 -1.7372 -2.2430
11812TIP3   OH256926   5.874   1.062  13.956 -0.2753 -0.4230  0.0754
11812TIP3    H156927   5.846   0.997  13.891 -0.7133  1.7740 -2.0997
11812TIP3    H256928   5.969   1.069  13.943 -0.1661 -0.8886  0.5906
11813TIP3   OH256929   0.867   2.596  16.823  0.5047 -0.0147 -0.1040
11813TIP3    H156930   0.872   2.527  16.889 -0.9379 -1.5880 -1.5317
11813TIP3    H256931   0.794   2.651  16.853 -0.0526 -0.6385 -0.2859
11814TIP3   OH256932   5.401   1.306   4.870 -0.3530 -0.2865 -0.0965
11814TIP3    H156933   5.450   1.224   4.880  1.2022  0.6387  0.2673
11814TIP3    H256934   5.408   1.327   4.777 -0.1556 -0.2236 -0.0687
11815TIP3   OH256935   6.636   1.898  16.495 -0.2993  0.5629  0.0317
11815TIP3    H156936   6.615   1.955  16.569 -1.6115  1.8959 -1.3091
11815TIP3    H256937   6.585   1.818  16.510 -0.2823  0.6839  0.7395
11816TIP3   OH256938   6.658   6.366   3.607  0.1420 -0.5515  0.5328
11816TIP3    H156939   6.667   6.450   3.651  0.1052  0.3146 -1.0454
11816TIP3    H256940   6.708   6.305   3.661 -1.0225  0.1512  2.4944
11817TIP3   OH256941   2.834   5.013  12.706 -0.6974  0.2283  0.0434
11817TIP3    H156942   2.827   5.059  12.622 -1.0499 -1.2542 -0.7736
11817TIP3    H256943   2.918   4.967  12.701 -0.4801  0.5388  0.7231
11818TIP3   OH256944   0.031   3.614   3.862 -0.4358 -0.1390  0.9919
11818TIP3    H156945   0.018   3.677   3.932 -0.1918 -0.5387  1.4014
11818TIP3    H256946   0.112   3.569   3.885 -0.9490 -1.0510  1.0534
11819TIP3   OH256947   5.980   0.473  12.952 -0.1224  0.1877  0.0528
11819TIP3    H156948   5.949   0.526  12.879 -0.0754  0.3429  0.1431
11819TIP3    H256949   6.001   0.537  13.020  3.3385  0.4217 -1.0262
11820TIP3   OH256950   1.032   2.444  12.110 -0.0227  0.1988 -0.2876
11820TIP3    H156951   1.038   2.399  12.026  1.3772 -0.1351 -0.0474
11820TIP3    H256952   1.014   2.535  12.088 -1.4814 -0.2077 -0.8475
11821TIP3   OH256953   4.241   3.116   3.250  0.0635  0.7048  0.0048
11821TIP3    H156954   4.165   3.084   3.203 -1.6525  0.4682  2.7240
11821TIP3    H256955   4.315   3.067   3.214 -1.5775 -1.6536 -0.3446
11822TIP3   OH256956   6.324   5.836   0.710 -0.3741  0.1690  0.2748
11822TIP3    H156957   6.385   5.782   0.760 -0.3122 -1.7024 -1.6867
11822TIP3    H256958   6.361   5.925   0.715  2.2159 -0.7838 -0.3561
11823TIP3   OH256959   6.700   2.701  13.068  0.1470  0.3669 -0.3116
11823TIP3    H156960   6.707   2.607  13.053  0.7704  0.4537 -0.5977
11823TIP3    H256961   6.759   2.740  13.003 -0.7394  0.9999 -0.7710
11824TIP3   OH256962   0.725   5.686  13.554 -0.4569 -0.2805  0.1819
11824TIP3    H156963   0.805   5.715  13.597 -1.3459  0.1707  1.6233
11824TIP3    H256964   0.715   5.594  13.580 -0.2882 -0.4040 -0.1874
11825TIP3   OH256965   4.243   0.212   3.598  0.2539  0.2088  0.1193
11825TIP3    H156966   4.148   0.225   3.603  0.0345 -1.2841  0.2088
11825TIP3    H256967   4.276   0.246   3.681 -0.4350 -0.9071  0.8807
11826TIP3   OH256968   3.005   0.116  15.575  0.2598  0.1355  0.1287
11826TIP3    H156969   3.088   0.091  15.536  1.3671  4.5669 -0.9578
11826TIP3    H256970   3.029   0.155  15.660 -0.9022 -0.0202  0.5504
11827TIP3   OH256971   6.500   0.186   2.832  0.3511  0.3106  0.0000
11827TIP3    H156972   6.539   0.170   2.918  1.2867 -1.4513 -0.6908
11827TIP3    H256973   6.479   0.279   2.832 -1.3205  0.0535  2.7742
11828TIP3   OH256974   5.384   5.326   1.232 -0.0109 -0.0574  0.0925
11828TIP3    H156975   5.380   5.264   1.305  0.0400 -2.1402 -1.5425
11828TIP3    H256976   5.477   5.349   1.225 -0.1994  1.2742  1.4940
11829TIP3   OH256977   6.209   5.351  15.378 -0.2709 -0.0107 -0.2563
11829TIP3    H156978   6.155   5.393  15.311 -0.5672 -0.0856 -0.0677
11829TIP3    H256979   6.224   5.263  15.346  0.7501  0.3781 -0.8799
11830TIP3   OH256980   2.166   1.548  11.372  0.3409 -0.0520 -0.1388
11830TIP3    H156981   2.198   1.458  11.379  0.5210  0.1171  1.7647
11830TIP3    H256982   2.213   1.595  11.441 -1.3900  0.9895  0.3821
11831TIP3   OH256983   3.417   5.137  15.209  0.1584 -0.3573 -0.2132
11831TIP3    H156984   3.416   5.050  15.169  0.9721 -0.5273  0.1155
11831TIP3    H256985   3.460   5.124  15.293 -0.4839  0.2140  0.2194
11832TIP3   OH256986   1.697   1.297   2.177 -0.8282 -0.1652  0.0425
11832TIP3    H156987   1.630   1.250   2.128 -1.1977 -0.7069  1.0280
11832TIP3    H256988   1.716   1.240   2.252 -0.0678  0.4975  0.3737
11833TIP3   OH256989   4.748   2.162   1.378  0.3126 -0.1986  0.2026
11833TIP3    H156990   4.703   2.170   1.462  0.1925 -0.9755  0.2229
11833TIP3    H256991   4.704   2.224   1.321  0.3581  0.2937  0.6989
11834TIP3   OH256992   3.311   0.118  10.486 -0.3165 -0.4061 -0.1231
11834TIP3    H156993   3.229   0.089  10.526 -0.7519  0.2397 -0.5390
11834TIP3    H256994   3.307   0.083  10.397  0.2731 -1.1300  0.1186
11835TIP3   OH256995   5.527   4.341  14.111  0.7075  0.0121 -0.1837
11835TIP3    H156996   5.580   4.403  14.162  0.8994 -1.0381  0.9229
11835TIP3    H256997   5.586   4.268  14.093  0.1858 -0.3113 -0.6026
11836TIP3   OH256998   5.729   3.150   2.662 -0.1691 -0.2740  0.2275
11836TIP3    H156999   5.768   3.195   2.587 -2.5774 -1.7444 -2.0951
11836TIP3    H257000   5.657   3.206   2.690  0.1168 -0.2023  0.8504
11837TIP3   OH257001   2.616   2.205  12.470 -0.0975  0.1885 -0.3943
11837TIP3    H157002   2.659   2.274  12.420 -0.4888 -0.2446 -1.3596
11837TIP3    H257003   2.674   2.188  12.544  0.8844  0.3001 -1.1278
11838TIP3   OH257004   4.108   5.904   2.190  0.4885  0.1768 -0.5300
11838TIP3    H157005   4.113   5.999   2.190  1.1295  0.1592  0.6021
11838TIP3    H257006   4.107   5.880   2.282  0.8262 -0.9343 -0.7979
11839TIP3   OH257007   1.499   0.428   4.311 -0.1439 -0.6094 -0.2041
11839TIP3    H157008   1.540   0.355   4.263  1.3638 -0.6960  1.1303
11839TIP3    H257009   1.534   0.421   4.400 -1.6347  0.4921  0.5147
11840TIP3   OH257010   3.379   2.461  15.208 -0.0903  0.7573  0.2011
11840TIP3    H157011   3.349   2.508  15.285 -2.4307  1.7719 -1.2220
11840TIP3    H257012   3.349   2.371  15.220  1.7967  0.2368  1.5569
11841TIP3   OH257013   5.949   1.668   3.093 -0.0787  0.1386  0.1246
11841TIP3    H157014   6.030   1.619   3.073  0.4993  1.0385  0.1916
11841TIP3    H257015   5.891   1.649   3.019  0.0564 -0.7834  0.2344
11842TIP3   OH257016   0.815   4.609  14.804 -0.4524 -0.3773  0.5978
11842TIP3    H157017   0.901   4.632  14.840  0.3123  0.8862 -1.8061
11842TIP3    H257018   0.773   4.558  14.873  2.0375 -0.6458  2.0359
11843TIP3   OH257019   5.699   0.922   1.335 -0.1999 -0.3132 -0.4340
11843TIP3    H157020   5.632   0.974   1.378 -0.0286  0.8846 -1.5309
11843TIP3    H257021   5.729   0.977   1.262  0.7889 -1.5003 -0.9719
11844TIP3   OH257022   0.915   1.565   1.925 -0.8001 -0.2728 -0.2566
11844TIP3    H157023   1.003   1.535   1.905 -1.1284 -1.6893  0.2823
11844TIP3    H257024   0.902   1.543   2.017 -1.4996  0.5030 -0.1475
11845TIP3   OH257025   4.820   3.035  15.842  0.5570 -0.4997 -0.2174
11845TIP3    H157026   4.870   3.018  15.922  1.5524 -0.7455 -0.8729
11845TIP3    H257027   4.871   2.995  15.773  0.6562  1.2773 -1.2330
11846TIP3   OH257028   3.401   2.609   3.816  0.0227 -0.1886 -0.1717
11846TIP3    H157029   3.419   2.668   3.889 -1.2053  1.5857 -1.2231
11846TIP3    H257030   3.483   2.562   3.802  0.9657  1.0842  0.8973
11847TIP3   OH257031   2.653   5.824  15.304 -0.1310  0.1206 -0.4960
11847TIP3    H157032   2.590   5.891  15.330 -0.1026  0.2399 -0.7362
11847TIP3    H257033   2.693   5.858  15.224  1.7110  1.0204  0.7397
11848TIP3   OH257034   0.894   6.354   3.264  0.2499 -0.0274 -0.2604
11848TIP3    H157035   0.799   6.357   3.255  0.3187  0.5266 -0.9141
11848TIP3    H257036   0.909   6.338   3.358 -0.5014  3.7018  0.6998
11849TIP3   OH257037   2.411   1.155  12.819  0.1990 -0.1347 -0.1525
11849TIP3    H157038   2.463   1.098  12.875  1.1822 -1.9381 -2.7276
11849TIP3    H257039   2.334   1.103  12.796  0.5587 -0.0441 -1.6457
11850TIP3   OH257040   5.721   6.608  11.024 -0.0132  0.0588  0.5586
11850TIP3    H157041   5.752   6.576  10.940 -0.0661  0.7156  0.2812
11850TIP3    H257042   5.661   6.540  11.055  0.5766 -0.5399  0.4257
11851TIP3   OH257043   3.432   1.303  14.697 -0.6668 -0.3159 -0.4728
11851TIP3    H157044   3.408   1.395  14.709  0.0507  0.0016 -1.4045
11851TIP3    H257045   3.434   1.290  14.602  1.1032 -0.7828 -0.4087
11852TIP3   OH257046   4.005   1.069   6.748 -0.4243  0.2620  0.4494
11852TIP3    H157047   4.006   1.121   6.828 -0.8256 -0.6569  1.0714
11852TIP3    H257048   3.935   1.005   6.761 -0.9748  0.5369 -0.9370
11853TIP3   OH257049   3.109   0.342  11.817  0.6232 -0.0608 -0.1441
11853TIP3    H157050   3.100   0.419  11.761  0.6093  0.5691  0.6904
11853TIP3    H257051   3.025   0.336  11.863 -0.0543 -1.6748 -1.5262
11854TIP3   OH257052   3.403   1.735  13.008  0.5874 -0.0291 -0.1040
11854TIP3    H157053   3.434   1.792  13.079 -0.2061  0.3569 -0.0591
11854TIP3    H257054   3.401   1.648  13.047 -1.9691  0.4755  1.0888
11855TIP3   OH257055   3.056   2.342  16.380 -0.0291  0.4910 -0.5967
11855TIP3    H157056   2.991   2.378  16.441 -1.1420 -0.4190 -1.1838
11855TIP3    H257057   3.094   2.267  16.427  0.8330  1.1993 -0.1404
11856TIP3   OH257058   3.374   1.314   5.455 -0.2755  0.4555 -0.1461
11856TIP3    H157059   3.435   1.252   5.416  1.1566  0.7357  1.5209
11856TIP3    H257060   3.288   1.274   5.441  0.5495 -1.6052  0.2979
11857TIP3   OH257061   0.432   3.427   5.651  0.2365 -0.2692  0.4497
11857TIP3    H157062   0.497   3.403   5.717  0.8628  0.0701 -0.0364
11857TIP3    H257063   0.458   3.379   5.572  0.9622  1.2353 -0.2647
11858TIP3   OH257064   4.910   2.036  16.965 -0.0459  0.4313  0.1999
11858TIP3    H157065   4.822   2.042  16.926 -0.8264  0.7565  1.9172
11858TIP3    H257066   4.893   2.017  17.057  1.6667  1.7783  0.8334
11859TIP3   OH257067   2.503   1.168  15.730  0.5069 -0.0307  0.4603
11859TIP3    H157068   2.585   1.179  15.682  0.7201  0.7467  0.9989
11859TIP3    H257069   2.464   1.255  15.732 -1.1708 -0.6617 -1.2385
11860TIP3   OH257070   4.099   1.225   2.213 -0.1871  0.5569 -0.8419
11860TIP3    H157071   4.045   1.178   2.277 -0.5476  0.1091 -1.4533
11860TIP3    H257072   4.184   1.234   2.255 -0.8671  1.7554  0.3603
11861TIP3   OH257073   2.930   5.824   1.856 -0.5782 -0.3319  0.6725
11861TIP3    H157074   2.993   5.752   1.868  1.0666  0.9739  0.1533
11861TIP3    H257075   2.889   5.806   1.772  1.2978  0.3656 -0.4480
11862TIP3   OH257076   4.310   2.979  16.382  0.1046  0.3402 -0.1465
11862TIP3    H157077   4.240   2.924  16.346 -1.0715  1.2795  0.6072
11862TIP3    H257078   4.267   3.030  16.450  1.7806  0.2140  1.0529
11863TIP3   OH257079   0.079   3.890  12.840 -0.2671 -0.3704 -0.2463
11863TIP3    H157080   0.129   3.962  12.879 -0.7797  0.3862 -0.9408
11863TIP3    H257081   0.107   3.889  12.748  0.6493 -1.8805  0.0312
11864TIP3   OH257082   4.435   1.913  13.524  0.2574 -0.9236 -0.1661
11864TIP3    H157083   4.401   1.989  13.478 -1.0310 -0.8351  0.8619
11864TIP3    H257084   4.495   1.949  13.589  0.3150 -0.8601 -0.2538
11865TIP3   OH257085   0.437   1.088   5.632  0.4297 -0.0184 -0.4919
11865TIP3    H157086   0.487   1.138   5.567  0.6079 -0.3203 -0.5847
11865TIP3    H257087   0.356   1.064   5.587  0.5108 -0.1435 -0.5704
11866TIP3   OH257088   6.247   5.715   5.268  0.1570 -0.5747  0.5427
11866TIP3    H157089   6.182   5.645   5.275  0.1928 -0.6126  0.4958
11866TIP3    H257090   6.227   5.757   5.184 -1.4005  1.0012  1.6367
11867TIP3   OH257091   6.346   6.109   3.732  0.3216 -0.1929  0.2737
11867TIP3    H157092   6.321   6.058   3.655  1.3497 -1.1313  0.5421
11867TIP3    H257093   6.300   6.067   3.805 -0.3718  0.4831  0.2527
11868TIP3   OH257094   4.622   6.077   2.581 -0.8072  0.3485 -0.2652
11868TIP3    H157095   4.603   6.041   2.494  0.0761  0.0624 -0.3501
11868TIP3    H257096   4.611   6.003   2.640  2.1022 -0.4583 -0.5624
11869TIP3   OH257097   2.304   1.267   5.535  0.1285  0.5580 -0.2106
11869TIP3    H157098   2.320   1.359   5.555  1.3414  0.3486 -0.1483
11869TIP3    H257099   2.227   1.268   5.477 -1.0078  1.4480  1.2556
11870TIP3   OH257100   0.836   1.417  15.344  0.0369  1.1925 -0.0639
11870TIP3    H157101   0.885   1.346  15.305  1.9610  1.3031  1.9602
11870TIP3    H257102   0.802   1.467  15.270 -0.0624 -0.9175 -1.5136
11871TIP3   OH257103   5.869   5.055  16.444  0.4298 -0.4196  0.3036
11871TIP3    H157104   5.910   4.978  16.484  1.1312 -1.0633 -1.5576
11871TIP3    H257105   5.787   5.066  16.493  1.1044 -1.2939  1.7193
11872TIP3   OH257106   0.387   2.942  16.320 -0.0635 -0.7152 -0.1611
11872TIP3    H157107   0.433   2.864  16.290  0.6749  0.0091 -0.9696
11872TIP3    H257108   0.397   3.005  16.249 -0.3435  0.2406  0.6137
11873TIP3   OH257109   5.182   0.882   0.720 -0.6515  0.1538 -0.6620
11873TIP3    H157110   5.135   0.963   0.701 -1.0939 -0.2882 -1.5174
11873TIP3    H257111   5.156   0.822   0.649 -0.4620 -0.7867  0.0473
11874TIP3   OH257112   6.227   0.249   2.833 -0.4797  0.5775 -0.3964
11874TIP3    H157113   6.173   0.191   2.887  0.4598  1.3197  1.4236
11874TIP3    H257114   6.301   0.195   2.806  0.6131  0.9664  1.6491
11875TIP3   OH257115   2.068   6.014  15.001  0.4697 -0.0673  0.5141
11875TIP3    H157116   2.074   6.108  15.018 -1.3395  0.1338  0.2771
11875TIP3    H257117   2.090   6.005  14.908  1.4977 -0.0023  0.7450
11876TIP3   OH257118   5.412   1.380   3.533 -0.1374  0.3441  0.2732
11876TIP3    H157119   5.486   1.435   3.508 -0.3934  0.1815 -0.8712
11876TIP3    H257120   5.430   1.295   3.493 -0.5660  0.0813  0.6266
11877TIP3   OH257121   5.341   0.969   6.747  0.3125 -0.0115  0.3514
11877TIP3    H157122   5.279   0.896   6.743 -0.2654  0.5110 -1.3084
11877TIP3    H257123   5.370   0.981   6.656 -0.8927  2.8466  0.2281
11878TIP3   OH257124   6.458   1.963   6.626 -0.2614  0.0057 -0.1351
11878TIP3    H157125   6.479   1.928   6.540  0.8093 -1.2210  0.5925
11878TIP3    H257126   6.449   1.886   6.682  0.6273  0.8150  1.1801
11879TIP3   OH257127   2.804   6.767   5.877  0.6025 -0.4389  0.0206
11879TIP3    H157128   2.763   6.844   5.836  0.2299 -0.5307  0.2135
11879TIP3    H257129   2.855   6.803   5.950  2.3719 -0.1261 -1.2968
11880TIP3   OH257130   2.607   4.768   0.908 -0.5438 -0.6025 -0.3089
11880TIP3    H157131   2.686   4.724   0.875 -0.4632 -0.6533 -0.0555
11880TIP3    H257132   2.541   4.699   0.910 -0.3203 -0.8031  0.4268
11881TIP3   OH257133   5.440   2.320  16.321  0.5606 -0.6280 -0.4062
11881TIP3    H157134   5.417   2.229  16.305  0.6990 -1.0049  1.2981
11881TIP3    H257135   5.463   2.323  16.414  2.0969  0.8213 -0.7677
11882TIP3   OH257136   4.497   0.373   2.691 -0.2387  0.2979  0.3440
11882TIP3    H157137   4.550   0.316   2.636  2.1041  1.5270  1.1692
11882TIP3    H257138   4.427   0.317   2.725  0.9144 -1.5940 -0.2833
11883TIP3   OH257139   3.495   1.906  11.693  0.0034 -0.0094  0.1388
11883TIP3    H157140   3.492   1.986  11.746  0.3762  1.2556 -1.6157
11883TIP3    H257141   3.428   1.921  11.625  0.1442 -1.1506 -0.2631
11884TIP3   OH257142   6.546   2.262   5.317 -0.3862  0.2168  0.0381
11884TIP3    H157143   6.584   2.298   5.237  2.2471  1.4654  1.6984
11884TIP3    H257144   6.620   2.218   5.360 -1.9029 -1.0887  1.4379
11885TIP3   OH257145   0.211   5.004   1.726  0.1953 -0.5844 -0.3712
11885TIP3    H157146   0.229   5.063   1.653 -0.3279 -0.2098 -0.2051
11885TIP3    H257147   0.160   5.057   1.787  0.6448 -0.8886  0.2733
11886TIP3   OH257148   4.744   4.943  11.747 -0.0217 -0.4564  0.8849
11886TIP3    H157149   4.688   4.866  11.744  0.9430 -1.2394  2.1553
11886TIP3    H257150   4.830   4.912  11.718  0.3104  0.1957  1.1392
11887TIP3   OH257151   3.080   5.103  11.802 -0.5072  0.1251  0.3653
11887TIP3    H157152   3.032   5.179  11.768 -0.8453 -0.7887 -1.3381
11887TIP3    H257153   3.033   5.027  11.766 -0.0712 -0.8987  1.8593
11888TIP3   OH257154   2.626   0.604  13.635  0.0133  0.1617 -0.5451
11888TIP3    H157155   2.721   0.608  13.619 -0.0232 -0.2236 -0.8527
11888TIP3    H257156   2.590   0.561  13.558 -0.4492  0.5511 -0.5511
11889TIP3   OH257157   4.299   5.513  12.429  0.3315  0.2961  0.1335
11889TIP3    H157158   4.368   5.454  12.459  1.2282  1.2993  0.0963
11889TIP3    H257159   4.303   5.587  12.489  0.1669  0.9684 -0.6678
11890TIP3   OH257160   0.650   4.396   2.353 -0.0665 -0.4812 -0.2942
11890TIP3    H157161   0.722   4.391   2.416  0.7825 -1.4659 -1.3006
11890TIP3    H257162   0.688   4.367   2.270 -1.4216 -0.2271 -1.0413
11891TIP3   OH257163   5.817   3.716   0.187 -0.2966 -0.0528 -0.2851
11891TIP3    H157164   5.910   3.713   0.167 -0.2472  1.7860 -0.5137
11891TIP3    H257165   5.793   3.625   0.203  2.0533 -0.3669  2.2363
11892TIP3   OH257166   0.406   2.045   1.281  0.2392 -0.1627  0.0288
11892TIP3    H157167   0.453   2.128   1.267  0.8238 -0.6894 -1.3633
11892TIP3    H257168   0.448   1.984   1.221 -1.4138 -0.9936 -0.3395
11893TIP3   OH257169   0.608   2.403  15.424 -0.5970 -0.3033 -0.0860
11893TIP3    H157170   0.525   2.437  15.456 -0.0926  1.4069 -0.5202
11893TIP3    H257171   0.634   2.338  15.490 -1.5849  0.1497  0.7737
11894TIP3   OH257172   6.329   0.443  15.740 -0.1961 -0.1878  0.1756
11894TIP3    H157173   6.338   0.484  15.654 -0.5562 -0.7676 -0.1446
11894TIP3    H257174   6.270   0.499  15.788  0.5934  0.5481  0.3072
11895TIP3   OH257175   0.184   0.981  12.162 -0.5871 -0.1424 -0.3795
11895TIP3    H157176   0.256   1.015  12.109  0.6406 -0.9000  0.7724
11895TIP3    H257177   0.108   1.031  12.131  0.7574  2.1969 -0.1920
11896TIP3   OH257178   0.679   1.115  15.787 -0.4569  0.3180  0.4784
11896TIP3    H157179   0.612   1.149  15.728 -2.3250 -1.9333  1.1809
11896TIP3    H257180   0.725   1.049  15.736  1.4333  1.9551 -0.0524
11897TIP3   OH257181   3.555   1.573   2.260 -0.5052  0.3809 -0.7929
11897TIP3    H157182   3.649   1.555   2.258 -0.6389 -0.2821 -1.3463
11897TIP3    H257183   3.525   1.553   2.172 -1.3873 -0.6290 -0.2811
11898TIP3   OH257184   0.203   3.521  15.652 -1.2831 -0.1619  0.2688
11898TIP3    H157185   0.285   3.517  15.702 -0.0054  1.0056 -1.6477
11898TIP3    H257186   0.190   3.431  15.621 -1.1443 -0.5080  1.1639
11899TIP3   OH257187   1.066   0.494  14.926  0.4859 -0.1535  0.5686
11899TIP3    H157188   1.020   0.510  14.844 -0.0306  2.6635  1.2975
11899TIP3    H257189   1.139   0.436  14.902 -0.4861 -0.5840 -1.5556
11900TIP3   OH257190   6.771   1.601   5.714  0.4002  0.4451 -0.6171
11900TIP3    H157191   6.794   1.563   5.630 -0.4251  0.9439 -1.0795
11900TIP3    H257192   6.821   1.682   5.718 -0.4791  1.0300 -1.1791
11901TIP3   OH257193   1.968   0.386  12.916 -0.4903  0.0892  0.2656
11901TIP3    H157194   2.014   0.466  12.940  0.8838 -0.3415 -0.7892
11901TIP3    H257195   1.946   0.345  13.000  0.4951  0.6332  0.8079
11902TIP3   OH257196   4.059   5.342  13.001  0.0057 -0.5377 -0.3016
11902TIP3    H157197   4.031   5.360  13.091 -0.5565 -3.4275  0.1996
11902TIP3    H257198   3.983   5.302  12.960  0.5608 -0.0858 -1.8166
11903TIP3   OH257199   5.797   1.483   6.246  0.2442  0.0858  0.0889
11903TIP3    H157200   5.892   1.492   6.248  0.3897 -1.2309  0.2339
11903TIP3    H257201   5.782   1.392   6.221 -0.9249 -0.2817  1.8823
11904TIP3   OH257202   6.723   2.163   0.158  0.4130 -0.0059 -0.6867
11904TIP3    H157203   6.813   2.131   0.163  0.0348 -1.0222 -0.2036
11904TIP3    H257204   6.713   2.194   0.068  0.5507 -1.9805 -1.4137
11905TIP3   OH257205   6.793   2.010  12.875  0.4251  0.3582 -0.0282
11905TIP3    H157206   6.857   2.021  12.945 -0.5381  0.6023  0.8295
11905TIP3    H257207   6.817   2.075  12.809  0.8620  0.6552  0.4225
11906TIP3   OH257208   4.179   5.305   4.212  0.2206  0.7334 -0.2463
11906TIP3    H157209   4.258   5.336   4.256  0.0407  1.6067 -0.5198
11906TIP3    H257210   4.212   5.256   4.137  0.5107  0.8676 -0.2107
11907TIP3   OH257211   4.536   6.608   5.248 -0.2685 -0.4020 -0.0968
11907TIP3    H157212   4.575   6.557   5.319 -0.2408 -2.0533 -1.2400
11907TIP3    H257213   4.461   6.651   5.287  1.8899  1.8869  1.8732
11908TIP3   OH257214   1.185   2.958   2.001  0.3580  0.1758 -0.2128
11908TIP3    H157215   1.239   2.929   1.927  0.5440  1.1794 -0.4877
11908TIP3    H257216   1.101   2.912   1.989  0.8062 -0.6241 -0.3410
11909TIP3   OH257217   5.128   6.397  12.728 -0.9041 -0.1917  0.5914
11909TIP3    H157218   5.153   6.457  12.658  1.2374 -1.3338  0.2783
11909TIP3    H257219   5.043   6.363  12.702 -0.5343  0.0479 -1.0490
11910TIP3   OH257220   1.277   3.633  16.760 -0.4133 -0.3283 -0.0738
11910TIP3    H157221   1.251   3.616  16.670  0.9416  0.0144 -0.5531
11910TIP3    H257222   1.196   3.630  16.810 -1.3186  0.4400 -1.4461
11911TIP3   OH257223   6.117   4.970   5.544 -0.5009 -0.6446  0.1113
11911TIP3    H157224   6.077   4.933   5.465  1.7788 -2.7313 -0.1894
11911TIP3    H257225   6.202   5.002   5.515 -0.1457 -0.2643  1.4928
11912TIP3   OH257226   2.064   2.337  11.991  0.0409  0.7996  0.5840
11912TIP3    H157227   2.012   2.300  11.920  0.5768 -1.1460  1.1394
11912TIP3    H257228   2.017   2.313  12.071  1.0445  0.1671  1.0180
11913TIP3   OH257229   5.795   1.619   0.509 -0.6157  0.2285 -0.7074
11913TIP3    H157230   5.787   1.528   0.536  0.1542  0.2394 -0.4025
11913TIP3    H257231   5.763   1.621   0.419 -0.5988 -0.3545 -0.7269
11914TIP3   OH257232   1.178   4.488   6.497 -0.4166 -0.3911 -0.0831
11914TIP3    H157233   1.244   4.555   6.480 -0.5878 -0.3270 -0.5113
11914TIP3    H257234   1.218   4.407   6.466 -0.5058 -0.3657 -0.2646
11915TIP3   OH257235   0.509   2.446   2.315  0.1866  0.0044 -0.0379
11915TIP3    H157236   0.420   2.479   2.308 -1.2133 -3.5609 -1.4848
11915TIP3    H257237   0.559   2.496   2.250 -1.0123  1.2451 -0.0364
11916TIP3   OH257238   5.587   6.211   5.818  0.3181 -0.3074 -0.3139
11916TIP3    H157239   5.631   6.152   5.756  0.1561 -0.4650 -0.2807
11916TIP3    H257240   5.570   6.290   5.768  1.8762  0.2936  0.0489
11917TIP3   OH257241   0.643   5.882  13.856 -0.6850 -0.2273  0.2726
11917TIP3    H157242   0.678   5.875  13.945 -0.7879  0.7007  0.3916
11917TIP3    H257243   0.582   5.956  13.859 -0.5996 -0.1062 -0.6039
11918TIP3   OH257244   0.789   0.042  14.789  0.8250  0.0923  0.6855
11918TIP3    H157245   0.771   0.016  14.880 -0.2475  1.3944  0.8779
11918TIP3    H257246   0.831   0.127  14.797  1.1627 -0.0049 -0.0370
11919TIP3   OH257247   2.252   4.214  15.220  0.3270 -0.3972 -0.1709
11919TIP3    H157248   2.276   4.299  15.184 -1.2003  0.6744  1.2049
11919TIP3    H257249   2.182   4.233  15.282 -1.4351 -2.8634 -1.2145
11920TIP3   OH257250   1.802   5.197  15.817  0.0971  0.0181  0.0014
11920TIP3    H157251   1.729   5.227  15.871 -0.2575  0.3649 -0.6601
11920TIP3    H257252   1.836   5.121  15.863  1.2344  1.5804  1.9292
11921TIP3   OH257253   0.740   1.642  11.012 -0.1396  0.1229 -0.2473
11921TIP3    H157254   0.689   1.637  10.931  0.7451  0.5619 -0.8601
11921TIP3    H257255   0.718   1.727  11.050 -0.9449 -0.3041  0.2481
11922TIP3   OH257256   5.720   5.665  13.052 -0.0703  0.1890  0.4820
11922TIP3    H157257   5.753   5.664  12.962  0.6001 -2.2461  0.6747
11922TIP3    H257258   5.644   5.723  13.049  0.9473  1.5333 -1.2328
11923TIP3   OH257259   4.378   3.911  13.349 -0.0270 -0.1714 -0.1810
11923TIP3    H157260   4.329   3.862  13.415 -1.3941  1.5121  0.1222
11923TIP3    H257261   4.465   3.871  13.349 -0.0404 -0.3557  2.4961
11924TIP3   OH257262   2.172   3.151  16.888 -0.2104 -0.4957  0.3371
11924TIP3    H157263   2.175   3.245  16.909 -0.0803  0.1175 -2.0847
11924TIP3    H257264   2.262   3.128  16.868 -0.6782 -0.0210 -2.9930
11925TIP3   OH257265   3.981   1.377   0.913 -0.4607 -0.3793 -0.2636
11925TIP3    H157266   3.983   1.450   0.974  1.3350 -1.8004  1.5321
11925TIP3    H257267   3.892   1.378   0.877 -0.7069  2.2013  0.2073
11926TIP3   OH257268   2.392   3.553   4.886 -0.1734  0.3275 -0.1691
11926TIP3    H157269   2.363   3.644   4.892 -0.7508  0.0717  2.1389
11926TIP3    H257270   2.443   3.549   4.805 -1.8131  2.1936 -1.4136
11927TIP3   OH257271   1.826   6.073  13.260 -0.5071  0.1954  0.2295
11927TIP3    H157272   1.789   6.145  13.209 -1.9244  0.2791  1.3059
11927TIP3    H257273   1.750   6.022  13.288  0.2605 -0.1928  1.7255
11928TIP3   OH257274   5.501   5.373  15.166 -0.1801 -0.1088  0.4596
11928TIP3    H157275   5.484   5.451  15.113  0.9387  0.3660  0.7827
11928TIP3    H257276   5.414   5.340  15.189 -0.6637  0.6850 -0.1939
11929TIP3   OH257277   4.301   1.316   0.277  0.1006  0.4298 -0.3192
11929TIP3    H157278   4.293   1.393   0.333 -0.4564 -0.2746  0.5928
11929TIP3    H257279   4.314   1.243   0.337  1.7637 -0.0828 -1.2006
11930TIP3   OH257280   6.674   5.095  13.317  0.1919  0.4601  0.0042
11930TIP3    H157281   6.698   5.054  13.234 -2.7263  2.1162 -1.8518
11930TIP3    H257282   6.664   5.022  13.378  1.4874 -0.9093 -1.3440
11931TIP3   OH257283   0.083   1.085   0.158 -0.3823 -0.0179  0.3165
11931TIP3    H157284   0.078   1.030   0.080 -0.4388  1.0569 -0.4649
11931TIP3    H257285   0.064   1.026   0.231  3.1526 -1.8929 -0.0637
11932TIP3   OH257286   3.693   3.760  12.438 -0.4176  0.1565  0.1384
11932TIP3    H157287   3.741   3.702  12.496  0.2026 -0.9178 -1.3747
11932TIP3    H257288   3.609   3.715  12.423 -0.7476  0.6345  0.5227
11933TIP3   OH257289   0.557   6.454   2.964 -0.5788  0.1432 -0.5722
11933TIP3    H157290   0.634   6.508   2.982  0.2616 -1.0859 -0.3377
11933TIP3    H257291   0.555   6.391   3.036 -2.7288  1.1126  0.2886
11934TIP3   OH257292   3.602   5.126   4.206 -0.0685 -0.1353 -0.0806
11934TIP3    H157293   3.566   5.070   4.274  0.8598 -0.0766  0.4806
11934TIP3    H257294   3.697   5.121   4.219  0.0989  0.3192 -1.0183
11935TIP3   OH257295   1.717   3.130  15.579 -0.2306 -0.1173 -1.0835
11935TIP3    H157296   1.698   3.041  15.549 -2.1302 -1.3910  3.1784
11935TIP3    H257297   1.766   3.118  15.660  0.1541  2.8106 -0.7720
11936TIP3   OH257298   0.545   3.301  16.484 -0.1945 -0.2121  0.8004
11936TIP3    H157299   0.515   3.374  16.430 -1.4724 -0.0486  1.6876
11936TIP3    H257300   0.610   3.339  16.543 -0.5361  0.1140  0.9644
11937TIP3   OH257301   5.377   0.422   4.554 -0.2023 -0.4887 -0.2552
11937TIP3    H157302   5.341   0.367   4.623 -1.6322  1.4631  0.6474
11937TIP3    H257303   5.315   0.494   4.546  1.6209  1.0515 -1.3249
11938TIP3   OH257304   3.328   1.307   0.569 -0.1260  0.3827 -0.1674
11938TIP3    H157305   3.339   1.268   0.656  0.5681  0.3412 -0.2608
11938TIP3    H257306   3.243   1.276   0.539 -0.1634  0.0127  0.3077
11939TIP3   OH257307   0.746   2.344  14.313  0.0160 -0.0243  0.4132
11939TIP3    H157308   0.795   2.398  14.251 -1.0108  0.1174 -0.2959
11939TIP3    H257309   0.747   2.395  14.394 -1.0133  1.1514 -0.2672
11940TIP3   OH257310   3.003   0.780   2.342 -0.2781  0.2968 -0.0099
11940TIP3    H157311   2.944   0.855   2.346 -0.2626  0.3483 -0.6227
11940TIP3    H257312   2.959   0.711   2.391 -0.5276  0.5513  0.1220
11941TIP3   OH257313   2.277   0.643  11.381  1.3383  0.0198  0.0787
11941TIP3    H157314   2.263   0.650  11.287  2.0721 -0.3656 -0.0656
11941TIP3    H257315   2.363   0.683  11.396  1.3037 -0.0735  0.5596
11942TIP3   OH257316   0.347   6.664  16.444  0.3042 -0.8254  0.2589
11942TIP3    H157317   0.372   6.743  16.397 -2.1761 -0.2865 -0.2884
11942TIP3    H257318   0.394   6.670  16.527  0.9099  0.7476 -0.1616
11943TIP3   OH257319   6.129   4.539   5.648  0.3879  0.1157 -0.2855
11943TIP3    H157320   6.047   4.558   5.603 -0.7677 -1.1590  1.1699
11943TIP3    H257321   6.103   4.487   5.725  2.6446 -1.2984 -0.3759
11944TIP3   OH257322   0.791   4.305   1.420  0.0084 -0.4376 -0.3281
11944TIP3    H157323   0.748   4.385   1.450 -0.1651 -0.0866 -1.4712
11944TIP3    H257324   0.875   4.335   1.384  0.2006 -0.8436 -0.2250
11945TIP3   OH257325   2.032   6.709   4.264 -0.0561 -0.5063  0.6656
11945TIP3    H157326   2.107   6.684   4.210 -0.0652 -0.8213  0.7968
11945TIP3    H257327   1.956   6.685   4.212 -0.0710  0.0256  0.4337
11946TIP3   OH257328   5.061   2.179   1.014  0.3880 -0.7001 -0.8690
11946TIP3    H157329   5.030   2.148   0.929 -1.0615 -0.6004 -0.4077
11946TIP3    H257330   5.005   2.133   1.078  0.6845  0.0854 -0.0217
11947TIP3   OH257331   4.506   5.684  11.789  0.0565 -0.0029  0.6794
11947TIP3    H157332   4.601   5.697  11.786  0.0386 -0.1264 -1.3162
11947TIP3    H257333   4.495   5.589  11.798  0.1506 -0.2662 -1.5727
11948TIP3   OH257334   0.900   0.834  11.335  0.1000  0.5402  0.9742
11948TIP3    H157335   0.812   0.805  11.358  1.4567 -3.9727  1.3189
11948TIP3    H257336   0.906   0.820  11.240  0.8818 -0.8341  1.1955
11949TIP3   OH257337   5.946   1.999   2.065  0.3012 -0.5553  0.3357
11949TIP3    H157338   6.018   2.052   2.031 -0.8988  2.2855  1.9579
11949TIP3    H257339   5.989   1.929   2.114  1.9603 -2.0908 -2.9523
11950TIP3   OH257340   1.371   5.456   4.173 -0.0659  0.2163 -0.6627
11950TIP3    H157341   1.396   5.546   4.152  1.0385  0.3807  1.1328
11950TIP3    H257342   1.403   5.443   4.262 -1.8773 -1.3530 -0.1838
11951TIP3   OH257343   0.033   6.785   5.305  0.4119 -0.5677 -0.1123
11951TIP3    H157344   0.025   6.858   5.243  0.8001 -0.1435  0.3349
11951TIP3    H257345   0.127   6.769   5.312  0.5318  0.6240  1.7716
11952TIP3   OH257346   2.854   3.807   5.825  0.6048  0.5464  0.3191
11952TIP3    H157347   2.768   3.766   5.842  0.3142  1.1653  0.3634
11952TIP3    H257348   2.915   3.733   5.823 -0.2612 -0.1896 -2.1822
11953TIP3   OH257349   1.539   0.206  16.255  0.0268  0.1055  1.1648
11953TIP3    H157350   1.496   0.274  16.306  1.0578  1.6168  0.0879
11953TIP3    H257351   1.484   0.196  16.177  0.5063  0.5443  0.7700
11954TIP3   OH257352   5.519   6.435   0.666  0.5825 -0.1532 -0.2532
11954TIP3    H157353   5.547   6.464   0.753 -0.6471  0.4815 -0.0452
11954TIP3    H257354   5.442   6.488   0.646 -0.3694 -1.6623 -0.8609
11955TIP3   OH257355   0.755   4.493  13.699  0.2356  0.7282  0.0871
11955TIP3    H157356   0.746   4.399  13.709 -0.8820  0.8978  0.7692
11955TIP3    H257357   0.846   4.505  13.671  0.8451 -0.4381  1.4501
11956TIP3   OH257358   0.375   4.202   1.969  0.5527  0.8276 -0.7355
11956TIP3    H157359   0.430   4.174   1.895  0.2192  0.7022 -0.9363
11956TIP3    H257360   0.286   4.200   1.935  0.3271  0.1320 -0.1475
11957TIP3   OH257361   4.432   4.698  10.974  0.3362 -0.5537  0.2877
11957TIP3    H157362   4.518   4.707  11.016  0.2671  0.2634  0.2803
11957TIP3    H257363   4.453   4.691  10.881  0.3535  2.0400  0.0050
11958TIP3   OH257364   6.056   3.204   6.224 -0.1175 -0.0458  0.2733
11958TIP3    H157365   6.041   3.118   6.184  0.2815 -0.3075  0.6755
11958TIP3    H257366   6.023   3.195   6.313 -1.7875  0.7969 -0.2230
11959TIP3   OH257367   0.978   1.918   3.672  0.4416  0.0433  0.1963
11959TIP3    H157368   1.009   1.992   3.724  1.4040  1.5583 -2.3339
11959TIP3    H257369   0.884   1.933   3.663  0.4983  0.5378  0.3650
11960TIP3   OH257370   5.124   2.371  16.226 -0.2966 -0.1209  0.3462
11960TIP3    H157371   5.143   2.326  16.308 -0.1315 -0.1679  0.2830
11960TIP3    H257372   5.106   2.462  16.253  0.0936 -0.0583  0.4032
11961TIP3   OH257373   0.172   4.857  15.253  0.2814  0.0582 -0.1237
11961TIP3    H157374   0.160   4.895  15.340  1.2776 -0.0847  0.0892
11961TIP3    H257375   0.085   4.862  15.213  0.2939  2.3473 -0.0296
11962TIP3   OH257376   0.481   2.581  12.222  0.9940 -0.1777 -0.4491
11962TIP3    H157377   0.555   2.539  12.267  0.3004  1.0495  2.0373
11962TIP3    H257378   0.460   2.657  12.276 -2.6368 -0.9337 -0.5332
11963TIP3   OH257379   2.001   0.082  12.860 -0.1347  0.5520 -0.3141
11963TIP3    H157380   1.997   0.055  12.952 -0.2370  0.7397 -0.2625
11963TIP3    H257381   1.988   0.177  12.862  0.6078  0.6678 -0.4611
11964TIP3   OH257382   4.552   0.074   2.738  0.1475 -0.4501 -0.3690
11964TIP3    H157383   4.583   0.084   2.829  0.3011  1.1638 -0.5612
11964TIP3    H257384   4.554  -0.020   2.722  2.4904 -0.6153  0.4918
11965TIP3   OH257385   1.363   1.156  14.311 -0.3644 -0.3339  0.3523
11965TIP3    H157386   1.379   1.245  14.280 -2.3581  0.0698  0.4052
11965TIP3    H257387   1.451   1.117  14.318  0.4183  0.9561 -1.5781
11966TIP3   OH257388   1.811   3.491   3.245  0.1233  0.0136 -0.0181
11966TIP3    H157389   1.809   3.398   3.268  0.4217  0.2823  1.2053
11966TIP3    H257390   1.787   3.494   3.153 -1.1984 -1.1601  0.2500
11967TIP3   OH257391   4.700   3.068   5.665 -0.2140  0.0949 -0.4493
11967TIP3    H157392   4.765   3.098   5.602 -1.7658  0.8960 -1.7226
11967TIP3    H257393   4.638   3.140   5.672 -0.2946 -0.1116  1.7574
11968TIP3   OH257394   1.407   1.445   0.093  0.3017 -0.4054 -0.8526
11968TIP3    H157395   1.379   1.460   0.183 -0.4012 -0.7536 -1.0061
11968TIP3    H257396   1.404   1.350   0.082 -0.8776 -0.2940 -1.6361
11969TIP3   OH257397   1.280   2.355  16.012 -0.1764  0.6518  0.1706
11969TIP3    H157398   1.209   2.310  16.057 -0.3639  0.8035  0.0280
11969TIP3    H257399   1.335   2.285  15.978  0.2895  0.5350  1.1328
11970TIP3   OH257400   4.552   4.750  11.660 -0.0864  0.0139  0.7070
11970TIP3    H157401   4.465   4.786  11.643  0.1615  0.4434  0.2915
11970TIP3    H257402   4.580   4.715  11.575  1.1035  2.0113  0.2159
11971TIP3   OH257403   0.569   4.149   1.760  0.3764  0.6958  0.3021
11971TIP3    H157404   0.602   4.120   1.675  0.5592 -0.1632  0.6508
11971TIP3    H257405   0.625   4.223   1.784 -0.6188  1.9230 -0.9780
11972TIP3   OH257406   2.264   0.434   0.403  0.1870 -0.3142  0.4765
11972TIP3    H157407   2.275   0.483   0.321  1.2679 -0.1107  0.7202
11972TIP3    H257408   2.339   0.460   0.456 -0.2985 -0.7392  1.3889
11973TIP3   OH257409   2.128   1.350  15.117 -0.4938  0.9345 -0.4742
11973TIP3    H157410   2.145   1.378  15.207 -0.2707 -2.1027  0.5497
11973TIP3    H257411   2.034   1.330  15.117  0.0896 -2.4343  0.2809
11974TIP3   OH257412   4.156   5.327  11.106  0.1972 -0.5137 -0.0121
11974TIP3    H157413   4.141   5.372  11.023  1.2140 -1.5763 -0.8047
11974TIP3    H257414   4.124   5.238  11.091  1.0291 -0.9039  0.5080
11975TIP3   OH257415   4.032   1.434  17.052 -0.1955  0.2860 -0.3610
11975TIP3    H157416   4.047   1.343  17.028  1.1038  0.4107 -0.0738
11975TIP3    H257417   4.117   1.466  17.082 -1.0237  1.0531  1.3241
11976TIP3   OH257418   6.038   2.826   0.008  0.2116  0.4008  0.2271
11976TIP3    H157419   6.124   2.795  -0.021 -0.2308 -0.1021 -0.5907
11976TIP3    H257420   5.976   2.785  -0.053 -0.6975 -0.0781  1.4318
11977TIP3   OH257421   4.365   0.677  12.674 -0.8476 -0.0410 -0.4068
11977TIP3    H157422   4.399   0.764  12.650  0.3318 -0.3258  0.1282
11977TIP3    H257423   4.374   0.674  12.770 -1.6091 -0.4625 -0.3458
11978TIP3   OH257424   2.977   2.856  12.073 -0.0762 -0.1258  0.4772
11978TIP3    H157425   2.914   2.792  12.106 -0.3023 -0.0724  0.1549
11978TIP3    H257426   3.034   2.875  12.147 -1.0127  0.5326  1.0476
11979TIP3   OH257427   0.297   1.671  16.297  0.2992  0.5365  0.2270
11979TIP3    H157428   0.310   1.602  16.362 -1.5238  0.7151  0.8460
11979TIP3    H257429   0.259   1.626  16.222  1.2494  0.5326 -0.2678
11980TIP3   OH257430   1.126   6.638  16.003  0.4928 -0.3690  0.1390
11980TIP3    H157431   1.074   6.713  16.031 -1.0359 -1.1564 -0.4665
11980TIP3    H257432   1.212   6.651  16.044  1.0720  2.8869 -1.7221
11981TIP3   OH257433   1.808   3.182  14.544  0.3014 -0.1387  0.0741
11981TIP3    H157434   1.815   3.149  14.634 -1.5630 -0.9794 -0.0321
11981TIP3    H257435   1.739   3.128  14.505  0.4779  0.7997 -1.5952
11982TIP3   OH257436   6.697   2.051   0.658 -0.0260  0.1228 -0.0183
11982TIP3    H157437   6.660   1.964   0.674 -0.0462  0.4321  1.7202
11982TIP3    H257438   6.791   2.036   0.649 -0.0601 -0.0993 -0.0281
11983TIP3   OH257439   1.402   5.587  12.694 -0.0163  0.1304 -0.0780
11983TIP3    H157440   1.461   5.527  12.647  0.4896  1.1481 -0.8124
11983TIP3    H257441   1.438   5.674  12.674 -0.6538  0.6684  1.0531
11984TIP3   OH257442   3.694   4.806   3.477  0.0437  0.1556 -0.3252
11984TIP3    H157443   3.665   4.897   3.466  0.2806  0.4832  1.4370
11984TIP3    H257444   3.758   4.810   3.548  0.3457 -1.3493 -0.4806
11985TIP3   OH257445   1.750   5.258   2.127  0.1552  0.1359 -0.0428
11985TIP3    H157446   1.843   5.276   2.135  0.2701 -0.8947  1.3765
11985TIP3    H257447   1.711   5.303   2.202 -0.1649 -1.3440  0.7091
11986TIP3   OH257448   4.899   2.437  11.971  0.4160 -0.6654 -0.2835
11986TIP3    H157449   4.978   2.449  12.022 -0.8751 -1.4713  2.0683
11986TIP3    H257450   4.829   2.433  12.036 -1.5940  0.1325 -2.2612
11987TIP3   OH257451   1.697   1.642  13.500  0.3697  0.0774  0.1282
11987TIP3    H157452   1.683   1.628  13.407  1.7390  0.7380 -0.2115
11987TIP3    H257453   1.746   1.565  13.529  0.8136  0.3292  0.0639
11988TIP3   OH257454   5.565   4.196  15.804  0.6636 -0.4039 -0.4026
11988TIP3    H157455   5.486   4.143  15.786 -0.5288  0.7303  1.1974
11988TIP3    H257456   5.614   4.143  15.867 -0.3094  0.1496  0.8598
11989TIP3   OH257457   1.861   6.157  11.313  0.2021 -0.3439 -0.2539
11989TIP3    H157458   1.787   6.104  11.343  0.6042 -1.3578 -0.9995
11989TIP3    H257459   1.933   6.134  11.372  0.2266 -0.1926 -0.2230
11990TIP3   OH257460   0.827   5.308  15.085 -0.1479  0.5324 -0.4838
11990TIP3    H157461   0.902   5.268  15.129 -0.6430 -0.7904 -0.8010
11990TIP3    H257462   0.844   5.402  15.089  2.9286  0.2067 -3.0204
11991TIP3   OH257463   6.531   5.682  16.105 -0.0154 -0.2229 -0.1759
11991TIP3    H157464   6.507   5.596  16.140  1.8454 -0.3963  0.7838
11991TIP3    H257465   6.547   5.735  16.183  1.1813  0.2921 -0.7492
11992TIP3   OH257466   3.091   2.765   1.669 -0.5845 -0.0109  0.0096
11992TIP3    H157467   3.165   2.734   1.721  0.0586  2.4866  0.7034
11992TIP3    H257468   3.084   2.701   1.597  1.8914 -0.6294  0.2322
11993TIP3   OH257469   4.587   6.096  12.781  0.1569  0.1784  0.0101
11993TIP3    H157470   4.537   6.173  12.755  2.1899  1.6050  0.1068
11993TIP3    H257471   4.621   6.117  12.868  0.0865 -1.1853  0.3932
11994TIP3   OH257472   3.752   5.465  16.978  0.3822 -0.6961 -0.1685
11994TIP3    H157473   3.698   5.387  16.978  0.8298 -1.0404  1.0992
11994TIP3    H257474   3.827   5.443  16.922 -0.0996 -0.7133 -0.8149
11995TIP3   OH257475   0.212   1.024   1.730 -0.2421  0.3962  0.0542
11995TIP3    H157476   0.256   1.104   1.700 -1.2153  0.9830  0.1411
11995TIP3    H257477   0.165   1.052   1.809 -0.2548 -0.3727  0.3265
11996TIP3   OH257478   2.326   5.192  13.814  1.0726 -0.7104  0.1249
11996TIP3    H157479   2.368   5.180  13.899  0.3942 -2.5737  0.2488
11996TIP3    H257480   2.268   5.267  13.826  2.0812 -0.0248  0.8425
11997TIP3   OH257481   3.800   4.494   4.718  0.2069 -0.3765  0.0664
11997TIP3    H157482   3.823   4.427   4.782 -0.1959  0.8943  1.6390
11997TIP3    H257483   3.705   4.501   4.724  0.2798  0.6671  0.3297
11998TIP3   OH257484   1.892   1.972  12.709 -0.4508 -0.2785 -0.3998
11998TIP3    H157485   1.865   1.881  12.724  0.7431 -0.6252 -0.2375
11998TIP3    H257486   1.833   2.003  12.640 -0.7451 -1.2309 -0.6050
11999TIP3   OH257487   3.016   6.003   3.779  0.3251  0.5621 -0.3097
11999TIP3    H157488   2.954   6.000   3.851  0.9155  0.9085  0.2230
11999TIP3    H257489   2.961   6.007   3.700 -0.3224  0.1390  0.1096
12000TIP3   OH257490   6.580   1.285  13.536  0.2059  0.5332 -0.4277
12000TIP3    H157491   6.659   1.231  13.537  1.4331  2.0524  3.3628
12000TIP3    H257492   6.511   1.228  13.571 -0.0622 -0.2965 -2.2021
12001TIP3   OH257493   4.340   5.849  13.543 -0.0570 -0.3121  0.6057
12001TIP3    H157494   4.288   5.838  13.623 -0.3086  1.9827  0.8456
12001TIP3    H257495   4.310   5.932  13.506  3.0217  0.9024  0.4864
12002TIP3   OH257496   1.962   3.944   2.603  0.4505 -0.4071 -0.4850
12002TIP3    H157497   1.880   3.953   2.652  0.9656 -1.6929  0.6733
12002TIP3    H257498   1.950   3.864   2.552  1.2935 -1.0983  0.3647
12003TIP3   OH257499   1.736   3.800  13.162  0.1548  0.4692  0.4424
12003TIP3    H157500   1.795   3.874  13.182  1.1792  0.2896 -1.6352
12003TIP3    H257501   1.721   3.807  13.068  0.8078 -2.3263  0.0366
12004TIP3   OH257502   0.113   0.096   1.085 -0.0798 -0.3962 -0.0510
12004TIP3    H157503   0.165   0.174   1.067 -1.3364  0.7878  1.1477
12004TIP3    H257504   0.137   0.072   1.175 -1.8248  0.4230  0.6849
12005TIP3   OH257505   2.756   1.509   0.844  0.5601  0.3878  0.1184
12005TIP3    H157506   2.823   1.568   0.881 -0.4434  1.7841 -0.2174
12005TIP3    H257507   2.692   1.567   0.805 -0.3200 -0.9695 -0.5294
12006TIP3   OH257508   0.485   5.464  16.014 -0.1208 -0.0703 -0.0812
12006TIP3    H157509   0.474   5.369  16.025  0.0379 -0.2501 -1.3265
12006TIP3    H257510   0.400   5.501  16.037  0.0033 -0.4514  1.0401
12007TIP3   OH257511   2.658   2.029  13.478 -0.1606  1.2262  0.0018
12007TIP3    H157512   2.611   2.044  13.396  0.0199 -0.5413 -0.4673
12007TIP3    H257513   2.744   2.067  13.465 -0.5479  2.0924 -0.1279
12008TIP3   OH257514   5.490   4.834  12.812  0.5505  0.5215 -0.1717
12008TIP3    H157515   5.400   4.803  12.827 -0.3720  3.2721  0.8062
12008TIP3    H257516   5.492   4.858  12.719  0.4731 -0.0799 -0.3327
12009TIP3   OH257517   2.159   1.990   4.163 -0.0095  0.1426  0.3570
12009TIP3    H157518   2.078   2.040   4.147 -0.0869  0.1353  0.7243
12009TIP3    H257519   2.214   2.050   4.213 -0.2053 -0.2318  1.0316
12010TIP3   OH257520   3.159   3.558  11.329  0.1082  0.1788 -0.0764
12010TIP3    H157521   3.133   3.560  11.421 -0.5890 -2.7314 -0.1032
12010TIP3    H257522   3.194   3.469  11.317 -0.3371  0.2943 -2.7417
12011TIP3   OH257523   4.062   6.010   4.398 -0.2388  0.2187  0.1557
12011TIP3    H157524   4.095   6.091   4.358 -1.4764  0.1169 -1.1465
12011TIP3    H257525   4.057   6.030   4.492 -1.8497  2.2044 -0.2662
12012TIP3   OH257526   0.771   0.635   1.744 -0.6616  0.6376 -0.1024
12012TIP3    H157527   0.704   0.570   1.763 -0.6494  0.9590  1.1643
12012TIP3    H257528   0.779   0.685   1.826  1.9594 -0.1428  0.2194
12013TIP3   OH257529   1.341   2.116   2.761  0.5407  0.5552  0.7170
12013TIP3    H157530   1.340   2.106   2.856 -0.1077 -2.1008  0.4990
12013TIP3    H257531   1.272   2.059   2.730  1.1481  0.8879 -1.4090
12014TIP3   OH257532   5.760   3.721  13.387 -0.3869 -0.5148  0.0787
12014TIP3    H157533   5.853   3.731  13.411 -0.5798 -0.4488  0.8142
12014TIP3    H257534   5.751   3.629  13.365 -0.1663 -0.5402  0.0900
12015TIP3   OH257535   2.188   0.633   1.507  0.3161  0.3950  0.2470
12015TIP3    H157536   2.116   0.673   1.555  1.1967  0.1468  1.8243
12015TIP3    H257537   2.226   0.570   1.568  1.5152  0.1067 -0.7584
12016TIP3   OH257538   4.084   1.097   0.253  0.3656  0.6698 -0.4651
12016TIP3    H157539   4.043   1.021   0.211  1.7735 -1.0075  1.0383
12016TIP3    H257540   4.011   1.157   0.269 -1.2921 -1.4798  0.6025
12017TIP3   OH257541   5.301   6.173   4.725 -0.4402  0.4740  0.1127
12017TIP3    H157542   5.335   6.252   4.767 -0.7719  0.9582 -0.5115
12017TIP3    H257543   5.301   6.107   4.794  1.8206  0.4265  0.1341
12018TIP3   OH257544   3.106   4.274   4.892 -0.3477 -0.0450  0.0500
12018TIP3    H157545   3.029   4.323   4.921 -0.2763 -0.7181  1.4844
12018TIP3    H257546   3.095   4.187   4.931  2.0875  0.4257  2.0257
12019TIP3   OH257547   0.036   5.494   5.478 -0.2493  0.2078  0.1438
12019TIP3    H157548   0.028   5.589   5.478  1.9913  0.4884  2.0110
12019TIP3    H257549  -0.054   5.462   5.476 -1.1461  2.1641 -4.6084
12020TIP3   OH257550   4.214   4.527   5.341  0.5864  0.2038  0.4103
12020TIP3    H157551   4.269   4.605   5.351  1.7866 -0.5641 -0.0008
12020TIP3    H257552   4.220   4.482   5.425 -0.3516  0.6911  0.7517
12021TIP3   OH257553   4.482   2.853   4.620  0.0060 -0.0751  0.6899
12021TIP3    H157554   4.560   2.840   4.673 -0.6744 -0.2353  1.6897
12021TIP3    H257555   4.474   2.773   4.568  0.4652 -0.0844  0.6308
12022TIP3   OH257556   4.080   5.067  12.834  0.9579 -0.5421 -0.0659
12022TIP3    H157557   4.152   5.129  12.845  1.8588 -1.8731  2.2422
12022TIP3    H257558   4.026   5.080  12.913 -0.8594 -0.2278 -1.2908
12023TIP3   OH257559   6.095   4.375  13.405  0.4278 -0.0389  0.3805
12023TIP3    H157560   6.065   4.466  13.403  1.6688  0.3842  0.5835
12023TIP3    H257561   6.186   4.380  13.433  1.0129 -1.2344 -1.2035
12024TIP3   OH257562   0.480   1.786  14.616  0.0915  0.1467 -0.2918
12024TIP3    H157563   0.521   1.860  14.572 -1.4467 -0.6066 -3.2388
12024TIP3    H257564   0.553   1.731  14.645  1.1859  1.1184 -1.1441
12025TIP3   OH257565   3.775   4.923  13.984  0.4667 -0.2625  0.1207
12025TIP3    H157566   3.684   4.900  13.963  0.1907  0.5179  0.4344
12025TIP3    H257567   3.783   5.015  13.958  0.1952  0.6768  3.0519
12026TIP3   OH257568   2.172   6.684   1.703  0.3460 -0.0387 -0.0442
12026TIP3    H157569   2.235   6.668   1.633 -1.5653 -0.5414 -1.7425
12026TIP3    H257570   2.139   6.772   1.687  0.4657  0.1522  0.7148
12027TIP3   OH257571   0.536   3.179   0.602 -1.0466 -0.4123 -0.3038
12027TIP3    H157572   0.514   3.086   0.597  1.6448 -1.2837  1.4377
12027TIP3    H257573   0.535   3.199   0.695 -1.4136  1.2856 -0.6424
12028TIP3   OH257574   0.522   1.787  13.325 -0.3106 -0.2787 -0.0169
12028TIP3    H157575   0.532   1.843  13.402  0.9734  1.0507 -1.0730
12028TIP3    H257576   0.429   1.795  13.302 -0.5207 -0.0028  0.8956
12029TIP3   OH257577   5.896   1.629   1.023 -0.6328 -0.6748  0.1629
12029TIP3    H157578   5.911   1.649   0.931 -0.6522  1.3282  0.5421
12029TIP3    H257579   5.826   1.564   1.023  0.7268 -2.2326 -1.2712
12030TIP3   OH257580   2.484   6.770  15.687  0.1443  0.0125  0.4153
12030TIP3    H157581   2.550   6.733  15.745  0.2011 -1.0854 -0.3327
12030TIP3    H257582   2.497   6.865  15.693  0.3734 -0.0949  1.9078
12031TIP3   OH257583   2.963   4.637  16.687  0.2798  0.4575 -0.2415
12031TIP3    H157584   2.949   4.656  16.780 -1.4328 -1.3234 -0.0558
12031TIP3    H257585   2.959   4.723  16.644  0.4716  1.2463  1.2516
12032TIP3   OH257586   1.873   3.336  11.763 -0.2617 -0.1889  0.5961
12032TIP3    H157587   1.925   3.280  11.706  0.1333 -0.4460  1.2031
12032TIP3    H257588   1.937   3.392  11.808 -0.6232  0.5246  0.2518
12033TIP3   OH257589   6.815   5.905  11.632 -0.0471  0.1409  0.1688
12033TIP3    H157590   6.747   5.936  11.572 -2.1000  0.7300  2.6369
12033TIP3    H257591   6.848   5.984  11.675  1.3613 -0.2675 -0.0989
12034TIP3   OH257592   4.816   2.004   4.854 -0.0153  0.3545  0.4256
12034TIP3    H157593   4.751   1.935   4.868 -1.6420  1.7031 -0.1386
12034TIP3    H257594   4.878   1.966   4.791 -2.4470  0.3057 -2.1042
12035TIP3   OH257595   3.813   5.800  10.824 -0.7589 -0.0746  0.4486
12035TIP3    H157596   3.897   5.770  10.859 -1.0894 -0.6967  0.7034
12035TIP3    H257597   3.794   5.740  10.752 -0.4550  0.7369 -0.3350
12036TIP3   OH257598   5.411   5.137  11.248 -0.3896 -0.0701 -0.5531
12036TIP3    H157599   5.435   5.045  11.236 -0.3902  0.1268 -2.2285
12036TIP3    H257600   5.416   5.175  11.161 -1.0698  1.3734  0.0042
12037TIP3   OH257601   4.935   4.290  13.642  0.1032  0.6666 -0.2888
12037TIP3    H157602   4.964   4.251  13.560  2.1443 -1.1289  1.1476
12037TIP3    H257603   4.847   4.255  13.656  1.2735 -2.4038  0.1735
12038TIP3   OH257604   5.525   2.768   4.467 -0.6262  0.7737 -0.3710
12038TIP3    H157605   5.581   2.710   4.416  0.2755  1.4084 -0.1249
12038TIP3    H257606   5.507   2.841   4.409  1.4468  2.1250  0.5713
12039TIP3   OH257607   2.713   1.698  12.958  0.0982  0.3911  0.5662
12039TIP3    H157608   2.777   1.766  12.935 -0.9274  0.9634 -0.7381
12039TIP3    H257609   2.647   1.744  13.009 -0.4389  0.3383 -0.0595
12040TIP3   OH257610   0.983   5.803  10.297 -0.4079 -0.1075  0.3041
12040TIP3    H157611   1.078   5.796  10.293 -0.4005  0.4725 -1.1469
12040TIP3    H257612   0.952   5.756  10.220 -1.3352 -0.6382  0.9761
12041TIP3   OH257613   4.780   4.839   3.393  0.1761  0.1096  0.1372
12041TIP3    H157614   4.711   4.772   3.400  0.2437 -0.0283 -0.4510
12041TIP3    H257615   4.805   4.856   3.484 -0.4266 -0.0531  0.3434
12042TIP3   OH257616   6.799   0.202   0.442  0.1157  0.4272 -0.8914
12042TIP3    H157617   6.852   0.124   0.422  0.7818  0.4061  0.8076
12042TIP3    H257618   6.755   0.180   0.524  1.8078  2.5287  0.6796
12043TIP3   OH257619   6.482   5.979  12.483  0.2273 -0.3884 -0.0255
12043TIP3    H157620   6.530   5.970  12.401  0.0344  0.0246 -0.1878
12043TIP3    H257621   6.499   5.898  12.530  0.2308 -0.6841 -0.5302
12044TIP3   OH257622   4.955   1.368   0.390  0.0634 -0.5195 -0.3366
12044TIP3    H157623   4.904   1.314   0.329 -1.3429  0.7681 -0.3780
12044TIP3    H257624   5.036   1.320   0.403  0.3032 -1.0072 -3.0152
12045TIP3   OH257625   5.694   2.060  12.195  0.1845  0.1550  0.3630
12045TIP3    H157626   5.783   2.074  12.165 -0.2048 -0.0532 -0.9860
12045TIP3    H257627   5.696   2.076  12.289  1.2501  1.9574  0.0600
12046TIP3   OH257628   5.108   0.135  11.544 -0.0899  0.0461  0.6946
12046TIP3    H157629   5.075   0.062  11.596  1.3937 -0.8396  0.4789
12046TIP3    H257630   5.176   0.095  11.488  0.6299  1.5511  0.4413
12047TIP3   OH257631   5.914   2.562   0.898 -0.0941 -0.0559  0.2246
12047TIP3    H157632   5.961   2.645   0.906 -0.8511  0.4557 -0.4336
12047TIP3    H257633   5.892   2.538   0.988  2.1423 -0.7743  0.6526
12048TIP3   OH257634   3.170   5.083   6.159 -0.3469 -0.6020  0.5798
12048TIP3    H157635   3.251   5.102   6.112 -0.6280 -1.2456 -0.1869
12048TIP3    H257636   3.159   5.157   6.220  0.5741 -0.2914  0.3802
12049TIP3   OH257637   3.723   4.992  11.062  0.4526 -0.3007 -0.3897
12049TIP3    H157638   3.698   5.071  11.109 -0.9227  0.8852 -2.9063
12049TIP3    H257639   3.643   4.939  11.058  1.1742 -1.5217  0.6480
12050TIP3   OH257640   6.583   5.363   0.212 -0.3878  0.9456  0.5343
12050TIP3    H157641   6.531   5.438   0.240 -1.1734  0.5218  0.2499
12050TIP3    H257642   6.615   5.324   0.293  1.1798  2.3670  0.6460
12051TIP3   OH257643   1.071   3.572  16.296  0.3301  0.1271 -0.1576
12051TIP3    H157644   1.089   3.495  16.240  1.8263  0.1044  0.3189
12051TIP3    H257645   1.063   3.644  16.234 -1.6397 -0.4585 -0.6625
12052TIP3   OH257646   2.994   1.646  14.637 -0.3233 -0.8266 -0.0870
12052TIP3    H157647   3.084   1.637  14.668 -0.5458 -2.6944  0.1578
12052TIP3    H257648   2.987   1.737  14.608  0.9783 -0.0272  1.9115
12053TIP3   OH257649   1.803   4.179  12.427 -0.2361 -0.2766 -0.4005
12053TIP3    H157650   1.866   4.146  12.363 -0.0924 -0.3529 -0.2175
12053TIP3    H257651   1.794   4.272  12.406  1.5611  0.2551  0.9204
12054TIP3   OH257652   2.589   1.456   3.430  0.4152  0.3537  0.4012
12054TIP3    H157653   2.684   1.443   3.436  0.6000  1.3828 -0.0114
12054TIP3    H257654   2.557   1.439   3.518  0.7881 -1.3252  0.2439
12055TIP3   OH257655   0.132   6.782   0.359 -0.4270 -0.0922  0.4472
12055TIP3    H157656   0.060   6.736   0.402  0.7729 -0.4035  2.2428
12055TIP3    H257657   0.207   6.725   0.371  1.1950  2.3065  3.0323
12056TIP3   OH257658   0.401   1.767   4.591  0.2448  0.1142 -0.0155
12056TIP3    H157659   0.399   1.682   4.546  1.5607 -0.4598  0.9331
12056TIP3    H257660   0.427   1.830   4.524  0.0622 -0.3702 -0.5423
12057TIP3   OH257661   3.926   1.309   2.649 -0.2768 -0.2170 -0.5850
12057TIP3    H157662   3.893   1.331   2.562  0.6972  0.2201 -0.8527
12057TIP3    H257663   3.972   1.226   2.637  0.4330  0.1791 -0.6327
12058TIP3   OH257664   0.758   0.321  16.283  0.3819  0.6156 -0.5025
12058TIP3    H157665   0.786   0.231  16.270 -1.6057 -0.3781  1.4127
12058TIP3    H257666   0.679   0.330  16.230 -0.2146  0.7372  0.3702
12059TIP3   OH257667   3.168   3.723   4.371  0.6159 -0.3696  0.1223
12059TIP3    H157668   3.144   3.721   4.464  1.1128  0.0811  0.2687
12059TIP3    H257669   3.134   3.807   4.340  2.8284  0.7679  0.5845
12060TIP3   OH257670   4.672   2.678   2.203 -0.1693 -0.5253  0.3782
12060TIP3    H157671   4.689   2.711   2.115 -1.3154  1.7579  0.9208
12060TIP3    H257672   4.749   2.704   2.254  1.2656 -3.2824 -0.1880
12061TIP3   OH257673   2.491   6.751   3.471 -0.1329 -0.1673  0.6726
12061TIP3    H157674   2.503   6.809   3.395 -2.5121  1.2662  1.2860
12061TIP3    H257675   2.563   6.773   3.530  1.8041 -1.3468 -1.0931
12062TIP3   OH257676   3.819   6.426  17.018  0.1519 -0.3469 -0.1669
12062TIP3    H157677   3.901   6.457  17.056  0.0262 -2.0723  1.6068
12062TIP3    H257678   3.830   6.332  17.008 -1.9858 -0.8180  1.2102
12063TIP3   OH257679   1.216   3.054  13.030  0.0424  0.5895  0.7813
12063TIP3    H157680   1.269   3.133  13.038 -1.1816  1.3612  1.7428
12063TIP3    H257681   1.264   2.988  13.081  1.6228  0.3444 -0.9032
12064TIP3   OH257682   1.048   6.709  10.885 -0.0087 -0.3319 -0.1444
12064TIP3    H157683   0.957   6.738  10.899  0.0938 -0.2889  0.4510
12064TIP3    H257684   1.092   6.730  10.967  0.1812 -1.7921  0.1477
12065TIP3   OH257685   3.581   2.549  15.055 -0.5001  0.4291  0.1868
12065TIP3    H157686   3.530   2.615  15.007 -0.5455  0.1615 -0.1335
12065TIP3    H257687   3.517   2.506  15.111 -0.5779  0.2639 -0.0293
12066TIP3   OH257688   0.490   2.628   5.412 -0.4913  0.0366  0.5558
12066TIP3    H157689   0.541   2.641   5.332 -0.9320  1.2576  0.4456
12066TIP3    H257690   0.550   2.587   5.473 -0.4541 -1.9637 -0.7367
12067TIP3   OH257691   6.606   5.475  14.579  0.0934  0.1941 -0.1841
12067TIP3    H157692   6.582   5.556  14.533  1.3704  0.5144 -0.3549
12067TIP3    H257693   6.530   5.418  14.571 -1.2264  1.7290  0.7797
12068TIP3   OH257694   6.325   1.892  15.085 -0.5844  0.3859  0.0347
12068TIP3    H157695   6.397   1.912  15.025 -0.4795 -0.1794 -0.0359
12068TIP3    H257696   6.305   1.800  15.069 -0.1190  0.0383  1.3332
12069TIP3   OH257697   5.056   5.857  12.210  0.5890 -0.3960  0.1228
12069TIP3    H157698   4.977   5.812  12.239  1.2105  0.5799  3.9427
12069TIP3    H257699   5.026   5.944  12.183  0.2840 -0.1106  1.3352
12070TIP3   OH257700   0.619   5.086   3.699  0.6611 -0.3411 -0.4555
12070TIP3    H157701   0.714   5.074   3.695  0.6412 -0.4091 -0.7453
12070TIP3    H257702   0.599   5.148   3.629  0.5740  0.2176  0.0615
12071TIP3   OH257703   4.588   3.232   5.134 -0.3622 -0.0541  0.3667
12071TIP3    H157704   4.498   3.250   5.106 -0.8783 -0.2011  1.8150
12071TIP3    H257705   4.581   3.154   5.189  0.5344  0.3177  1.0407
12072TIP3   OH257706   4.411   2.200  17.059  0.0580 -0.2194  0.0526
12072TIP3    H157707   4.402   2.216  17.153 -0.6445  0.8223 -0.1799
12072TIP3    H257708   4.448   2.280  17.024  1.6685 -1.1174 -0.3827
12073TIP3   OH257709   2.334   1.734   3.320  0.5189  0.1193  0.3883
12073TIP3    H157710   2.340   1.665   3.254  1.5662  1.2129 -0.7227
12073TIP3    H257711   2.332   1.688   3.403 -1.4323 -1.3333 -0.3909
12074TIP3   OH257712   0.838   2.424   4.274 -0.4455  0.1983 -0.0179
12074TIP3    H157713   0.921   2.446   4.315 -0.7700  0.8950  0.2798
12074TIP3    H257714   0.805   2.350   4.325 -1.1362  1.4380  1.4119
12075TIP3   OH257715   6.648   0.730  13.984  0.9168  0.5934  0.0375
12075TIP3    H157716   6.718   0.688  14.035  1.1714  0.6905 -0.2265
12075TIP3    H257717   6.639   0.674  13.907 -0.4365 -0.3439  0.8417
12076TIP3   OH257718   3.531   5.302  17.018 -0.0250  0.4653  0.3237
12076TIP3    H157719   3.456   5.243  17.010  1.0697 -1.0010  0.3134
12076TIP3    H257720   3.596   5.251  17.066  0.7670  1.9091  0.8575
12077TIP3   OH257721   2.667   3.694   4.486 -0.3280 -0.2502 -0.0154
12077TIP3    H157722   2.573   3.673   4.485 -0.2150 -0.7699  0.3042
12077TIP3    H257723   2.671   3.783   4.520 -0.5815 -0.9082  1.7969
12078TIP3   OH257724   4.789   2.457   3.568 -0.5205  0.3832  0.4158
12078TIP3    H157725   4.794   2.553   3.571 -5.5802  0.8961  1.7719
12078TIP3    H257726   4.812   2.430   3.657  0.8780  0.2630  0.0412
12079TIP3   OH257727   3.656   4.669  12.156  0.3459  0.2715  0.9802
12079TIP3    H157728   3.703   4.614  12.093 -0.0547 -0.7734  1.5540
12079TIP3    H257729   3.643   4.612  12.232 -0.0389  1.1940  1.6259
12080TIP3   OH257730   1.195   0.847   0.408 -0.1209 -0.6396 -0.5042
12080TIP3    H157731   1.153   0.919   0.361  1.8707 -0.3762 -2.0030
12080TIP3    H257732   1.127   0.781   0.418 -1.9399  1.2817  0.6842
12081TIP3   OH257733   5.208   3.946  16.403 -0.6436  0.6612 -0.1889
12081TIP3    H157734   5.190   3.907  16.318 -1.9075 -0.5862  0.6077
12081TIP3    H257735   5.122   3.973  16.436 -0.6046 -1.4003  1.8288
12082TIP3   OH257736   1.154   1.997  12.668 -0.1034 -0.0782  0.1086
12082TIP3    H157737   1.244   1.979  12.695  1.6251  0.6470 -4.3699
12082TIP3    H257738   1.106   1.918  12.691  1.8715 -0.8897  1.7298
12083TIP3   OH257739   3.512   0.250   0.901  0.6437 -0.3607  0.3724
12083TIP3    H157740   3.466   0.333   0.890  0.4140 -0.6407 -0.9789
12083TIP3    H257741   3.444   0.186   0.922  0.6481 -0.4419  0.1439
12084TIP3   OH257742   1.103   2.805   3.767 -0.4525  0.6996  0.0842
12084TIP3    H157743   1.105   2.883   3.712 -1.6362  1.6565  1.3468
12084TIP3    H257744   1.015   2.770   3.758  0.0302 -0.4586 -0.3840
12085TIP3   OH257745   4.807   2.984   3.258 -0.0545  0.4770 -0.3864
12085TIP3    H157746   4.797   3.058   3.198 -1.7155  0.1334 -0.5821
12085TIP3    H257747   4.780   3.018   3.343  1.0273  0.5930 -0.0653
12086TIP3   OH257748   4.554   2.725  13.063 -0.1030  0.3432 -0.2285
12086TIP3    H157749   4.629   2.742  13.007 -1.3040 -0.1583 -2.0514
12086TIP3    H257750   4.508   2.808  13.068  0.8385  0.8158  1.3938
12087TIP3   OH257751   0.263   2.965   2.634  0.6430  0.3014  0.1650
12087TIP3    H157752   0.282   2.897   2.569 -3.8251  0.8123 -2.0314
12087TIP3    H257753   0.308   3.042   2.601  1.8688 -0.4278  0.0619
12088TIP3   OH257754   4.182   1.465  11.200 -0.2100  0.5801 -0.3901
12088TIP3    H157755   4.087   1.473  11.190 -0.4646 -1.7673 -0.4881
12088TIP3    H257756   4.218   1.517  11.128 -1.4028  1.4780 -0.3765
12089TIP3   OH257757   1.395   6.658  14.869  0.2242 -0.1240 -0.2136
12089TIP3    H157758   1.446   6.732  14.903 -1.6854  2.1998 -2.0002
12089TIP3    H257759   1.330   6.641  14.937 -0.6622  1.3558 -0.6445
12090TIP3   OH257760   6.499   4.216   3.728 -0.6439 -0.2130  0.1100
12090TIP3    H157761   6.481   4.166   3.808  0.8142 -0.5538  0.2638
12090TIP3    H257762   6.447   4.174   3.661 -1.3670 -0.3533  0.7484
12091TIP3   OH257763   1.895   0.570   2.113  0.1814  0.2485  0.4884
12091TIP3    H157764   1.810   0.580   2.070  1.1294  1.1247 -1.2925
12091TIP3    H257765   1.926   0.484   2.086  0.4496  0.4987 -0.0295
12092TIP3   OH257766   5.009   5.410  15.227  0.4194 -0.0601  0.1614
12092TIP3    H157767   4.995   5.502  15.209  0.9164 -0.0342 -0.1019
12092TIP3    H257768   5.038   5.408  15.319  2.4810  0.2620 -0.4407
12093TIP3   OH257769   1.218   6.776  11.103  0.4621  0.1268  0.3909
12093TIP3    H157770   1.155   6.843  11.129 -0.5426 -1.2262  1.6206
12093TIP3    H257771   1.298   6.824  11.082 -0.7831  1.8316 -0.5927
12094TIP3   OH257772   4.071   6.760   3.334  0.0600 -0.0250  0.5836
12094TIP3    H157773   4.007   6.761   3.262  1.6373  0.5827 -0.8957
12094TIP3    H257774   4.113   6.675   3.327 -0.9965 -0.6916  1.9758
12095TIP3   OH257775   1.997   3.707   0.481  0.0209 -0.2900 -0.5420
12095TIP3    H157776   1.933   3.646   0.446 -0.3553 -0.7234  0.8491
12095TIP3    H257777   1.946   3.768   0.535  0.5646  0.4175 -0.8080
12096TIP3   OH257778   5.554   6.281  13.206  0.6957  0.6322 -0.3251
12096TIP3    H157779   5.624   6.266  13.143  1.5172  1.5339  0.3454
12096TIP3    H257780   5.597   6.275  13.292 -0.5469 -1.4130  0.2326
12097TIP3   OH257781   6.512   1.591   0.154 -0.6872  0.6760 -0.4439
12097TIP3    H157782   6.551   1.608   0.069  0.5774 -2.5896 -0.6721
12097TIP3    H257783   6.586   1.592   0.215 -0.9804 -0.7147 -0.0397
12098TIP3   OH257784   0.615   5.936  14.368  0.6770 -0.3815  0.1483
12098TIP3    H157785   0.571   6.015  14.337  0.0989 -0.8737 -0.2950
12098TIP3    H257786   0.546   5.870  14.374  1.2946 -1.0914 -0.3153
12099TIP3   OH257787   5.511   5.854   2.369  0.0631  0.2713  0.1257
12099TIP3    H157788   5.484   5.762   2.363  0.3526  0.2682 -1.5396
12099TIP3    H257789   5.428   5.902   2.371 -0.1832 -0.0525  3.3843
12100TIP3   OH257790   4.042   3.025  10.305 -0.0138  0.5671  0.0027
12100TIP3    H157791   4.013   2.961  10.370 -0.1075  1.3696  0.7828
12100TIP3    H257792   4.111   3.074  10.349 -0.0834  1.1312 -0.4967
12101TIP3   OH257793   5.799   1.345   2.428  0.3101  0.2724  0.1097
12101TIP3    H157794   5.862   1.273   2.417 -1.3433 -1.9231  3.3072
12101TIP3    H257795   5.845   1.408   2.483  1.2875  1.1055 -1.5735
12102TIP3   OH257796   3.377   0.455   1.499 -0.6509  0.4393  0.8374
12102TIP3    H157797   3.348   0.501   1.578  1.6014  1.1270  1.3580
12102TIP3    H257798   3.432   0.384   1.532  2.2541  2.1055 -0.0291
12103TIP3   OH257799   6.105   3.293  14.804  0.4551  0.5402  0.3953
12103TIP3    H157800   6.195   3.323  14.794  0.2280  0.6670 -1.8981
12103TIP3    H257801   6.099   3.218  14.745 -1.1975  1.1430 -0.2562
12104TIP3   OH257802   6.299   0.979   2.226 -0.1166  0.3011  0.3254
12104TIP3    H157803   6.351   1.056   2.247 -0.4086  0.7136 -0.4390
12104TIP3    H257804   6.364   0.911   2.206  0.1396  0.5577  0.2789
12105TIP3   OH257805   1.089   0.264  12.335  0.0438 -0.4540  0.4074
12105TIP3    H157806   1.134   0.296  12.413 -1.4124  0.7030  0.8337
12105TIP3    H257807   1.119   0.322  12.265 -0.8020  0.3944  0.7151
12106TIP3   OH257808   2.270   5.420  16.419  0.2623  0.5719  0.1261
12106TIP3    H157809   2.364   5.439  16.419  0.0398  1.7192  0.5313
12106TIP3    H257810   2.254   5.379  16.334  1.1875  0.0074  0.2096
12107TIP3   OH257811   5.626   4.692   0.061 -0.1980 -0.4020  0.3684
12107TIP3    H157812   5.660   4.624   0.119 -0.3859 -1.6373 -0.9145
12107TIP3    H257813   5.694   4.759   0.061 -0.0911 -0.4925  1.8107
12108TIP3   OH257814   2.980   6.793   3.187  0.4817 -0.0481 -0.0867
12108TIP3    H157815   2.980   6.831   3.099 -1.6841 -1.2215 -0.6740
12108TIP3    H257816   3.017   6.705   3.174  1.8157  0.3865  0.5495
12109TIP3   OH257817   4.332   2.089  14.298  0.1899 -0.1404 -0.2182
12109TIP3    H157818   4.342   2.179  14.268  0.0875  0.0235  0.2239
12109TIP3    H257819   4.419   2.050  14.285  0.6576  0.4507  0.9301
12110TIP3   OH257820   5.616   6.018   6.813 -0.4678  0.6781  0.2603
12110TIP3    H157821   5.707   6.038   6.794 -0.3880  0.7059  0.6585
12110TIP3    H257822   5.615   5.923   6.825 -0.7050  0.5234 -0.8721
12111TIP3   OH257823   4.182   3.412   1.486 -0.1505 -0.0660  0.0070
12111TIP3    H157824   4.123   3.457   1.546 -0.7823  0.1395 -0.7389
12111TIP3    H257825   4.188   3.322   1.520  0.5156  0.3624  1.0746
12112TIP3   OH257826   1.870   1.744   1.703  0.1113 -0.5333  0.5077
12112TIP3    H157827   1.799   1.792   1.746 -1.9973 -2.9478 -0.0602
12112TIP3    H257828   1.927   1.813   1.667 -1.2872  1.5044  1.9745
12113TIP3   OH257829   1.037   1.373  12.137 -0.4289 -0.3603  0.1210
12113TIP3    H157830   1.119   1.420  12.152 -0.2971 -1.2787  3.0628
12113TIP3    H257831   1.047   1.332  12.051  2.0361 -0.1344  0.2419
12114TIP3   OH257832   1.562   6.517  15.106 -0.8643  0.6956 -0.3013
12114TIP3    H157833   1.652   6.496  15.130 -0.2819  2.8301 -0.3778
12114TIP3    H257834   1.529   6.438  15.064  0.5716 -0.5404  0.7800
12115TIP3   OH257835   3.385   3.681   2.325 -0.0987  0.0826  0.2909
12115TIP3    H157836   3.425   3.728   2.399 -0.8142 -1.8339  1.9882
12115TIP3    H257837   3.292   3.703   2.331  0.0607  1.2947 -1.1571
12116TIP3   OH257838   6.411   4.512   0.481 -0.2782 -0.2021  0.0579
12116TIP3    H157839   6.391   4.489   0.571 -0.7810  0.6686  0.1731
12116TIP3    H257840   6.361   4.448   0.429  0.9154 -1.4508  0.3721
12117TIP3   OH257841   5.222   1.281   1.178 -0.0308  0.0566  0.3214
12117TIP3    H157842   5.207   1.353   1.117 -0.9482 -1.3818 -1.2293
12117TIP3    H257843   5.310   1.250   1.157 -0.0780  0.0064  0.1951
12118TIP3   OH257844   1.224   1.041   4.421  0.0748  0.4084 -0.2242
12118TIP3    H157845   1.193   0.958   4.384  0.2280 -0.0408  0.6238
12118TIP3    H257846   1.145   1.086   4.449  0.0638 -0.0038  0.4322
12119TIP3   OH257847   0.313   6.368   2.687  0.0311  0.4780 -0.1199
12119TIP3    H157848   0.353   6.455   2.689 -0.3035  0.6270  0.6438
12119TIP3    H257849   0.230   6.379   2.734  0.3522 -0.4289  0.7020
12120TIP3   OH257850   2.202   1.570   0.919 -0.2216 -0.1724 -0.4195
12120TIP3    H157851   2.275   1.628   0.942  0.8690 -2.0014  1.1154
12120TIP3    H257852   2.236   1.515   0.849  0.0646 -1.2598  0.5314
12121TIP3   OH257853   1.183   6.786   0.437  0.0133 -0.3805 -0.4867
12121TIP3    H157854   1.162   6.773   0.345 -0.2672  1.2217 -0.6783
12121TIP3    H257855   1.159   6.877   0.455  3.4585  0.5536  0.1679
12122TIP3   OH257856   0.132   0.854  13.987  0.1188  0.2711  0.1237
12122TIP3    H157857   0.138   0.838  13.893 -0.9405  0.6116 -0.0113
12122TIP3    H257858   0.060   0.916  13.996  0.6621  0.7770  1.1034
12123TIP3   OH257859   0.005   6.472  13.810 -0.6798 -0.5002 -0.0351
12123TIP3    H157860  -0.034   6.388  13.832 -0.6138 -0.2547  1.1093
12123TIP3    H257861  -0.001   6.478  13.715 -0.4134 -1.9299 -0.1637
12124TIP3   OH257862   3.217   2.690  16.857  0.4013 -0.0320  0.5107
12124TIP3    H157863   3.258   2.612  16.895 -0.6238 -0.9754 -0.2645
12124TIP3    H257864   3.198   2.746  16.932  4.0244  0.9853  0.8642
12125TIP3   OH257865   1.746   0.372   5.880  0.0788  0.0831 -0.2900
12125TIP3    H157866   1.701   0.424   5.947 -0.6575  0.3194 -0.9486
12125TIP3    H257867   1.677   0.352   5.816  0.3219 -1.7628 -0.0205
12126TIP3   OH257868   2.141   1.220   3.595 -0.0469 -0.5703 -0.4071
12126TIP3    H157869   2.115   1.306   3.562 -0.2833 -0.1857  0.7298
12126TIP3    H257870   2.133   1.162   3.520 -0.9212  0.1953 -0.9322
12127TIP3   OH257871   0.444   2.380  16.975  0.2279 -0.5615 -0.1594
12127TIP3    H157872   0.433   2.439  16.900  0.5283 -0.2806  0.0160
12127TIP3    H257873   0.499   2.309  16.942  4.7802  1.9812  1.0072
12128TIP3   OH257874   4.448   0.639   4.615 -0.2511 -0.3407  0.4213
12128TIP3    H157875   4.424   0.565   4.558 -0.5021 -0.3779  0.5733
12128TIP3    H257876   4.488   0.598   4.692 -0.9919 -0.3592  0.8027
12129TIP3   OH257877   6.702   5.979   1.006  0.6529  0.2704  0.4914
12129TIP3    H157878   6.762   5.970   0.932  0.7186 -1.2874  0.7055
12129TIP3    H257879   6.698   5.891   1.045 -0.0048  0.8684  1.8511
12130TIP3   OH257880   1.479   5.453   5.285  0.0430  0.1974  0.2320
12130TIP3    H157881   1.410   5.404   5.240 -2.0906  2.2151  1.1041
12130TIP3    H257882   1.486   5.536   5.237  1.8253  0.1054  0.2476
12131TIP3   OH257883   6.098   2.317   5.280  0.2422 -0.3320  0.1186
12131TIP3    H157884   6.130   2.378   5.346  1.7368  3.2605 -3.4708
12131TIP3    H257885   6.168   2.252   5.270  0.6797 -0.0010  0.9542
12132TIP3   OH257886   4.535   3.534  12.760 -0.2222  0.4737 -0.1170
12132TIP3    H157887   4.602   3.520  12.827 -1.6894  0.7638  1.4686
12132TIP3    H257888   4.584   3.536  12.677  2.1410  3.6392  1.1679
12133TIP3   OH257889   1.759   0.710   5.956 -0.1687 -0.1750  0.5560
12133TIP3    H157890   1.707   0.638   5.992 -1.2767 -0.7519 -1.9868
12133TIP3    H257891   1.844   0.671   5.938 -1.3158 -1.5591 -2.5934
12134TIP3   OH257892   2.720   5.221  16.324 -0.0416  0.2343 -0.1003
12134TIP3    H157893   2.664   5.266  16.261 -1.1355 -0.8478  0.0626
12134TIP3    H257894   2.679   5.135  16.334  0.7396  0.0079  1.2612
12135TIP3   OH257895   4.644   6.469  11.278 -0.4056  0.1862 -1.1168
12135TIP3    H157896   4.669   6.556  11.246 -0.3910  0.6492  0.0719
12135TIP3    H257897   4.722   6.438  11.324 -0.9240  0.2337 -0.1857
12136TIP3   OH257898   4.723   4.593   3.012 -0.3527  0.4533  0.7254
12136TIP3    H157899   4.732   4.562   3.102 -0.3117  0.7053  0.8085
12136TIP3    H257900   4.672   4.525   2.968  0.0410  0.0911  0.8141
12137TIP3   OH257901   2.210   2.919   0.991 -0.1282  0.0496  0.0623
12137TIP3    H157902   2.188   3.006   1.024  0.0713  0.3015 -0.4486
12137TIP3    H257903   2.275   2.936   0.923 -0.0866 -0.5032 -0.0374
12138TIP3   OH257904   5.796   3.241  17.235 -0.8727 -0.0947  0.0347
12138TIP3    H157905   5.842   3.305  17.182  0.4600 -0.1654  1.0440
12138TIP3    H257906   5.737   3.196  17.174 -0.3371  0.6964 -1.0916
12139TIP3   OH257907   1.091   5.003   0.247  0.4550 -0.3229  0.0375
12139TIP3    H157908   1.026   5.063   0.283  1.2332 -0.0664  1.0512
12139TIP3    H257909   1.072   4.919   0.290  0.6169 -0.3193  0.1152
12140TIP3   OH257910   0.403   0.719  16.009  0.1075 -0.3467 -0.0059
12140TIP3    H157911   0.378   0.701  15.918 -1.1827  0.9339  0.0594
12140TIP3    H257912   0.467   0.790  16.003 -0.3534  0.0768  0.1177
12141TIP3   OH257913   2.111   4.666   3.443  0.2969 -0.3724 -0.2109
12141TIP3    H157914   2.189   4.682   3.496  0.6735 -0.7724 -0.6387
12141TIP3    H257915   2.136   4.693   3.355 -1.4129  3.6132  0.3434
12142TIP3   OH257916   1.521   0.340  13.721  0.2898  0.0329 -0.1866
12142TIP3    H157917   1.603   0.331  13.671  0.3139  0.5967 -0.2585
12142TIP3    H257918   1.511   0.435  13.732 -0.2368 -0.0471  0.0199
12143TIP3   OH257919   6.314   5.298  12.972  0.4994  0.0670  0.2270
12143TIP3    H157920   6.324   5.313  12.878 -0.8512 -0.3857 -0.0159
12143TIP3    H257921   6.337   5.381  13.012 -1.3642  1.1103 -0.7061
12144TIP3   OH257922   0.176   1.311  14.228  0.2935 -0.1447 -0.4275
12144TIP3    H157923   0.213   1.239  14.278  0.6417 -0.2339 -0.8082
12144TIP3    H257924   0.153   1.272  14.143 -1.7771 -0.3787  0.1828
12145TIP3   OH257925   5.496   2.584   6.673  0.4083  0.1485  0.4748
12145TIP3    H157926   5.465   2.667   6.710  2.8484  0.3040  2.4356
12145TIP3    H257927   5.432   2.519   6.700  0.6484  0.7610  2.6481
12146TIP3   OH257928   6.686   1.177   6.419 -0.3249  0.5878  0.0507
12146TIP3    H157929   6.708   1.112   6.485  0.4334  0.2766 -0.5001
12146TIP3    H257930   6.760   1.176   6.359 -0.4672  1.7190 -0.1532
12147TIP3   OH257931   1.407   1.399  14.228  0.4300  0.1318  0.3594
12147TIP3    H157932   1.443   1.457  14.296  1.6352  0.4373 -0.5008
12147TIP3    H257933   1.357   1.458  14.171 -0.3779 -0.0852  0.8324
12148TIP3   OH257934   3.575   1.553  15.622  0.1980  0.2878 -0.1871
12148TIP3    H157935   3.592   1.499  15.545 -0.6270 -1.9641  1.1166
12148TIP3    H257936   3.661   1.569  15.660  0.4624 -0.0707 -0.6286
12149TIP3   OH257937   1.502   0.119  12.286  0.2811 -0.1138  0.2992
12149TIP3    H157938   1.534   0.064  12.357 -0.1741 -1.5948 -0.6066
12149TIP3    H257939   1.559   0.196  12.288  0.7341 -0.4575  1.7934
12150TIP3   OH257940   4.228   3.194  15.881 -0.2600  0.0353  0.9126
12150TIP3    H157941   4.223   3.135  15.807  0.9244  2.6108 -1.4055
12150TIP3    H257942   4.316   3.182  15.916  0.7139  1.6595 -0.8013
12151TIP3   OH257943   0.131   1.757  13.050 -0.1129  0.2898  0.1999
12151TIP3    H157944   0.173   1.776  12.967 -1.3357 -1.5537 -0.9431
12151TIP3    H257945   0.155   1.666  13.068  0.3918  0.7630  2.0558
12152TIP3   OH257946   1.263   5.066  16.716 -0.3693  0.2462  0.3036
12152TIP3    H157947   1.358   5.075  16.722 -0.5258  1.2417  1.9024
12152TIP3    H257948   1.239   5.120  16.641  0.3030  0.2850  0.1064
12153TIP3   OH257949   4.747   2.061   2.418  0.6743  0.3092 -0.1309
12153TIP3    H157950   4.680   2.103   2.364 -1.5476 -0.7590  1.6264
12153TIP3    H257951   4.731   2.096   2.506  0.9304 -1.6340  0.7407
12154TIP3   OH257952   6.041   6.246   6.099 -0.3996  0.2286  0.2243
12154TIP3    H157953   5.961   6.283   6.061 -0.7771 -0.3239  0.4690
12154TIP3    H257954   6.037   6.271   6.191  0.4182  1.4003 -0.0309
12155TIP3   OH257955   2.830   5.472  11.974  0.3127  0.5506  0.5178
12155TIP3    H157956   2.774   5.527  11.920 -0.6304 -0.6840  0.2157
12155TIP3    H257957   2.876   5.534  12.031 -1.0945  1.6148  0.5368
12156TIP3   OH257958   3.204   0.215  13.223 -0.4293  0.3751 -0.2195
12156TIP3    H157959   3.261   0.289  13.244 -2.5384  2.5706 -1.6135
12156TIP3    H257960   3.264   0.146  13.194  1.7804  0.6777  3.0843
12157TIP3   OH257961   2.706   6.721  16.265  0.1384 -0.3504 -0.6630
12157TIP3    H157962   2.705   6.716  16.361 -0.2715 -0.1237 -0.6527
12157TIP3    H257963   2.797   6.736  16.243  0.3108 -0.8653 -0.3341
12158TIP3   OH257964   4.476   5.350  12.559  0.6029 -0.0614  0.7057
12158TIP3    H157965   4.556   5.298  12.555  0.6302 -0.0254  0.7790
12158TIP3    H257966   4.464   5.368  12.653 -0.0982 -1.0124  0.8194
12159TIP3   OH257967   1.138   5.111   1.456 -0.2051  0.3511  0.0178
12159TIP3    H157968   1.203   5.082   1.521  0.0470  0.7796 -0.0426
12159TIP3    H257969   1.118   5.201   1.480  0.3016  0.7015 -0.8271
12160TIP3   OH257970   2.555   3.551  12.418 -0.2263 -0.4688  0.1329
12160TIP3    H157971   2.526   3.624  12.364  1.0004 -2.0339 -2.8634
12160TIP3    H257972   2.484   3.487  12.414  0.6697 -1.4167 -1.3872
12161TIP3   OH257973   4.728   2.044  11.809  0.2124 -0.6638 -0.1638
12161TIP3    H157974   4.755   2.135  11.810  1.6923 -1.0745 -0.1953
12161TIP3    H257975   4.740   2.015  11.719 -0.1364 -0.9291 -0.1311
12162TIP3   OH257976   4.664   6.660   4.220  0.5628  0.0404 -0.3642
12162TIP3    H157977   4.655   6.698   4.132 -0.0009 -0.7729 -0.6655
12162TIP3    H257978   4.641   6.732   4.279  0.6220  0.5004 -0.8914
12163TIP3   OH257979   4.592   2.583  15.115  0.1397  0.3816  0.2690
12163TIP3    H157980   4.547   2.639  15.052  0.5732  0.7746  0.3049
12163TIP3    H257981   4.542   2.594  15.196 -0.8661 -0.6953 -0.1711
12164TIP3   OH257982   2.540   1.217   5.034  0.3108 -0.2831  0.3983
12164TIP3    H157983   2.532   1.312   5.023  1.2248 -0.1289  0.9688
12164TIP3    H257984   2.464   1.192   5.086 -0.8268 -0.1339 -1.1156
12165TIP3   OH257985   3.771   0.925   5.756  0.1498 -0.1783  0.1792
12165TIP3    H157986   3.858   0.944   5.790  0.5698 -2.8713  0.8295
12165TIP3    H257987   3.784   0.914   5.662 -0.3857  3.7227 -0.5356
12166TIP3   OH257988   3.353   5.239   5.650  0.0765 -0.1749 -0.2273
12166TIP3    H157989   3.297   5.197   5.715  0.3013  1.0939  0.8422
12166TIP3    H257990   3.343   5.186   5.571  0.0649 -1.9624  0.9292
12167TIP3   OH257991   5.904   5.032  11.744  0.4895 -0.2447  0.1965
12167TIP3    H157992   5.905   4.956  11.686 -1.1436  0.3933 -0.7413
12167TIP3    H257993   5.990   5.072  11.734  0.8012 -1.0740 -0.5163
12168TIP3   OH257994   6.471   0.703   2.888 -0.5746 -0.0866  0.5618
12168TIP3    H157995   6.489   0.749   2.970  2.0355 -2.3205  1.3841
12168TIP3    H257996   6.404   0.639   2.912 -1.6109  0.8433  0.2708
12169TIP3   OH257997   5.276   1.719   0.927  0.7490  0.2859 -0.0651
12169TIP3    H157998   5.200   1.700   0.872  0.6613 -0.3102  0.2544
12169TIP3    H257999   5.306   1.806   0.898 -1.2304  1.4420  1.1295
12170TIP3   OH258000   4.061   5.381   2.231 -0.0530  0.4692  0.1887
12170TIP3    H158001   3.989   5.428   2.189  0.1341  1.6247  1.1037
12170TIP3    H258002   4.023   5.345   2.311 -0.1053 -0.6920 -0.3311
12171TIP3   OH258003   1.909   4.638   3.977  0.0675  0.7194 -0.0752
12171TIP3    H158004   1.907   4.631   4.072 -0.2337  0.0105 -0.1209
12171TIP3    H258005   1.842   4.576   3.948  1.6377 -0.6966 -0.8180
12172TIP3   OH258006   2.126   1.610  13.567 -0.4021  0.0215  0.3922
12172TIP3    H158007   2.082   1.560  13.498 -1.7041 -1.3633  2.1335
12172TIP3    H258008   2.065   1.680  13.589 -0.2078  0.1650  0.4848
12173TIP3   OH258009   1.810   2.878   2.825  0.1794 -0.0162  0.9644
12173TIP3    H158010   1.788   2.922   2.907 -1.8155 -0.0289  0.4884
12173TIP3    H258011   1.831   2.788   2.850  0.9135  0.3137  1.5810
12174TIP3   OH258012   4.563   6.165   5.889  0.3065 -0.1235 -0.3737
12174TIP3    H158013   4.506   6.241   5.878  0.0358 -0.4968 -1.7787
12174TIP3    H258014   4.643   6.188   5.841 -0.4871 -1.4031 -2.4453
12175TIP3   OH258015   0.493   5.145   6.668  0.1793  0.8349  0.0889
12175TIP3    H158016   0.435   5.092   6.722 -1.0745 -0.0688 -1.9956
12175TIP3    H258017   0.562   5.085   6.641 -0.4193  0.6262 -1.0554
12176TIP3   OH258018   1.230   1.447   4.629  0.4644  0.1720 -0.3298
12176TIP3    H158019   1.269   1.375   4.579 -0.3283  0.1218 -0.8971
12176TIP3    H258020   1.291   1.462   4.701  0.8301 -0.8138 -0.4193
12177TIP3   OH258021   4.366   1.001  11.746 -0.3293 -0.0759 -0.1677
12177TIP3    H158022   4.371   1.023  11.653  0.6804  0.0638 -0.0941
12177TIP3    H258023   4.437   0.938  11.760  2.1392  2.7628  1.2586
12178TIP3   OH258024   2.126   0.409  16.409 -0.0060  0.0800  0.3020
12178TIP3    H158025   2.092   0.320  16.413  0.3081  0.0021  1.7956
12178TIP3    H258026   2.049   0.464  16.424 -0.6584  0.2250 -2.8957
12179TIP3   OH258027   3.113   5.408  14.921  0.2122  0.2633 -0.1022
12179TIP3    H158028   3.090   5.449  14.838 -0.1641  1.2594  0.4701
12179TIP3    H258029   3.029   5.387  14.961  0.3976 -0.5251 -0.1239
12180TIP3   OH258030   4.627   1.779  15.285 -0.2632 -0.2502 -0.1186
12180TIP3    H158031   4.720   1.799  15.294 -0.6648  1.1207  1.3717
12180TIP3    H258032   4.591   1.853  15.236 -1.0046  0.5961  1.6267
12181TIP3   OH258033   3.993   1.788   3.834 -0.0338 -0.2120  0.0487
12181TIP3    H158034   4.049   1.804   3.759 -1.3131 -0.3178 -0.9690
12181TIP3    H258035   3.917   1.741   3.798  0.1315 -1.8848  1.6914
12182TIP3   OH258036   4.915   5.045  13.679  0.5015  0.0576 -0.0987
12182TIP3    H158037   4.847   5.026  13.744 -0.0109  1.6377 -0.1107
12182TIP3    H258038   4.994   5.005  13.713 -0.0007 -0.0546  0.9639
12183TIP3   OH258039   1.665   6.404   4.304  0.3120 -0.0945 -0.3539
12183TIP3    H158040   1.615   6.382   4.382  0.1505 -0.7259 -0.6210
12183TIP3    H258041   1.616   6.475   4.263 -0.7539 -1.1314 -0.9502
12184TIP3   OH258042   0.134   5.857  12.495 -0.0415  0.8451  0.6377
12184TIP3    H158043   0.107   5.822  12.580 -2.2515  0.4147 -0.1797
12184TIP3    H258044   0.139   5.951  12.509  2.0223  0.6212  1.8238
12185TIP3   OH258045   3.954   1.151  12.226 -0.5059 -0.4956  0.0169
12185TIP3    H158046   3.908   1.082  12.275 -0.5883 -0.2752  0.2568
12185TIP3    H258047   3.907   1.231  12.249 -1.5843 -0.5783 -1.6952
12186TIP3   OH258048   3.088   6.563   6.076 -0.2896 -0.3822  0.3278
12186TIP3    H158049   3.008   6.548   6.126 -1.3531 -1.0486 -1.4839
12186TIP3    H258050   3.148   6.606   6.138 -2.5770  1.6345  1.3106
12187TIP3   OH258051   0.139   1.317  14.538 -0.5773  0.4589 -0.3168
12187TIP3    H158052   0.220   1.287  14.497 -0.9565 -0.1200 -0.6597
12187TIP3    H258053   0.078   1.244  14.526 -1.4877  1.3080 -1.0615
12188TIP3   OH258054   4.598   1.770  12.176 -0.3915  0.3798  0.0568
12188TIP3    H158055   4.512   1.760  12.136  0.1806 -1.0807 -0.8728
12188TIP3    H258056   4.658   1.778  12.103  0.4440 -0.3108  0.6450
12189TIP3   OH258057   2.605   1.486   5.610 -0.7570 -0.6065 -0.3583
12189TIP3    H158058   2.593   1.462   5.518  0.3549  0.0863 -0.7043
12189TIP3    H258059   2.589   1.405   5.659  1.0564 -1.6386 -1.3486
12190TIP3   OH258060   6.814   0.131   3.891  0.8912 -0.7965 -0.0316
12190TIP3    H158061   6.820   0.155   3.983  2.0930  0.5930 -0.4280
12190TIP3    H258062   6.748   0.190   3.855  1.6836 -0.1194 -0.4014
12191TIP3   OH258063   0.294   1.936  16.366 -0.2874 -0.2505  0.0468
12191TIP3    H158064   0.291   1.842  16.352 -2.3508 -0.1793 -0.3377
12191TIP3    H258065   0.202   1.962  16.375  0.2154  1.7573 -0.0935
12192TIP3   OH258066   2.991   4.682  10.765 -1.0860 -0.3393  0.6502
12192TIP3    H158067   3.042   4.632  10.829 -0.9793  0.0271  0.8561
12192TIP3    H258068   3.055   4.740  10.723 -1.3535  0.2227  1.0082
12193TIP3   OH258069   5.261   2.246  16.029  0.1454 -0.5261  0.1804
12193TIP3    H158070   5.219   2.170  16.068 -1.3680 -0.4468 -1.2071
12193TIP3    H258071   5.238   2.319  16.086  0.4415 -0.8647  0.7442
12194TIP3   OH258072   1.697   0.917  12.937 -0.4879 -0.0789  0.0998
12194TIP3    H158073   1.783   0.925  12.977 -0.6341  0.0091  0.3946
12194TIP3    H258074   1.701   0.834  12.889  0.0527  0.3406 -0.6045
12195TIP3   OH258075   6.412   2.322  12.706  0.5775 -0.9094  0.9008
12195TIP3    H158076   6.327   2.322  12.662  2.0884  1.0652 -2.3168
12195TIP3    H258077   6.449   2.236  12.688  1.0647 -0.2304 -1.7262
12196TIP3   OH258078   3.378   6.432   5.176 -0.2996  0.2039 -0.1892
12196TIP3    H158079   3.460   6.448   5.130  1.2591 -0.4212  2.1889
12196TIP3    H258080   3.351   6.517   5.209 -0.2184  0.2864 -0.3356
12197TIP3   OH258081   0.843   1.755  14.381 -0.6954  0.3323 -1.4073
12197TIP3    H158082   0.801   1.669  14.384  0.4926 -0.2431  0.0638
12197TIP3    H258083   0.800   1.805  14.451  1.4767 -0.5422  0.7118
12198TIP3   OH258084   6.615   6.425   5.506 -0.0025 -0.0705 -0.0813
12198TIP3    H158085   6.681   6.456   5.568 -0.1280 -1.4737  0.7874
12198TIP3    H258086   6.578   6.347   5.546 -0.5519 -0.6533 -1.6286
12199TIP3   OH258087   1.084   2.001   4.837  0.0823  0.2843 -0.2424
12199TIP3    H158088   1.028   2.038   4.906 -0.0167  0.4979 -0.4358
12199TIP3    H258089   1.037   2.020   4.756  0.7500  1.0495 -0.4634
12200TIP3   OH258090   0.831   2.375  16.323  0.7852  0.2951 -0.2437
12200TIP3    H158091   0.845   2.281  16.315  1.4524  0.4877 -1.6536
12200TIP3    H258092   0.856   2.396  16.413  0.9388 -0.8170 -0.0214
12201TIP3   OH258093   1.272   4.508   5.387  0.2572  0.1501 -0.4668
12201TIP3    H158094   1.334   4.462   5.330  0.9566  0.8855 -0.3280
12201TIP3    H258095   1.306   4.598   5.390 -2.5301  1.4501 -2.9011
12202TIP3   OH258096   1.206   1.268  13.870 -0.2485  0.0207 -0.6210
12202TIP3    H158097   1.217   1.173  13.857  1.4133  0.1575 -0.4077
12202TIP3    H258098   1.290   1.297  13.905  0.5293  2.1421 -3.8669
12203TIP3   OH258099   2.833   2.742   2.843 -0.1025  0.0317  0.0282
12203TIP3    H158100   2.916   2.789   2.852 -0.5256  0.8754 -0.3771
12203TIP3    H258101   2.785   2.791   2.776 -0.8812 -0.5137  0.1772
12204TIP3   OH258102   0.429   0.942   4.529  0.6137 -0.3035 -0.2986
12204TIP3    H158103   0.468   1.020   4.491 -0.8175  1.2669  1.2773
12204TIP3    H258104   0.461   0.941   4.620  1.5068 -2.2159 -0.5750
12205TIP3   OH258105   3.606   3.850   5.917 -0.7290  0.4365 -0.0272
12205TIP3    H158106   3.678   3.882   5.971 -0.3917  2.1223 -1.3994
12205TIP3    H258107   3.530   3.853   5.975 -0.9379  4.7578 -0.1960
12206TIP3   OH258108   1.685   5.557   0.284  0.2922 -0.3515  0.1811
12206TIP3    H158109   1.592   5.538   0.271  0.1294  0.4603  0.0649
12206TIP3    H258110   1.686   5.640   0.332  0.9472  0.2977 -0.8879
12207TIP3   OH258111   1.321   4.618  13.679 -0.4241  0.2393 -0.3098
12207TIP3    H158112   1.389   4.672  13.639  0.7817 -1.3022 -0.4144
12207TIP3    H258113   1.350   4.605  13.769 -0.1180 -1.0919 -0.5741
12208TIP3   OH258114   3.838   4.682  13.834 -0.5945 -0.2657  0.0645
12208TIP3    H158115   3.816   4.625  13.907  4.1792  0.0116  2.0459
12208TIP3    H258116   3.810   4.769  13.862 -1.6125 -0.5977  0.1077
12209TIP3   OH258117   2.155   1.048  16.703  0.1702 -0.1562 -0.7594
12209TIP3    H158118   2.232   1.003  16.670 -0.3259 -0.3008 -1.7371
12209TIP3    H258119   2.166   1.046  16.798  1.5771  0.1975 -0.8797
12210TIP3   OH258120   0.181   0.992  11.516  0.2731 -0.1468 -0.0229
12210TIP3    H158121   0.214   0.903  11.504  0.2356 -0.1240 -0.2930
12210TIP3    H258122   0.087   0.985  11.501  0.4781  0.2310 -1.6704
12211TIP3   OH258123   3.539   3.996  11.725  0.2747  0.1234 -0.1890
12211TIP3    H158124   3.601   4.051  11.677  0.2603  0.9367  0.6821
12211TIP3    H258125   3.468   3.979  11.663  0.0726  1.4559 -0.3574
12212TIP3   OH258126   0.461   1.904   1.570  0.1893 -0.7270 -0.4861
12212TIP3    H158127   0.467   1.865   1.658 -2.2921  3.0950  1.6553
12212TIP3    H258128   0.402   1.846   1.523  1.0230 -2.5177  0.5469
12213TIP3   OH258129   5.654   3.854   2.728 -0.1710 -0.2655 -0.3674
12213TIP3    H158130   5.560   3.855   2.748 -0.0893  2.2290  0.1420
12213TIP3    H258131   5.658   3.829   2.636 -1.3798  0.1771 -0.5627
12214TIP3   OH258132   5.875   0.573  15.226  0.3418  0.1277  0.0011
12214TIP3    H158133   5.822   0.589  15.147  1.4563 -0.0975 -0.8168
12214TIP3    H258134   5.946   0.637  15.220  0.8186 -0.3571  0.4622
12215TIP3   OH258135   1.272   5.122  12.687 -0.4485 -0.0255  0.4128
12215TIP3    H158136   1.230   5.154  12.607 -1.1736 -0.1362  0.7397
12215TIP3    H258137   1.343   5.183  12.703 -0.4546  0.1454 -0.1753
12216TIP3   OH258138   0.776   1.289   3.147  0.4584  0.0985 -0.7154
12216TIP3    H158139   0.770   1.250   3.060 -0.2585 -0.7679 -0.2930
12216TIP3    H258140   0.867   1.273   3.174  0.7141  0.4709 -1.3405
12217TIP3   OH258141   6.629   2.721   6.107 -0.2579  0.0372  0.1098
12217TIP3    H158142   6.664   2.723   6.196  0.9403  0.6920 -0.3478
12217TIP3    H258143   6.552   2.665   6.113  1.0619 -1.7920  1.1160
12218TIP3   OH258144   2.872   1.476   2.666  0.6035  0.0132  0.3672
12218TIP3    H158145   2.811   1.523   2.722  0.2345 -0.5635  0.4565
12218TIP3    H258146   2.894   1.397   2.715  0.8180 -0.1597 -0.0021
12219TIP3   OH258147   4.471   2.272   1.948 -0.4124  0.3274  0.3724
12219TIP3    H158148   4.531   2.317   1.889  2.4476 -1.5777  1.5958
12219TIP3    H258149   4.499   2.298   2.036 -1.2613 -0.7319  0.9853
12220TIP3   OH258150   1.218   1.521  15.378  0.1856  0.1327 -0.3691
12220TIP3    H158151   1.184   1.486  15.295  0.6546 -0.0598 -0.4842
12220TIP3    H258152   1.311   1.534  15.361  0.3783 -0.3707  0.2897
12221TIP3   OH258153   0.409   4.252   1.053  0.5365  0.4733  0.1281
12221TIP3    H158154   0.488   4.210   1.020  0.3655  0.6454 -0.5266
12221TIP3    H258155   0.440   4.326   1.104  0.8473 -0.4705  1.3553
12222TIP3   OH258156   1.271   3.544  16.485  0.0367 -0.2060  0.8277
12222TIP3    H158157   1.330   3.615  16.458  0.1563 -0.2661  0.9331
12222TIP3    H258158   1.192   3.559  16.433  0.6781 -1.0054 -0.4262
12223TIP3   OH258159   4.557   1.459  16.776  0.0121 -0.1264 -0.0773
12223TIP3    H158160   4.477   1.495  16.816 -0.9055 -1.8940 -0.2269
12223TIP3    H258161   4.544   1.472  16.682 -0.7223 -1.5323 -0.1974
12224TIP3   OH258162   2.670   0.683   6.204  0.0716 -0.1742 -0.5413
12224TIP3    H158163   2.585   0.662   6.166  0.6827 -0.9259 -1.5480
12224TIP3    H258164   2.715   0.598   6.210  0.6998  0.1916  0.1105
12225TIP3   OH258165   4.631   0.944  16.039 -0.3231 -0.2056 -0.3390
12225TIP3    H158166   4.613   0.859  16.080  1.0539 -0.2654  0.1760
12225TIP3    H258167   4.564   0.952  15.971 -0.7081 -1.5300 -0.1460
12226TIP3   OH258168   5.377   1.207   4.228  0.6273  0.5312 -0.2292
12226TIP3    H158169   5.281   1.200   4.223  0.3124  0.1047  3.2972
12226TIP3    H258170   5.395   1.300   4.220 -0.3714  0.8827  1.2299
12227TIP3   OH258171   6.087   5.236  12.671  0.2366  0.1055  0.3952
12227TIP3    H158172   6.020   5.170  12.687 -0.8215  1.4775  2.0248
12227TIP3    H258173   6.056   5.284  12.594  1.2681 -1.5263 -1.1121
12228TIP3   OH258174   0.986   4.744  12.793  0.1031  0.1917 -0.3917
12228TIP3    H158175   0.961   4.756  12.702 -0.0908 -0.0818 -0.3769
12228TIP3    H258176   1.045   4.668  12.792 -0.2894 -0.1204 -0.2291
12229TIP3   OH258177   4.511   5.810  16.708 -0.3009 -0.5153  0.3098
12229TIP3    H158178   4.492   5.859  16.787 -0.5963 -2.2882  1.4043
12229TIP3    H258179   4.470   5.724  16.722  0.3097 -1.1506 -1.4235
12230TIP3   OH258180   6.123   1.797  14.603 -0.2480 -0.4766  0.2469
12230TIP3    H158181   6.208   1.841  14.600 -0.4771 -0.0119 -2.6791
12230TIP3    H258182   6.063   1.864  14.635 -0.0082  0.2612 -0.7954
12231TIP3   OH258183   4.985   1.202  14.900 -0.0894 -0.0882 -0.0659
12231TIP3    H158184   4.950   1.254  14.973  0.1686  0.1820 -0.1337
12231TIP3    H258185   4.977   1.259  14.824  0.5339  0.0021 -0.0766
12232TIP3   OH258186   0.136   3.143  12.287 -0.2278  0.3038 -0.2852
12232TIP3    H158187   0.054   3.100  12.310 -0.3818  0.5595 -0.3566
12232TIP3    H258188   0.196   3.118  12.358 -0.2152 -0.3086 -0.5071
12233TIP3   OH258189   6.393   2.031   2.448 -0.5304 -0.2168  0.1956
12233TIP3    H158190   6.441   1.949   2.455  0.6580  0.3205 -1.1102
12233TIP3    H258191   6.370   2.038   2.355  0.5499  1.5180  0.0164
12234TIP3   OH258192   3.352   6.603  15.310 -0.3011  0.2914 -1.0201
12234TIP3    H158193   3.397   6.601  15.226  1.7897 -1.2030  0.0343
12234TIP3    H258194   3.395   6.534  15.361 -3.8707 -1.2925  0.1097
12235TIP3   OH258195   4.957   6.040  14.470  0.1135 -0.7078  0.0207
12235TIP3    H158196   4.938   5.955  14.431  1.3563 -3.2664  4.3138
12235TIP3    H258197   4.891   6.051  14.538  1.2244  0.7334  0.9429
12236TIP3   OH258198   1.542   5.916  17.006  0.1072 -0.2026  0.1702
12236TIP3    H158199   1.533   5.956  16.919  1.6508  2.3990  1.0866
12236TIP3    H258200   1.601   5.842  16.992  0.7583  0.4890 -0.9370
12237TIP3   OH258201   4.695   1.545  11.119  0.0301  0.3541  0.5065
12237TIP3    H158202   4.774   1.506  11.157  0.5636  0.5839 -0.3299
12237TIP3    H258203   4.673   1.488  11.045 -0.6797  0.2047  0.8318
12238TIP3   OH258204   4.551   1.145   0.127 -0.0472  0.6539 -0.2407
12238TIP3    H158205   4.515   1.057   0.116  0.4172  0.3773  0.3709
12238TIP3    H258206   4.477   1.204   0.111 -0.1056  0.2002 -1.7359
12239TIP3   OH258207   0.180   0.718  12.216 -1.0636 -0.2796  0.0171
12239TIP3    H158208   0.186   0.811  12.193 -0.4109 -0.4045 -0.3422
12239TIP3    H258209   0.138   0.678  12.140 -1.1233 -0.3151  0.0690
12240TIP3   OH258210   1.760   2.900  14.377 -0.1769  0.5482 -0.3371
12240TIP3    H158211   1.711   2.953  14.315 -1.3222 -0.7378 -0.5577
12240TIP3    H258212   1.734   2.810  14.359  3.6480 -0.4569 -1.7321
12241TIP3   OH258213   0.261   1.703   1.005 -0.3778  0.1222  0.1282
12241TIP3    H158214   0.285   1.626   0.953  2.8452  0.2620  1.2052
12241TIP3    H258215   0.185   1.675   1.056 -0.9936 -1.3767 -1.5127
12242TIP3   OH258216   6.040   5.745  10.967  0.1214 -0.1071 -0.0064
12242TIP3    H158217   6.056   5.824  11.019 -0.8252  1.7733 -2.3920
12242TIP3    H258218   5.945   5.731  10.976  0.3301 -1.1930  0.6339
12243TIP3   OH258219   4.773   4.871   0.586  0.1482 -0.2169  0.1779
12243TIP3    H158220   4.825   4.832   0.516 -1.3380 -1.1916 -0.4207
12243TIP3    H258221   4.806   4.961   0.593 -0.8219  0.5067 -3.0182
12244TIP3   OH258222   2.717   6.569   1.654  0.1004 -0.2018 -0.5494
12244TIP3    H158223   2.704   6.499   1.589  0.3504  1.2322 -2.2072
12244TIP3    H258224   2.694   6.649   1.608  1.6761  1.0264  0.6955
12245TIP3   OH258225   6.702   4.166  12.416 -0.8420 -0.3073  0.3642
12245TIP3    H158226   6.644   4.168  12.492 -0.7137  2.3796  0.4992
12245TIP3    H258227   6.731   4.257  12.406  1.0500 -1.0322 -1.4612
12246TIP3   OH258228   1.437   4.434   3.823 -0.3448  0.2983 -0.4848
12246TIP3    H158229   1.480   4.349   3.833  2.3719  1.5053 -1.0938
12246TIP3    H258230   1.477   4.472   3.745 -2.7986  1.4631 -1.2865
12247TIP3   OH258231   1.291   2.255   5.922 -0.0776  0.2108 -0.7068
12247TIP3    H158232   1.206   2.268   5.966 -0.6181  1.6291 -2.0486
12247TIP3    H258233   1.332   2.183   5.969 -2.4850 -1.2400 -0.6645
12248TIP3   OH258234   0.070   3.146   6.089 -0.1232  0.2901 -0.4558
12248TIP3    H158235   0.010   3.101   6.148 -1.0960  1.3785 -0.5828
12248TIP3    H258236   0.113   3.212   6.144  0.3134  0.1086 -0.5712
12249TIP3   OH258237   4.564   1.953  11.320 -0.5635 -0.4090 -0.0674
12249TIP3    H158238   4.586   1.865  11.288 -1.7226 -0.0412 -2.0238
12249TIP3    H258239   4.648   1.996  11.330 -0.0407 -1.2813 -0.5403
12250TIP3   OH258240   1.753   0.380  16.871 -0.0832  0.1255 -0.5023
12250TIP3    H158241   1.765   0.466  16.911 -0.4788  0.4194 -1.0029
12250TIP3    H258242   1.770   0.318  16.942  0.2952  0.6125 -0.1612
12251TIP3   OH258243   3.707   1.389  13.755 -0.0235  0.1838  0.0730
12251TIP3    H158244   3.715   1.312  13.700  0.7780  0.2246  0.1160
12251TIP3    H258245   3.714   1.463  13.695 -0.7759  0.2248  0.0338
12252TIP3   OH258246   1.694   1.772  14.424 -0.1203  0.1406  0.0141
12252TIP3    H158247   1.697   1.845  14.486  2.6325 -1.1768  1.6534
12252TIP3    H258248   1.735   1.806  14.345  1.5589  0.3384  0.9161
12253TIP3   OH258249   5.868   1.460  11.859  0.1138  0.6432  0.3266
12253TIP3    H158250   5.906   1.379  11.893  1.6550  1.0965 -0.2490
12253TIP3    H258251   5.898   1.465  11.769  0.7688  2.2648  0.5953
12254TIP3   OH258252   6.247   0.644   1.887 -0.0244 -0.1155 -0.0059
12254TIP3    H158253   6.230   0.651   1.981  2.1917  1.6766  0.3474
12254TIP3    H258254   6.181   0.701   1.846 -0.2968 -0.0264  0.5539
12255TIP3   OH258255   4.002   1.415   2.013  0.1826  0.3467  0.2170
12255TIP3    H158256   4.026   1.393   1.923  2.5069  0.1340  0.8485
12255TIP3    H258257   4.054   1.356   2.067  0.1455  1.6670  1.7518
12256TIP3   OH258258   4.635   5.200  13.844  0.5466 -0.3036 -0.5772
12256TIP3    H158259   4.639   5.267  13.912  0.3627  0.3854 -1.2313
12256TIP3    H258260   4.545   5.167  13.847  0.9737 -1.4412  0.5915
12257TIP3   OH258261   4.975   1.294  11.035  0.4207  0.2392 -0.2549
12257TIP3    H158262   4.917   1.353  10.987  0.5966  0.6132 -0.0023
12257TIP3    H258263   5.051   1.282  10.978  0.2453  0.0061 -0.4430
12258TIP3   OH258264   3.189   6.366  13.270 -0.3501  0.1815  0.4185
12258TIP3    H158265   3.105   6.324  13.288 -0.2858  0.0212  0.3473
12258TIP3    H258266   3.179   6.403  13.183  0.5448 -2.1453 -0.7425
12259TIP3   OH258267   0.962   4.934  14.708  0.8294 -0.4159  0.0513
12259TIP3    H158268   0.923   5.017  14.677  1.1820 -0.8269 -1.5991
12259TIP3    H258269   1.056   4.950  14.707  0.8904 -0.7911 -0.1281
12260TIP3   OH258270   0.205   1.625  15.545 -0.0685 -0.2763  0.0182
12260TIP3    H158271   0.186   1.718  15.552 -3.6760 -0.9175  0.5934
12260TIP3    H258272   0.199   1.607  15.451 -0.9138 -0.1761  0.0468
12261TIP3   OH258273   6.034   2.756  11.182  0.0725 -0.0797  0.0296
12261TIP3    H158274   6.024   2.662  11.164  2.2279 -0.1046 -1.4450
12261TIP3    H258275   5.987   2.799  11.111  0.0379 -0.0572  0.0664
12262TIP3   OH258276   3.011   0.272   0.268 -0.2383 -0.0749 -0.1268
12262TIP3    H158277   2.979   0.334   0.333  0.8542 -0.7600  1.1196
12262TIP3    H258278   3.017   0.189   0.315  0.4406 -0.6302 -1.1441
12263TIP3   OH258279   2.512   1.581  10.903  0.0215  0.4531 -0.0559
12263TIP3    H158280   2.597   1.624  10.916 -0.1602  0.2229  2.4823
12263TIP3    H258281   2.531   1.488  10.910 -0.3015  0.3490 -0.5576
12264TIP3   OH258282   1.913   0.348   1.482  0.1385 -0.1961 -0.2235
12264TIP3    H158283   1.982   0.339   1.548  0.6888  2.8355 -0.2117
12264TIP3    H258284   1.840   0.298   1.515  0.2068  1.6037  3.0457
12265TIP3   OH258285   1.162   6.103   0.941  0.2006  0.2923  0.1308
12265TIP3    H158286   1.127   6.184   0.980  0.4110 -0.4431  1.9573
12265TIP3    H258287   1.237   6.081   0.996  0.1449 -1.1455 -0.3274
12266TIP3   OH258288   6.446   5.043  11.541 -0.4274  0.0093 -0.7983
12266TIP3    H158289   6.519   4.987  11.518  0.3377 -0.1949  1.7438
12266TIP3    H258290   6.449   5.114  11.477  2.8974  0.7304 -0.0601
12267TIP3   OH258291   3.197   3.105   4.282 -0.0789  0.0128 -0.7031
12267TIP3    H158292   3.130   3.136   4.342  1.5681  1.4384  0.5279
12267TIP3    H258293   3.150   3.054   4.216 -2.3908  1.3779 -0.2046
12268TIP3   OH258294   6.661   6.325  14.111  0.0564  0.3513 -0.0209
12268TIP3    H158295   6.677   6.301  14.020  3.3109 -1.4639  0.8946
12268TIP3    H258296   6.644   6.242  14.155  0.4982  0.9638  1.3570
12269TIP3   OH258297   6.162   5.657  13.094 -0.4851  0.9210  0.3333
12269TIP3    H158298   6.240   5.668  13.040 -0.8488  0.5434 -0.2744
12269TIP3    H258299   6.096   5.622  13.035 -1.4952  2.3695  0.5534
12270TIP3   OH258300   4.730   6.514   2.460  0.2629  0.5432  0.2206
12270TIP3    H158301   4.694   6.429   2.434 -0.8206  1.3968 -1.2445
12270TIP3    H258302   4.824   6.499   2.470  0.0464 -0.8817  0.3005
12271TIP3   OH258303   5.525   0.163  11.233 -0.6279  0.0892 -1.0744
12271TIP3    H158304   5.519   0.189  11.141  2.9189  0.6968 -1.2879
12271TIP3    H258305   5.485   0.076  11.237 -0.5163 -0.1046 -3.2674
12272TIP3   OH258306   1.176   1.608  11.235 -0.0147  0.0177 -0.0017
12272TIP3    H158307   1.244   1.632  11.171  0.4462  0.1236  0.5252
12272TIP3    H258308   1.096   1.601  11.182  0.3811 -0.0109 -0.6133
12273TIP3   OH258309   0.264   4.383  12.166 -0.0297 -0.8500 -0.4836
12273TIP3    H158310   0.227   4.449  12.224 -0.2520 -2.4709  1.3083
12273TIP3    H258311   0.353   4.370  12.197 -0.1579 -1.7635 -0.4728
12274TIP3   OH258312   1.649   3.514  14.047  0.4101  0.3757  0.1132
12274TIP3    H158313   1.670   3.449  14.113  0.5888  0.5075  0.1873
12274TIP3    H258314   1.713   3.499  13.977  0.1043  0.1167 -0.1116
12275TIP3   OH258315   0.383   3.200   0.177 -0.2410  0.0860  0.8387
12275TIP3    H158316   0.458   3.225   0.123  1.0481 -0.2973  2.3760
12275TIP3    H258317   0.399   3.242   0.261 -1.1281 -0.9695  1.5588
12276TIP3   OH258318   2.768   6.465   2.902  0.0612  0.4648  0.4691
12276TIP3    H158319   2.855   6.505   2.895  0.4017 -0.3091  0.2710
12276TIP3    H258320   2.784   6.372   2.916 -0.7257 -0.0457 -1.6527
12277TIP3   OH258321   4.109   2.562  16.460  0.5537 -0.1329  1.0696
12277TIP3    H158322   4.015   2.554  16.475 -0.1037  0.1724 -2.2613
12277TIP3    H258323   4.118   2.635  16.398  2.9622 -0.3549  1.0491
12278TIP3   OH258324   1.315   4.383  15.390  0.5257 -0.5877 -0.4079
12278TIP3    H158325   1.310   4.302  15.440  1.2132 -1.5786 -1.8792
12278TIP3    H258326   1.406   4.412  15.399  0.3851 -0.1984 -0.2185
12279TIP3   OH258327   1.779   3.030   3.732 -0.1684 -0.1030  0.0435
12279TIP3    H158328   1.856   3.009   3.678  0.8942  0.5806  1.2220
12279TIP3    H258329   1.722   2.954   3.724  0.0364 -0.1253 -1.8433
12280TIP3   OH258330   5.821   4.242  15.416  0.3363  0.0468  0.1035
12280TIP3    H158331   5.836   4.296  15.493  1.9846 -3.0077  2.0853
12280TIP3    H258332   5.824   4.304  15.343  0.3006  2.8336  2.2955
12281TIP3   OH258333   4.757   5.154  15.756 -0.5102  0.5109 -0.0050
12281TIP3    H158334   4.694   5.166  15.826 -1.1425 -0.7125 -0.3417
12281TIP3    H258335   4.750   5.062  15.731  0.7976  0.5430 -0.6357
12282TIP3   OH258336   5.252   1.509  13.428 -0.3376 -0.4173  0.2371
12282TIP3    H158337   5.233   1.475  13.340 -1.4783 -0.4861  0.4836
12282TIP3    H258338   5.345   1.492  13.442 -0.5479 -2.1373 -0.2203
12283TIP3   OH258339   6.432   4.152  14.583 -0.4148  0.6122  1.0492
12283TIP3    H158340   6.471   4.065  14.594 -1.0609  0.5380  3.1897
12283TIP3    H258341   6.503   4.213  14.603  0.1904  0.6468 -0.9814
12284TIP3   OH258342   1.716   6.116  15.799 -0.6014  0.0962 -0.1107
12284TIP3    H158343   1.707   6.204  15.835 -1.2965  0.1011 -0.2703
12284TIP3    H258344   1.809   6.094  15.809 -0.9544 -0.4050  2.8025
12285TIP3   OH258345   1.340   3.723   3.998 -0.2345  0.2648  0.0362
12285TIP3    H158346   1.322   3.779   3.923  0.8267  0.8419  0.1914
12285TIP3    H258347   1.418   3.761   4.039 -1.6381  0.8739  2.3370
12286TIP3   OH258348   5.670   3.095  15.182  0.1288 -0.3349 -0.4437
12286TIP3    H158349   5.623   3.168  15.223 -1.8481 -1.2702 -0.9224
12286TIP3    H258350   5.638   3.017  15.227  2.3964 -0.9622  0.2453
12287TIP3   OH258351   6.651   4.921   1.703  0.0402  0.3868  0.2714
12287TIP3    H158352   6.736   4.965   1.713 -0.2443  0.8350  0.8438
12287TIP3    H258353   6.617   4.951   1.619  0.2296  0.6071  0.2732
12288TIP3   OH258354   6.451   6.562   6.820  0.3787  0.0320 -0.3106
12288TIP3    H158355   6.383   6.533   6.881  0.3075  0.0632 -0.3761
12288TIP3    H258356   6.531   6.521   6.853  0.3731  0.1993 -0.0835
12289TIP3   OH258357   5.281   5.770   0.530 -0.2110  1.0938  0.2204
12289TIP3    H158358   5.268   5.692   0.476 -0.5065  0.3728  1.2885
12289TIP3    H258359   5.309   5.735   0.615 -0.8746  2.1133  0.8774
12290TIP3   OH258360   2.342   4.842   1.299 -0.0672 -0.5008  0.9926
12290TIP3    H158361   2.437   4.838   1.306 -0.0134 -0.6020  0.2193
12290TIP3    H258362   2.311   4.783   1.368  0.4670 -2.0447 -0.0485
12291TIP3   OH258363   2.888   1.241  15.116  0.1119 -0.4328 -0.5017
12291TIP3    H158364   2.974   1.219  15.152 -0.1186  1.6394  1.5220
12291TIP3    H258365   2.828   1.233  15.191 -0.8731  1.3220 -1.0530
12292TIP3   OH258366   2.813   0.631  12.794 -0.1435  0.1381  0.6913
12292TIP3    H158367   2.717   0.624  12.795 -0.1108 -0.3958  0.3249
12292TIP3    H258368   2.832   0.690  12.721 -0.2485  1.3565  1.6122
12293TIP3   OH258369   1.119   5.313  15.641 -0.0360  0.3620  0.3024
12293TIP3    H158370   1.131   5.258  15.718 -0.7348  0.8516  0.7608
12293TIP3    H258371   1.177   5.273  15.575 -1.2786 -1.5596  0.2839
12294TIP3   OH258372   2.074   6.676   2.992 -0.1279 -0.1781 -0.0004
12294TIP3    H158373   2.154   6.716   2.959 -0.0075 -0.8681 -0.5597
12294TIP3    H258374   2.057   6.603   2.933 -0.4708 -0.8210  0.8754
12295TIP3   OH258375   5.410   0.811  12.981 -0.2987 -0.0970 -0.3102
12295TIP3    H158376   5.445   0.891  12.942 -0.1075 -0.1792 -0.3081
12295TIP3    H258377   5.417   0.826  13.076  2.3160 -1.2102 -0.2630
12296TIP3   OH258378   5.601   4.978  12.182  0.3515 -0.5639 -0.0490
12296TIP3    H158379   5.560   5.059  12.154  0.9499 -0.7292 -1.5190
12296TIP3    H258380   5.557   4.955  12.264 -1.6933 -0.1671 -0.9765
12297TIP3   OH258381   1.029   6.388   1.337  0.0647  0.2716  0.1046
12297TIP3    H158382   1.109   6.353   1.375  0.2590  0.6189  0.0175
12297TIP3    H258383   1.030   6.480   1.360 -1.2006 -0.0577  1.6612
12298TIP3   OH258384   3.067   4.577   2.838 -0.1166  0.0384 -0.0802
12298TIP3    H158385   3.061   4.557   2.745 -0.7918  0.5164 -0.1539
12298TIP3    H258386   2.995   4.528   2.878 -0.0636  0.1311  0.1333
12299TIP3   OH258387   4.921   5.421  16.493 -0.0946  0.2474 -0.3524
12299TIP3    H158388   4.861   5.354  16.461  0.9699 -0.7870 -0.2383
12299TIP3    H258389   4.994   5.421  16.430  1.3179 -0.7970  1.1882
12300TIP3   OH258390   2.639   0.489  16.151  0.1251 -0.4826  0.0405
12300TIP3    H158391   2.688   0.506  16.070  0.4677 -1.5065  0.0279
12300TIP3    H258392   2.569   0.430  16.125  0.3918 -1.0271  0.5371
12301TIP3   OH258393   5.105   3.580   1.213  0.2612  0.5969  0.4038
12301TIP3    H158394   5.035   3.588   1.277  0.2281  1.1511  0.3045
12301TIP3    H258395   5.183   3.611   1.258  0.8921 -1.8510  1.1843
12302TIP3   OH258396   4.155   5.354  15.037 -0.1382  0.2502 -0.2416
12302TIP3    H158397   4.101   5.433  15.027  0.6452  1.0437  1.4629
12302TIP3    H258398   4.230   5.369  14.980 -0.2559  0.4983 -0.3327
12303TIP3   OH258399   3.994   6.376   3.054 -0.3556 -0.3397  0.0560
12303TIP3    H158400   3.918   6.364   3.110 -2.4164  0.8483 -2.2980
12303TIP3    H258401   3.999   6.297   3.001 -1.1677  0.3460 -1.0901
12304TIP3   OH258402   2.310   0.216   1.439 -0.0429 -0.2347  0.1073
12304TIP3    H158403   2.396   0.193   1.405 -0.4341  0.5772 -1.5720
12304TIP3    H258404   2.292   0.302   1.401 -0.6542  0.6398  2.2568
12305TIP3   OH258405   0.806   4.095   0.688  0.8602 -0.9261 -0.8573
12305TIP3    H158406   0.743   4.145   0.739  1.5506  0.5191 -1.3719
12305TIP3    H258407   0.873   4.068   0.751  1.8875  1.1325 -0.9789
12306TIP3   OH258408   1.390   5.255   2.478  0.0179 -0.1539  0.3013
12306TIP3    H158409   1.353   5.319   2.539 -0.0344  0.8690 -0.7698
12306TIP3    H258410   1.315   5.225   2.426  0.5126  1.5739 -1.5559
12307TIP3   OH258411   3.386   4.665  15.985  0.1523  0.2861  0.0240
12307TIP3    H158412   3.417   4.589  15.936 -1.6291 -0.8968  0.6237
12307TIP3    H258413   3.346   4.721  15.919  0.8406  0.3668 -0.3285
12308TIP3   OH258414   0.962   4.504  12.640 -0.0530  0.7054  0.6652
12308TIP3    H158415   0.908   4.522  12.716 -1.4731  2.2544 -0.6452
12308TIP3    H258416   0.911   4.535  12.565  0.3902 -2.4841 -1.1867
12309TIP3   OH258417   0.332   3.915  15.548  0.3289 -0.1927  0.0003
12309TIP3    H158418   0.362   4.004  15.570 -1.8711  1.3192 -2.5495
12309TIP3    H258419   0.237   3.918  15.561 -0.0497 -1.5018 -2.0240
12310TIP3   OH258420   2.675   1.130   4.272 -0.5464  0.3793  0.3795
12310TIP3    H158421   2.607   1.069   4.300 -1.1267 -0.0553 -1.7908
12310TIP3    H258422   2.639   1.216   4.291 -1.0818  0.1125  0.6000
12311TIP3   OH258423   4.629   5.636   2.214 -0.3664  0.2634 -0.2754
12311TIP3    H158424   4.632   5.547   2.250 -0.6575 -0.3775 -1.7970
12311TIP3    H258425   4.662   5.627   2.125  2.1698  2.1308  0.3418
12312TIP3   OH258426   1.222   2.600   1.939 -0.0748 -0.0034  0.2878
12312TIP3    H158427   1.258   2.647   1.862  0.2243 -0.4040  0.1800
12312TIP3    H258428   1.297   2.551   1.973  0.0831  1.0321  1.5039
12313TIP3   OH258429   3.549   3.425  11.740  0.7669  0.4018  0.3131
12313TIP3    H158430   3.641   3.448  11.726  1.8605 -3.3582  0.2042
12313TIP3    H258431   3.524   3.473  11.819  3.6806 -0.2925  1.8003
12314TIP3   OH258432   1.878   6.386  14.316 -0.1262 -0.1998  0.4165
12314TIP3    H158433   1.910   6.363  14.229  1.0984 -1.9178  1.2878
12314TIP3    H258434   1.831   6.469  14.302  0.1907 -0.3300 -1.8268
12315TIP3   OH258435   2.930   4.751   1.304 -0.8148 -0.1704  0.5227
12315TIP3    H158436   2.993   4.685   1.333  1.0007  1.2868  0.0690
12315TIP3    H258437   2.851   4.701   1.282  1.3389 -2.5927 -2.5077
12316TIP3   OH258438   0.732   0.335   5.547 -0.6034  0.4756 -0.2535
12316TIP3    H158439   0.666   0.269   5.569  0.1478 -0.9609 -1.9901
12316TIP3    H258440   0.807   0.313   5.603 -0.0938 -0.6707 -1.3374
12317TIP3   OH258441   1.767   2.410   4.593 -0.2630 -0.1966 -0.1981
12317TIP3    H158442   1.816   2.367   4.523  0.4154 -0.8685  0.6620
12317TIP3    H258443   1.754   2.499   4.561 -0.4623 -0.6309 -1.4093
12318TIP3   OH258444   5.271   0.172  16.487  1.0354  0.1848  0.5763
12318TIP3    H158445   5.188   0.191  16.532  2.2161 -1.9423  3.9591
12318TIP3    H258446   5.339   0.201  16.548  2.7623 -3.3567  0.5696
12319TIP3   OH258447   6.605   4.979   3.413  0.4250  0.3075  0.0049
12319TIP3    H158448   6.676   5.043   3.406 -0.5554  1.2422 -1.9399
12319TIP3    H258449   6.650   4.894   3.411  1.5680  0.8794  0.2636
12320TIP3   OH258450   0.135   1.237   3.777 -0.1694  0.0869  0.8828
12320TIP3    H158451   0.193   1.186   3.721  1.8246  1.5986  1.4476
12320TIP3    H258452   0.081   1.288   3.717 -0.8037 -1.1591  0.3559
12321TIP3   OH258453   5.212   5.789  12.002 -0.2879 -0.0481  0.3782
12321TIP3    H158454   5.149   5.816  12.069 -1.5040 -1.1062 -0.2860
12321TIP3    H258455   5.282   5.747  12.051  1.3180  3.4291  1.3759
12322TIP3   OH258456   5.006   5.037   6.521  0.5990  0.1481 -0.0712
12322TIP3    H158457   5.045   4.997   6.598  1.6081  1.9120  0.3841
12322TIP3    H258458   4.931   5.087   6.555 -0.3121 -0.8459 -0.5549
12323TIP3   OH258459   3.115   0.993  11.596 -0.5042 -0.6995 -0.0714
12323TIP3    H158460   3.089   0.975  11.505 -0.1893 -0.4280 -0.2162
12323TIP3    H258461   3.189   0.934  11.611 -0.3854 -0.5520 -0.0790
12324TIP3   OH258462   2.239   5.475  13.631 -0.2175  1.0798  0.4578
12324TIP3    H158463   2.256   5.391  13.588 -2.0256  0.5281  0.7380
12324TIP3    H258464   2.264   5.541  13.566  2.4608  0.4168  0.6953
12325TIP3   OH258465   6.258   4.216   0.447 -0.3003  0.5608  0.2466
12325TIP3    H158466   6.235   4.188   0.535 -0.4753 -1.3182 -0.3527
12325TIP3    H258467   6.178   4.255   0.412 -1.0610 -1.1015  0.0315
12326TIP3   OH258468   2.053   0.896  16.509 -0.2215 -0.9124 -0.3739
12326TIP3    H158469   2.148   0.889  16.502 -0.2266 -0.8150 -0.5439
12326TIP3    H258470   2.038   0.957  16.582 -0.1207  0.8692 -1.7719
12327TIP3   OH258471   0.497   4.439  12.576  0.4854  0.0006 -0.2594
12327TIP3    H158472   0.454   4.369  12.625 -0.4652  0.7650  0.0193
12327TIP3    H258473   0.569   4.468  12.633  0.7987 -0.6428 -0.3181
12328TIP3   OH258474   3.904   6.583  14.331  0.0237  0.0130  0.0242
12328TIP3    H158475   3.934   6.565  14.242  1.6710 -0.7048  0.6843
12328TIP3    H258476   3.973   6.547  14.387 -0.8571  0.6791  1.5896
12329TIP3   OH258477   4.849   3.289   6.085 -0.3931  0.3300  0.1670
12329TIP3    H158478   4.893   3.326   6.008 -0.6352 -0.2319 -0.2445
12329TIP3    H258479   4.866   3.353   6.155 -0.2230  0.8763 -0.3626
12330TIP3   OH258480   1.266   0.706   4.434 -0.0471 -0.0210 -0.2430
12330TIP3    H158481   1.325   0.669   4.368 -1.0944 -3.1793  0.4447
12330TIP3    H258482   1.185   0.723   4.387  0.1522  0.6642 -0.3607
12331TIP3   OH258483   4.737   5.641  15.632 -0.1010  0.1353  0.1268
12331TIP3    H158484   4.808   5.677  15.686  0.4301  0.0068 -0.4743
12331TIP3    H258485   4.778   5.571  15.581 -0.5156  0.4626 -0.6771
12332TIP3   OH258486   3.063   2.093   4.265 -0.3078  0.0652  0.3260
12332TIP3    H158487   3.132   2.028   4.271 -0.1091  0.2002 -0.3796
12332TIP3    H258488   3.030   2.102   4.354 -0.4928 -1.1639  0.3931
12333TIP3   OH258489   2.003   4.604  11.501 -0.3329  0.2008  0.1954
12333TIP3    H158490   1.943   4.679  11.506 -0.8468 -0.2420  0.9202
12333TIP3    H258491   2.080   4.638  11.456 -0.3941  1.2787  0.8769
12334TIP3   OH258492   2.946   5.601   5.267  0.1679 -0.4618 -0.4150
12334TIP3    H158493   3.017   5.623   5.327 -0.5495  0.3804  0.1415
12334TIP3    H258494   2.884   5.551   5.319 -0.1304 -0.3269 -0.6341
12335TIP3   OH258495   6.780   5.139   4.911  0.0412 -0.0856  0.7937
12335TIP3    H158496   6.835   5.061   4.912  0.7152  0.3879  1.0628
12335TIP3    H258497   6.708   5.119   4.971 -0.2895 -0.8494  0.1554
12336TIP3   OH258498   3.493   3.698  10.866 -0.3911  0.0528  0.0616
12336TIP3    H158499   3.417   3.656  10.906 -0.8383 -1.6496 -2.3345
12336TIP3    H258500   3.568   3.651  10.901 -0.6091  0.0541  0.5339
12337TIP3   OH258501   4.164   0.902   5.497 -0.0124  0.0691 -0.1264
12337TIP3    H158502   4.163   0.993   5.524  0.2722 -0.0216  0.1912
12337TIP3    H258503   4.112   0.856   5.563 -1.0613  0.1542 -0.8583
12338TIP3   OH258504   2.336   1.835   2.402 -0.3392 -0.1931  0.4994
12338TIP3    H158505   2.389   1.791   2.334 -0.0218  0.3678  0.3823
12338TIP3    H258506   2.268   1.771   2.424 -0.7840 -0.1775 -0.7491
12339TIP3   OH258507   6.226   0.842  13.772 -0.0348 -0.5274 -0.2354
12339TIP3    H158508   6.300   0.881  13.818  0.0133 -0.8637 -0.0303
12339TIP3    H258509   6.149   0.872  13.820 -0.0133 -0.4621 -0.2423
12340TIP3   OH258510   1.366   1.607   2.723 -0.0482  0.5286  0.3768
12340TIP3    H158511   1.347   1.525   2.768 -1.0666 -0.6227 -1.9854
12340TIP3    H258512   1.427   1.583   2.653  0.5869  2.0184  0.3761
12341TIP3   OH258513   5.654   1.096  13.395  0.1731 -0.2724  0.4412
12341TIP3    H158514   5.719   1.027  13.394  1.0110  0.4541  1.8364
12341TIP3    H258515   5.670   1.144  13.476 -0.5304  1.4136 -0.3456
12342TIP3   OH258516   3.622   1.597  11.142 -0.4252  0.3744 -0.4851
12342TIP3    H158517   3.592   1.523  11.089  0.2416 -0.2520 -0.0081
12342TIP3    H258518   3.574   1.672  11.107  0.2911  0.0582 -2.2675
12343TIP3   OH258519   6.767   1.778   0.087 -0.3409  0.4505 -0.1177
12343TIP3    H158520   6.799   1.856   0.133  1.4063 -0.8092  0.9062
12343TIP3    H258521   6.833   1.760   0.021 -1.8163  1.0348 -1.8482
12344TIP3   OH258522   2.044   1.246   1.782  0.1241  0.0215 -0.2881
12344TIP3    H158523   1.970   1.261   1.841 -0.5240 -0.9073 -0.8396
12344TIP3    H258524   2.077   1.334   1.762 -1.0050  0.4610 -0.2615
12345TIP3   OH258525   1.900   5.620   5.861  0.4900  0.4355 -0.2389
12345TIP3    H158526   1.957   5.579   5.797  0.9317  0.4569  0.1376
12345TIP3    H258527   1.958   5.643   5.934  0.4390  2.5355 -0.8022
12346TIP3   OH258528   5.168   3.526   2.567 -0.2960  0.5730  0.4979
12346TIP3    H158529   5.240   3.464   2.558  0.0456  0.8556  1.2432
12346TIP3    H258530   5.120   3.518   2.484  0.6000  0.4029 -0.0208
12347TIP3   OH258531   0.513   1.095   2.448 -0.1550  0.1924 -0.1335
12347TIP3    H158532   0.462   1.017   2.469 -1.0498  1.2955  2.0379
12347TIP3    H258533   0.603   1.062   2.441 -0.4266 -0.9969  1.2713
12348TIP3   OH258534   1.905   3.030   0.033 -0.0269  0.5187  0.4297
12348TIP3    H158535   1.851   2.952   0.022 -1.0992  1.1445  1.0026
12348TIP3    H258536   1.995   2.997   0.037 -0.3780 -0.5774 -0.3132
12349TIP3   OH258537   5.683   0.983  11.822 -0.6460  0.3794 -0.2905
12349TIP3    H158538   5.697   1.064  11.871  0.4941  0.3230 -0.5025
12349TIP3    H258539   5.590   0.964  11.834 -1.3760  2.6681 -1.6920
12350TIP3   OH258540   2.717   5.873   4.773  0.3331 -0.4367  0.6483
12350TIP3    H158541   2.675   5.915   4.698  1.3196 -3.5853 -1.8781
12350TIP3    H258542   2.810   5.888   4.761  0.4779 -0.3963  1.6796
12351TIP3   OH258543   5.146   2.371  15.753  0.2466 -0.1397  0.1870
12351TIP3    H158544   5.229   2.325  15.761  0.5872  0.3628 -0.3622
12351TIP3    H258545   5.095   2.317  15.692 -0.3494 -1.1540  1.5429
12352TIP3   OH258546   6.536   1.540  13.721  0.2443  0.0081  0.5256
12352TIP3    H158547   6.588   1.504  13.793  1.9294  0.9263 -0.1777
12352TIP3    H258548   6.535   1.470  13.655  0.6535 -0.0013  0.5249
12353TIP3   OH258549   5.445   2.105  17.062 -0.3974 -0.2058 -0.5881
12353TIP3    H158550   5.434   2.190  17.020  2.4198  1.0117  0.8588
12353TIP3    H258551   5.369   2.097  17.120 -0.1840  1.8665  0.0532
12354TIP3   OH258552   3.542   4.122  17.144 -0.3130 -0.4629 -0.7624
12354TIP3    H158553   3.545   4.091  17.054  1.3752  0.7384 -1.1624
12354TIP3    H258554   3.613   4.074  17.188 -0.9419 -0.8373 -0.1376
12355TIP3   OH258555   6.778   4.435   0.522 -0.1136 -0.5194  0.2975
12355TIP3    H158556   6.746   4.492   0.592  1.3987  1.2046 -0.3356
12355TIP3    H258557   6.733   4.465   0.444  0.2994 -0.5355  0.0490
12356TIP3   OH258558   4.892   6.148   2.607  0.0442  0.1430 -0.0097
12356TIP3    H158559   4.908   6.240   2.630  0.6114  0.0169  0.1201
12356TIP3    H258560   4.799   6.144   2.588 -0.1119  0.6155  0.6115
12357TIP3   OH258561   0.240   1.255   5.499 -0.1927  0.1625  0.3219
12357TIP3    H158562   0.149   1.268   5.472 -0.2143 -1.2138 -0.3455
12357TIP3    H258563   0.268   1.342   5.529 -1.5335  0.7476 -0.0209
12358TIP3   OH258564   0.421   0.034   0.080  0.5036 -0.8133 -0.4784
12358TIP3    H158565   0.484   0.090   0.034 -1.8558  2.8538  0.3094
12358TIP3    H258566   0.407   0.079   0.163 -1.3615 -2.8363  0.3743
12359TIP3   OH258567   1.130   1.054   3.408  0.1039  0.9169 -0.3194
12359TIP3    H158568   1.040   1.030   3.385  0.2201  0.2382 -0.0655
12359TIP3    H258569   1.185   0.995   3.358  0.3630 -0.9471  1.9993
12360TIP3   OH258570   0.445   4.510  14.690  0.5482 -0.3664  0.2938
12360TIP3    H158571   0.482   4.597  14.709 -2.1880  1.5411 -2.3171
12360TIP3    H258572   0.384   4.494  14.762  0.0739  0.5308  0.1065
12361TIP3   OH258573   3.673   1.909  15.689  0.6421 -0.4996  0.2167
12361TIP3    H158574   3.690   1.980  15.627  0.3699  0.6225  1.3789
12361TIP3    H258575   3.660   1.953  15.773  0.9909 -1.9726  1.0813
12362TIP3   OH258576   3.037   6.096  12.614  0.2183  0.2037  0.0877
12362TIP3    H158577   3.084   6.013  12.606  0.3385  0.3038 -0.2421
12362TIP3    H258578   2.996   6.110  12.529 -0.5072  0.0631  0.4049
12363TIP3   OH258579   4.798   4.272  12.227  0.0419  0.7324 -0.1214
12363TIP3    H158580   4.831   4.357  12.254  0.6267  1.0405 -1.6954
12363TIP3    H258581   4.739   4.245  12.298  1.0537  1.7081  1.1543
12364TIP3   OH258582   3.644   0.671  13.189  0.1451  0.3600 -0.3794
12364TIP3    H158583   3.620   0.688  13.279  3.3512 -0.1722  0.7158
12364TIP3    H258584   3.651   0.575  13.183 -0.3672  0.3670 -1.3056
12365TIP3   OH258585   5.883   5.559  14.123 -0.4534 -0.2985 -0.4861
12365TIP3    H158586   5.844   5.644  14.143 -0.5051 -0.2662 -0.7198
12365TIP3    H258587   5.941   5.576  14.049 -0.3110 -0.4280 -0.4050
12366TIP3   OH258588   4.304   0.435  16.608 -0.4819 -0.5314 -0.2887
12366TIP3    H158589   4.273   0.379  16.679 -0.4721 -1.0614 -0.6942
12366TIP3    H258590   4.238   0.426  16.540 -0.1700 -0.5252 -0.5930
12367TIP3   OH258591   3.235   0.590   3.349 -0.3694  0.5059  0.4584
12367TIP3    H158592   3.194   0.609   3.264  1.1972 -0.2429 -0.5078
12367TIP3    H258593   3.179   0.522   3.387  1.3449 -2.6459 -2.1295
12368TIP3   OH258594   1.525   2.155  15.779 -0.4857 -0.1190 -0.0884
12368TIP3    H158595   1.577   2.173  15.858  0.5509  0.2905 -0.8436
12368TIP3    H258596   1.442   2.122  15.813 -0.8635  2.0035  1.2360
12369TIP3   OH258597   0.304   3.104   5.678 -0.0258  0.5327  0.2626
12369TIP3    H158598   0.352   3.177   5.716 -0.4816  0.4354  1.0546
12369TIP3    H258599   0.370   3.054   5.630  0.6031  0.5983  1.0390
12370TIP3   OH258600   3.800   4.101   4.254  0.0749  0.3411  0.5628
12370TIP3    H158601   3.743   4.109   4.330  1.2526 -0.6193  1.6052
12370TIP3    H258602   3.744   4.118   4.179 -1.3046  0.5178  1.6082
12371TIP3   OH258603   4.408   1.602  11.044  0.4468  0.0759  0.1749
12371TIP3    H158604   4.491   1.582  11.086  1.1666 -0.5440 -1.4472
12371TIP3    H258605   4.432   1.639  10.959 -0.9387  0.8552  0.0980
12372TIP3   OH258606   3.226   5.366  11.618 -0.4349  0.2278  0.3414
12372TIP3    H158607   3.181   5.299  11.567 -0.2090 -0.0150  0.4647
12372TIP3    H258608   3.239   5.438  11.556  0.9843 -0.5462 -0.3078
12373TIP3   OH258609   4.456   4.850  12.701  0.2660  0.3019  0.6554
12373TIP3    H158610   4.361   4.841  12.711  0.3118  0.0834  0.8881
12373TIP3    H258611   4.470   4.846  12.606  0.2001 -1.2873  0.6823
12374TIP3   OH258612   1.823   6.402  11.860 -0.6143 -0.1204  0.0452
12374TIP3    H158613   1.739   6.388  11.903 -0.3874  0.9401  0.8832
12374TIP3    H258614   1.871   6.460  11.919 -0.4634  1.8093 -1.8331
12375TIP3   OH258615   4.374   4.541  15.065  0.0073  0.2416 -0.0062
12375TIP3    H158616   4.336   4.543  14.977  1.3739 -0.7992 -0.6613
12375TIP3    H258617   4.405   4.451  15.076  2.1177  0.9738  0.5165
12376TIP3   OH258618   5.906   4.551  11.396 -0.3133 -0.1393 -0.1806
12376TIP3    H158619   5.917   4.467  11.439  0.0074  0.1447  0.3003
12376TIP3    H258620   5.967   4.549  11.322  0.0712 -0.1193  0.1394
12377TIP3   OH258621   4.611   3.704  15.325 -0.5701 -0.4633  0.1246
12377TIP3    H158622   4.698   3.735  15.301 -0.4465 -2.5055 -2.6425
12377TIP3    H258623   4.602   3.620  15.279 -2.6691 -2.1153  3.1609
12378TIP3   OH258624   0.160   5.766   2.543  0.6151  0.0086  0.1445
12378TIP3    H158625   0.220   5.723   2.483  1.1450  0.2775  0.4803
12378TIP3    H258626   0.213   5.789   2.619  0.1969  0.6717  0.2471
12379TIP3   OH258627   2.505   4.854  13.100 -0.2336  0.8688  0.0119
12379TIP3    H158628   2.540   4.938  13.131 -1.7101  1.2328  0.8092
12379TIP3    H258629   2.559   4.788  13.142  1.9933  1.3565 -1.8632
12380TIP3   OH258630   4.783   1.098  11.148  0.5469  0.7934 -0.3332
12380TIP3    H158631   4.829   1.173  11.111  1.9610  0.3708  0.4866
12380TIP3    H258632   4.789   1.030  11.080  0.3735  1.0104 -0.5680
12381TIP3   OH258633   5.781   1.933   3.536 -0.1420 -0.1968  0.3242
12381TIP3    H158634   5.789   1.919   3.442  1.0099  0.4465  0.2932
12381TIP3    H258635   5.859   1.891   3.573 -0.4450 -0.2095  0.9571
12382TIP3   OH258636   4.619   5.345   0.358  0.0027 -0.0008  0.0415
12382TIP3    H158637   4.639   5.416   0.418 -0.5959 -0.4511  0.7905
12382TIP3    H258638   4.653   5.375   0.273  2.3656 -0.0882  0.9104
12383TIP3   OH258639   1.277   2.558   4.953  0.0113 -0.2334  0.0776
12383TIP3    H158640   1.227   2.627   4.910 -0.8499  0.5475  2.1893
12383TIP3    H258641   1.335   2.524   4.885 -2.3188 -0.1527 -2.0748
12384TIP3   OH258642   0.031   3.326  15.483 -0.1049 -0.2567 -0.3235
12384TIP3    H158643  -0.034   3.327  15.553  1.9104  0.8271  1.6572
12384TIP3    H258644   0.012   3.403  15.430  0.1886  0.6987  0.9122
12385TIP3   OH258645   0.004   1.398   5.918  0.9153  0.3866  0.1409
12385TIP3    H158646  -0.023   1.443   5.838 -2.3733 -0.1969  0.7496
12385TIP3    H258647  -0.016   1.460   5.988 -0.5780 -0.7151  0.7509
12386TIP3   OH258648   0.601   6.529  11.775  0.1830  0.1985 -1.1332
12386TIP3    H158649   0.671   6.499  11.833  0.0207  1.5718 -0.1856
12386TIP3    H258650   0.580   6.452  11.722  0.1037 -1.2221  0.8422
12387TIP3   OH258651   2.953   0.291  15.172 -0.0352  0.5947  0.1393
12387TIP3    H158652   2.926   0.352  15.103 -0.2997 -1.8058 -2.0524
12387TIP3    H258653   2.921   0.205  15.142  0.6317 -0.7131  2.8497
12388TIP3   OH258654   5.897   6.719   5.168  0.7665 -0.1456 -0.4910
12388TIP3    H158655   5.892   6.770   5.249  1.2524  1.4576 -1.4362
12388TIP3    H258656   5.976   6.667   5.177 -0.9858 -2.7510  1.5497
12389TIP3   OH258657   1.815   6.127   0.464  0.7262  0.3766  0.0695
12389TIP3    H158658   1.781   6.175   0.389  0.9367  0.1870 -0.1475
12389TIP3    H258659   1.799   6.185   0.539 -4.0245 -1.3012  0.7220
12390TIP3   OH258660   2.826   4.676   1.570  0.0793 -0.1545 -0.7128
12390TIP3    H158661   2.883   4.656   1.645  1.4197 -0.5621 -1.8015
12390TIP3    H258662   2.833   4.771   1.560 -0.8163  0.0193  0.2179
12391TIP3   OH258663   0.854   0.038  16.795  0.4208  0.0868  0.2315
12391TIP3    H158664   0.827   0.062  16.883  1.0762 -0.4729  0.6012
12391TIP3    H258665   0.871  -0.056  16.801 -0.9736 -0.2631 -0.8728
12392TIP3   OH258666   5.011   6.775  16.462 -0.1092 -0.1357 -0.1532
12392TIP3    H158667   4.919   6.797  16.448 -0.1132  0.0428  0.1498
12392TIP3    H258668   5.051   6.856  16.494 -0.1035 -0.5173  0.8592
12393TIP3   OH258669   1.991   5.557  15.025  0.4025  0.6113 -0.3092
12393TIP3    H158670   2.012   5.573  14.933 -1.1348 -1.5728 -1.1143
12393TIP3    H258671   1.897   5.539  15.025  0.8298 -1.9989  1.2638
12394TIP3   OH258672   6.756   0.210   2.072 -0.4446 -0.1488 -0.2318
12394TIP3    H158673   6.846   0.178   2.064 -0.3820  0.2883 -1.3757
12394TIP3    H258674   6.707   0.134   2.103  0.5808  0.0275  2.0347
12395TIP3   OH258675   5.331   1.197   5.255  0.1232 -0.1956  0.6071
12395TIP3    H158676   5.327   1.286   5.291 -2.2099 -0.3350  0.8077
12395TIP3    H258677   5.313   1.208   5.162 -0.9849 -0.5228  0.7756
12396TIP3   OH258678   1.721   3.692   3.417  0.4401  0.5733 -0.0655
12396TIP3    H158679   1.707   3.620   3.355 -0.5633  0.4343  0.2986
12396TIP3    H258680   1.729   3.770   3.362  1.3277  0.2178 -0.4532
12397TIP3   OH258681   5.907   3.682   1.752  0.1827 -0.3405 -0.7637
12397TIP3    H158682   5.936   3.758   1.701  0.6329 -0.4398 -0.6657
12397TIP3    H258683   5.887   3.717   1.839  1.8220 -0.5380 -0.2591
12398TIP3   OH258684   3.248   2.542  14.934  0.0563 -0.1200  0.4235
12398TIP3    H158685   3.324   2.589  14.899  1.3010 -2.7806 -0.7585
12398TIP3    H258686   3.276   2.510  15.019 -0.9615  1.5681  1.4478
12399TIP3   OH258687   1.690   5.300   4.353 -0.6010  0.0101  0.0871
12399TIP3    H158688   1.674   5.220   4.304 -1.2382 -0.6704  1.3491
12399TIP3    H258689   1.781   5.294   4.382 -0.6078 -0.1878  0.0654
12400TIP3   OH258690   5.143   2.192  11.711  0.2188  0.0148 -0.3170
12400TIP3    H158691   5.126   2.145  11.792  0.3224  0.4833 -0.0155
12400TIP3    H258692   5.191   2.271  11.739 -1.2604  1.0682 -0.6247
12401TIP3   OH258693   3.222   5.358   2.375  0.6160  0.0684  0.4417
12401TIP3    H158694   3.301   5.303   2.376 -0.3717 -1.5064 -1.1642
12401TIP3    H258695   3.153   5.302   2.411 -0.1245  0.7789  0.1560
12402TIP3   OH258696   0.146   5.782  16.479  0.1057 -0.5600 -0.3218
12402TIP3    H158697   0.103   5.743  16.403  0.2257  0.0750 -0.7142
12402TIP3    H258698   0.238   5.759  16.469 -0.0089 -1.2563  0.1177
12403TIP3   OH258699   1.081   4.917  16.168  0.5639  0.1712  0.0846
12403TIP3    H158700   1.171   4.889  16.152  1.2433  1.2738  1.7925
12403TIP3    H258701   1.045   4.852  16.228 -0.2085 -0.9093 -1.4649
12404TIP3   OH258702   2.889   4.566   2.046 -0.3418  0.1296  0.1873
12404TIP3    H158703   2.812   4.539   2.096 -0.6193  1.0064  0.2485
12404TIP3    H258704   2.946   4.489   2.046 -1.0953 -0.4352  0.3778
12405TIP3   OH258705   0.287   5.445   5.408 -0.3035 -0.8676 -0.5375
12405TIP3    H158706   0.192   5.455   5.414 -0.2417 -0.4259 -0.2479
12405TIP3    H258707   0.302   5.351   5.417 -0.6941 -0.9113 -0.3183
12406TIP3   OH258708   3.455   2.592  16.970 -0.0338  0.1200 -0.6929
12406TIP3    H158709   3.428   2.545  17.049 -3.8667 -0.2368 -1.9940
12406TIP3    H258710   3.543   2.561  16.952 -0.0211 -1.7342  2.0008
12407TIP3   OH258711   4.322   0.795  16.172 -0.5082 -0.1110  0.2516
12407TIP3    H158712   4.414   0.787  16.197 -0.9134 -0.9107  1.6461
12407TIP3    H258713   4.306   0.721  16.113  0.0712  0.8691 -1.1868
12408TIP3   OH258714   4.675   1.541  14.923 -0.8464  0.5870  0.4986
12408TIP3    H158715   4.660   1.615  14.864  1.4715  1.1911  0.5553
12408TIP3    H258716   4.674   1.464  14.866 -2.6573  0.6852  0.3440
12409TIP3   OH258717   6.169   5.342  15.802  0.0765 -0.2023 -0.0976
12409TIP3    H158718   6.173   5.251  15.831 -0.3384 -0.6778 -1.4298
12409TIP3    H258719   6.086   5.349  15.754  0.5116  0.6368 -0.7697
12410TIP3   OH258720   3.402   6.235   3.690 -0.3057 -0.1461  0.2344
12410TIP3    H158721   3.312   6.261   3.672 -0.4166 -1.5438 -1.4760
12410TIP3    H258722   3.395   6.171   3.761 -0.4937  0.7540  1.0504
12411TIP3   OH258723   3.515   1.846   2.087 -0.0124 -0.6313 -0.0432
12411TIP3    H158724   3.434   1.844   2.139 -0.5593 -0.6337 -0.8773
12411TIP3    H258725   3.562   1.923   2.118 -1.1404  0.3633 -0.7264
12412TIP3   OH258726   5.543   6.713  14.135  0.1219  0.0752  0.3955
12412TIP3    H158727   5.519   6.621  14.152 -0.3190  0.0797 -0.1610
12412TIP3    H258728   5.461   6.761  14.147  0.0984  0.2438 -0.4401
12413TIP3   OH258729   1.166   3.336  16.193  0.1947 -0.6603 -0.0261
12413TIP3    H158730   1.123   3.266  16.242  0.3286  0.0159  1.0727
12413TIP3    H258731   1.193   3.294  16.111 -0.0136 -1.8107  0.4750
12414TIP3   OH258732   3.546   6.658  16.686  0.0206  0.3076  0.2439
12414TIP3    H158733   3.622   6.630  16.637 -1.3840 -1.2289 -1.1648
12414TIP3    H258734   3.538   6.595  16.758  0.8587  1.3088  1.2463
12415TIP3   OH258735   5.962   6.150   1.685  0.0953 -0.0945  0.2466
12415TIP3    H158736   5.915   6.225   1.647  0.8013 -0.6684 -1.8470
12415TIP3    H258737   6.029   6.190   1.741 -1.3285  0.7556  1.4277
12416TIP3   OH258738   0.423   4.396   1.448 -0.2360  0.6447 -0.1293
12416TIP3    H158739   0.393   4.436   1.530  0.0982 -1.1518  0.9262
12416TIP3    H258740   0.361   4.325   1.432  0.9523 -0.4003 -0.2312
12417TIP3   OH258741   1.967   4.046  15.431 -0.2598  0.1444  0.1722
12417TIP3    H158742   1.931   4.134  15.443  0.5714  0.4357  0.6346
12417TIP3    H258743   2.056   4.061  15.400  0.2173 -0.5065  1.1726
12418TIP3   OH258744   2.577   3.358  14.964 -0.0881  0.3814 -0.7256
12418TIP3    H158745   2.539   3.286  14.913  2.1806 -2.2516  0.9909
12418TIP3    H258746   2.501   3.403  15.002 -1.6174 -1.2690 -1.6639
12419TIP3   OH258747   4.518   4.581   4.830  0.2459 -0.3918 -0.5442
12419TIP3    H158748   4.509   4.674   4.812  0.2473 -0.7532 -2.6516
12419TIP3    H258749   4.431   4.553   4.858  0.4914  0.3982  1.1281
12420TIP3   OH258750   3.072   3.885   5.254  0.0221  0.4528  0.4302
12420TIP3    H158751   3.053   3.977   5.272 -0.0154  0.4218  0.5552
12420TIP3    H258752   3.114   3.853   5.335  2.9010  1.1441 -0.6806
12421TIP3   OH258753   4.799   3.178   2.190  0.1209 -0.3670  0.2726
12421TIP3    H158754   4.864   3.248   2.194 -1.5009  1.1597  1.7139
12421TIP3    H258755   4.798   3.141   2.279 -2.2885  0.9825  0.9083
12422TIP3   OH258756   6.141   6.746   1.922 -0.5685  0.0341  0.1303
12422TIP3    H158757   6.135   6.817   1.858  1.8227  1.0612  0.8987
12422TIP3    H258758   6.187   6.676   1.876 -0.5784  0.0221  0.1384
12423TIP3   OH258759   3.476   2.323  14.806 -0.3460  0.1344  0.6408
12423TIP3    H158760   3.539   2.373  14.755  0.8102 -0.0238  1.8796
12423TIP3    H258761   3.391   2.358  14.779  0.3120  1.1134 -0.2488
12424TIP3   OH258762   0.153   2.041  15.252  0.1549  0.1147 -0.6883
12424TIP3    H158763   0.115   1.995  15.327 -0.6123 -0.3192 -1.3260
12424TIP3    H258764   0.247   2.048  15.273 -0.4864  3.0524  1.8755
12425TIP3   OH258765   3.913   0.310  13.718 -0.0690  0.8475 -0.5961
12425TIP3    H158766   3.971   0.385  13.714  0.1804  0.6782 -0.2406
12425TIP3    H258767   3.962   0.239  13.677 -0.2601  0.8525 -0.8329
12426TIP3   OH258768   4.079   0.170  15.048  0.1702 -0.4478 -0.6309
12426TIP3    H158769   4.157   0.118  15.066 -0.7683 -1.9682 -0.7893
12426TIP3    H258770   4.033   0.122  14.980 -2.7343 -1.6610  1.9364
12427TIP3   OH258771   5.231   4.897   0.029 -0.2078 -0.0813  0.2661
12427TIP3    H158772   5.211   4.806   0.052 -0.6062  0.1828  1.0249
12427TIP3    H258773   5.186   4.948   0.096 -0.4607  0.6983 -0.4899
12428TIP3   OH258774   1.552   0.607  11.807  0.0659  0.4379 -0.1310
12428TIP3    H158775   1.569   0.590  11.714  0.3454  0.1127 -0.0223
12428TIP3    H258776   1.639   0.612  11.846  0.0061  2.0507 -0.1420
12429TIP3   OH258777   1.109   1.102   0.268  0.2219 -0.3914 -0.2192
12429TIP3    H158778   1.037   1.115   0.330 -0.0611  0.2727 -0.6868
12429TIP3    H258779   1.089   1.160   0.195  0.8720 -0.7230 -0.6661
12430TIP3   OH258780   2.840   3.534   2.580 -0.2641 -0.0049  0.6110
12430TIP3    H158781   2.926   3.520   2.619 -0.4798  0.9163  1.4638
12430TIP3    H258782   2.778   3.516   2.651 -0.7354  0.3848  0.3074
12431TIP3   OH258783   4.737   1.868  11.565  0.2402 -0.2393 -0.1556
12431TIP3    H158784   4.732   1.792  11.508 -2.0209 -0.4699  0.2635
12431TIP3    H258785   4.756   1.942  11.507 -1.7381 -0.5064 -1.2132
12432TIP3   OH258786   2.101   0.096   1.615  0.3721 -0.3206 -0.1745
12432TIP3    H158787   2.146   0.123   1.535 -0.8001 -0.2484 -0.8322
12432TIP3    H258788   2.092   0.177   1.666  0.8133 -0.3006 -0.1287
12433TIP3   OH258789   6.632   4.463  16.339 -0.2085  0.1473  0.3721
12433TIP3    H158790   6.600   4.511  16.263  2.0404 -1.6336 -1.8434
12433TIP3    H258791   6.670   4.530  16.395  0.7156  1.2454 -1.4863
12434TIP3   OH258792   1.507   1.708  15.904 -0.1536 -0.0624 -0.5319
12434TIP3    H158793   1.592   1.665  15.897 -1.0117 -2.1650  0.7085
12434TIP3    H258794   1.524   1.788  15.954  0.9069 -1.3562  1.3366
12435TIP3   OH258795   4.010   1.490  16.501 -0.2076  0.3953  0.2020
12435TIP3    H158796   3.964   1.550  16.560 -0.9336 -0.3950  0.4595
12435TIP3    H258797   3.991   1.403  16.536 -1.9695 -0.2286 -2.0643
12436TIP3   OH258798   5.905   0.785  11.923 -0.0989 -0.2131 -0.3695
12436TIP3    H158799   5.982   0.839  11.945  1.7846 -1.9547 -2.2337
12436TIP3    H258800   5.838   0.849  11.900  1.5111  1.3964 -0.8836
12437TIP3   OH258801   2.064   0.343  12.174 -0.0238  0.5829  0.1576
12437TIP3    H158802   2.109   0.307  12.098  1.7682  0.9344  0.9862
12437TIP3    H258803   2.092   0.286  12.247  1.5802  2.5798  1.2153
12438TIP3   OH258804   4.514   5.496   5.112 -0.1058  0.4101  0.3020
12438TIP3    H158805   4.453   5.541   5.171  0.8985  0.9004  1.0127
12438TIP3    H258806   4.543   5.420   5.162 -0.0908  0.2123 -0.0060
12439TIP3   OH258807   0.636   6.610  17.155  0.1060  0.0337  0.2255
12439TIP3    H158808   0.665   6.581  17.068  1.9288 -0.8149  1.0377
12439TIP3    H258809   0.650   6.704  17.155  0.9195 -0.0756 -0.1472
12440TIP3   OH258810   2.929   0.721  16.936 -0.2595 -0.3196 -0.3821
12440TIP3    H158811   3.005   0.683  16.981  0.2058 -0.4724 -1.2700
12440TIP3    H258812   2.861   0.722  17.002  0.5102 -0.2023  0.4306
12441TIP3   OH258813   5.548   6.762   2.998  0.0736 -0.9337 -0.7415
12441TIP3    H158814   5.607   6.689   2.977  0.2675 -1.3597  1.0828
12441TIP3    H258815   5.575   6.790   3.085 -1.1015  0.2220 -0.7224
12442TIP3   OH258816   2.174   4.745   5.497 -0.3782 -0.3201 -0.7810
12442TIP3    H158817   2.258   4.741   5.543  0.3043 -2.0069 -2.0980
12442TIP3    H258818   2.134   4.827   5.528  1.3050  0.0359  0.6007
12443TIP3   OH258819   4.070   1.397   4.390  0.2248 -0.3673  0.1152
12443TIP3    H158820   4.057   1.446   4.309  3.3902  0.1997 -0.1953
12443TIP3    H258821   4.084   1.465   4.457  0.2969 -0.8403  0.5853
12444TIP3   OH258822   5.661   1.174   2.701  0.1636 -0.2905 -0.9521
12444TIP3    H158823   5.644   1.130   2.618  0.5544 -0.5876 -0.8791
12444TIP3    H258824   5.653   1.267   2.682 -0.4684 -0.3875 -1.1569
12445TIP3   OH258825   3.174   3.151   4.916 -0.0076 -0.1961  0.1286
12445TIP3    H158826   3.097   3.198   4.884  0.3592  0.7140  0.5487
12445TIP3    H258827   3.248   3.199   4.879  0.3968  0.1477  1.3552
12446TIP3   OH258828   0.705   2.098  12.330 -0.1219  0.1033 -0.8773
12446TIP3    H158829   0.792   2.138  12.323  0.0799 -0.2520 -0.4276
12446TIP3    H258830   0.649   2.152  12.274  0.4209  0.2389 -1.2936
12447TIP3   OH258831   2.849   0.615  11.351  0.1254 -0.4004  0.9067
12447TIP3    H158832   2.945   0.609  11.359  0.1673 -2.5582 -0.4725
12447TIP3    H258833   2.834   0.702  11.314  1.4791  0.2413  1.7532
12448TIP3   OH258834   4.785   3.334  16.916 -0.1883 -0.1223 -0.0517
12448TIP3    H158835   4.731   3.256  16.900  0.4023 -0.3848 -0.8202
12448TIP3    H258836   4.772   3.388  16.839  0.5626 -0.1363 -0.1931
12449TIP3   OH258837   2.086   0.107   2.430  0.2706 -0.1258 -0.0796
12449TIP3    H158838   2.126   0.165   2.495  2.6480 -0.4117 -1.1713
12449TIP3    H258839   2.082   0.021   2.473  2.0768 -0.3721 -0.3168
12450TIP3   OH258840   3.808   0.986   0.411  0.1586  0.5365 -0.1098
12450TIP3    H158841   3.890   0.980   0.460 -0.0920  1.0336  0.3819
12450TIP3    H258842   3.824   1.055   0.346  0.2444  0.3883 -0.2475
12451TIP3   OH258843   0.639   2.014   2.098  0.2316 -0.5562 -0.2758
12451TIP3    H158844   0.548   2.002   2.071  0.6806 -0.1884 -2.0289
12451TIP3    H258845   0.662   1.930   2.139 -0.9633 -0.5499  0.4890
12452TIP3   OH258846   5.289   0.374  14.743  0.2796  0.1888  0.0156
12452TIP3    H158847   5.206   0.342  14.778  0.1707 -0.3058 -0.6770
12452TIP3    H258848   5.311   0.449  14.799  0.1776 -0.6461  1.2002
12453TIP3   OH258849   3.632   2.709   4.056 -0.3447  0.4616  0.0226
12453TIP3    H158850   3.712   2.666   4.024  2.5445  3.3831  2.6475
12453TIP3    H258851   3.602   2.653   4.127 -1.1135 -0.9839 -1.3745
12454TIP3   OH258852   3.379   3.748  14.351 -0.4552  0.6056 -0.3734
12454TIP3    H158853   3.382   3.653  14.369  0.2104  0.5173 -0.8854
12454TIP3    H258854   3.381   3.754  14.256  0.0340  1.1438 -0.3325
12455TIP3   OH258855   1.052   2.691   3.155  0.4652 -0.1460 -0.2612
12455TIP3    H158856   1.031   2.774   3.112 -1.2396  0.0823  0.9029
12455TIP3    H258857   1.097   2.717   3.236  2.0719 -0.5029 -0.9892
12456TIP3   OH258858   0.961   0.618  12.206 -0.5114 -0.0948 -0.7497
12456TIP3    H158859   1.043   0.587  12.246 -0.0319  0.4510 -1.3014
12456TIP3    H258860   0.978   0.615  12.112 -1.4250 -0.7808 -0.9042
12457TIP3   OH258861   0.034   5.891   4.179  0.2138  0.2383 -0.1942
12457TIP3    H158862   0.058   5.920   4.090  0.5377  0.7416  0.0513
12457TIP3    H258863   0.117   5.888   4.226  0.1338 -0.7193 -0.0969
12458TIP3   OH258864   2.707   0.725   5.102  0.0626  0.3039  0.1974
12458TIP3    H158865   2.715   0.641   5.055 -1.4489 -0.0476  0.5107
12458TIP3    H258866   2.791   0.769   5.086  0.3106 -0.6057 -1.2512
12459TIP3   OH258867   4.502   5.652   4.422 -0.4658  0.0722 -0.3013
12459TIP3    H158868   4.433   5.701   4.466 -1.4069 -1.8441  0.4864
12459TIP3    H258869   4.480   5.560   4.438  2.5238 -0.6330  0.4015
12460TIP3   OH258870   2.655   3.357   1.792 -0.2330 -0.7637 -0.8493
12460TIP3    H158871   2.586   3.421   1.777  0.6432 -0.0007 -1.7554
12460TIP3    H258872   2.672   3.361   1.886 -1.2837 -0.8314 -0.6511
12461TIP3   OH258873   2.243   1.261   0.188  0.0470 -0.0269 -0.1878
12461TIP3    H158874   2.329   1.299   0.204  0.0559  0.3385 -1.0691
12461TIP3    H258875   2.192   1.284   0.266  0.5519  0.3258  0.0413
12462TIP3   OH258876   4.272   0.795   4.957  0.1728 -0.1179 -0.5333
12462TIP3    H158877   4.244   0.775   4.868 -0.2630  1.0901 -0.6809
12462TIP3    H258878   4.322   0.876   4.949  0.3396 -0.1285  0.2917
12463TIP3   OH258879   0.062   0.516  15.558  0.1900 -0.0343 -0.3910
12463TIP3    H158880   0.091   0.607  15.560 -1.0955  0.4430 -1.9244
12463TIP3    H258881  -0.003   0.513  15.488 -0.4091 -1.9517  0.1993
12464TIP3   OH258882   4.318   3.176  15.191  0.5616  1.1170 -0.6086
12464TIP3    H158883   4.278   3.179  15.104 -1.1420 -0.6937  0.0437
12464TIP3    H258884   4.319   3.083  15.214  0.1659  1.6151  1.6322
12465TIP3   OH258885   5.113   2.302   3.223 -0.0316  0.4113  0.4977
12465TIP3    H158886   5.170   2.241   3.177 -1.4343 -0.9820  0.5109
12465TIP3    H258887   5.032   2.301   3.172 -0.4885  1.3327  1.1958
12466TIP3   OH258888   0.992   4.084  14.478  0.2155 -0.6157 -0.3776
12466TIP3    H158889   0.947   4.116  14.400 -0.0572 -2.8862 -1.2206
12466TIP3    H258890   0.939   4.117  14.551 -0.0637  0.7243 -1.1401
12467TIP3   OH258891   6.346   4.789  12.936  0.3794 -0.1468 -0.2956
12467TIP3    H158892   6.296   4.770  13.015  1.0619 -1.1098 -0.0676
12467TIP3    H258893   6.399   4.865  12.959 -0.3949  0.3924 -0.2783
12468TIP3   OH258894   3.594   4.942   1.765 -0.3370 -0.0685  0.2956
12468TIP3    H158895   3.577   5.014   1.704  0.3498 -0.5206 -0.4605
12468TIP3    H258896   3.681   4.960   1.800 -0.8797  0.3871  1.4588
12469TIP3   OH258897   3.654   3.983   2.110  0.1986  0.0516  0.3097
12469TIP3    H158898   3.682   3.912   2.167 -0.8881 -1.7139 -1.2682
12469TIP3    H258899   3.711   3.977   2.033 -1.3766 -0.5997 -0.8396
12470TIP3   OH258900   5.310   4.364  15.462 -0.0145 -0.3938  0.2271
12470TIP3    H158901   5.297   4.406  15.547  1.3540  0.5071  0.0262
12470TIP3    H258902   5.385   4.306  15.476 -0.5132 -1.1304 -0.0801
12471TIP3   OH258903   5.661   3.290   3.041  0.1460  0.2362  0.2083
12471TIP3    H158904   5.599   3.357   3.068  0.1899  1.5130 -2.5281
12471TIP3    H258905   5.613   3.236   2.978  0.9053 -0.7304  0.4211
12472TIP3   OH258906   3.752   4.934  12.514  0.0522  0.1835  0.5259
12472TIP3    H158907   3.692   4.927  12.439  0.3830  0.3360  0.2432
12472TIP3    H258908   3.833   4.969  12.476 -0.0288  1.0016  1.0941
12473TIP3   OH258909   2.332   6.024   5.031  0.3407 -0.3566  0.2848
12473TIP3    H158910   2.332   5.954   5.097 -0.9863 -1.6499 -0.9875
12473TIP3    H258911   2.375   5.985   4.955 -0.7601  0.0637 -0.5791
12474TIP3   OH258912   4.546   3.255  13.600 -0.3881  0.4875  0.1765
12474TIP3    H158913   4.626   3.241  13.548 -0.8966 -0.5255 -0.3561
12474TIP3    H258914   4.497   3.174  13.592 -0.4426  0.2338  2.3633
12475TIP3   OH258915   4.737   2.740   6.200  0.2329  0.1042  0.4248
12475TIP3    H158916   4.656   2.713   6.242 -0.1236 -0.7590 -0.7497
12475TIP3    H258917   4.719   2.733   6.106  1.9008 -0.9622  0.1302
12476TIP3   OH258918   0.378   2.349   0.806  0.2442 -0.7729  0.6217
12476TIP3    H158919   0.309   2.343   0.872 -0.4655  1.7952  0.2108
12476TIP3    H258920   0.440   2.413   0.843 -1.0305  2.1192 -1.7753
12477TIP3   OH258921   1.735   2.095   4.802 -0.2005 -0.2351 -0.0836
12477TIP3    H158922   1.780   2.083   4.885  0.1871 -0.3601 -0.3070
12477TIP3    H258923   1.806   2.109   4.739 -0.4808 -0.3548 -0.4262
12478TIP3   OH258924   1.160   6.666  15.101 -0.1695  0.1754  0.1021
12478TIP3    H158925   1.068   6.690  15.114 -0.4159 -0.7594  0.1311
12478TIP3    H258926   1.208   6.718  15.166 -0.3299  2.7450 -1.6587
12479TIP3   OH258927   1.107   2.883  14.244 -0.2587 -0.9319  0.8143
12479TIP3    H158928   1.193   2.850  14.269  1.3632  2.5317  0.3111
12479TIP3    H258929   1.122   2.934  14.165 -3.3328 -2.3990 -0.9081
12480TIP3   OH258930   0.077   0.546   1.426 -0.1419  0.1564 -0.0625
12480TIP3    H158931   0.089   0.474   1.488  0.5089  0.5128  0.2336
12480TIP3    H258932  -0.004   0.589   1.454  0.6504  0.9067  1.1518
12481TIP3   OH258933   0.318   5.173   5.364  0.1409 -0.5282 -0.1154
12481TIP3    H158934   0.247   5.132   5.316  0.2088 -0.4437 -0.2865
12481TIP3    H258935   0.392   5.173   5.304  0.8652 -2.3960  0.7182
12482TIP3   OH258936   3.101   1.528   5.018  0.3698 -0.2807 -0.3362
12482TIP3    H158937   3.151   1.449   4.996  2.6138  0.5231  1.4589
12482TIP3    H258938   3.092   1.525   5.113  0.3396  1.5174 -0.2515
12483TIP3   OH258939   6.516   2.122  14.465 -0.2644 -0.1419  0.7393
12483TIP3    H158940   6.528   2.040  14.417 -0.6818 -1.1297  2.2571
12483TIP3    H258941   6.600   2.136  14.509 -0.1245  0.3719  0.3135
12484TIP3   OH258942   5.734   1.993  14.744 -0.5083 -0.0144 -0.3340
12484TIP3    H158943   5.760   1.968  14.832  0.3258 -3.6496 -1.4328
12484TIP3    H258944   5.647   1.954  14.733  0.4383 -1.8424 -1.8582
12485TIP3   OH258945   6.392   3.784  17.157  0.5638 -0.2207  0.4122
12485TIP3    H158946   6.385   3.700  17.202  0.5075 -1.1701 -1.2752
12485TIP3    H258947   6.483   3.810  17.167  0.2683  0.2554  2.1481
12486TIP3   OH258948   5.976   5.826  17.228 -0.1429 -0.1849 -0.1970
12486TIP3    H158949   5.882   5.837  17.220 -0.4277 -1.1790  1.4642
12486TIP3    H258950   5.989   5.783  17.312  1.7847 -0.3055 -0.5014
12487TIP3   OH258951   4.831   5.158  15.200  0.3382  0.4614 -0.2436
12487TIP3    H158952   4.837   5.251  15.222  2.2966  0.1615  0.7807
12487TIP3    H258953   4.827   5.113  15.284  0.7233 -0.4212 -0.6775
12488TIP3   OH258954   6.365   5.187   0.424 -0.3347 -0.3890 -0.7278
12488TIP3    H158955   6.381   5.261   0.483  1.3654 -0.4519 -1.0487
12488TIP3    H258956   6.315   5.224   0.351  0.3469  0.4163 -0.8001
12489TIP3   OH258957   5.140   5.265  17.007  0.0753  0.1334 -0.1707
12489TIP3    H158958   5.200   5.254  17.080 -0.0932 -1.6985 -0.2436
12489TIP3    H258959   5.179   5.213  16.936 -0.8950  0.0402 -0.6521
12490TIP3   OH258960   0.437   4.606   0.682  0.1793  0.2259 -0.5371
12490TIP3    H158961   0.470   4.574   0.765 -0.0377  0.6377 -0.2860
12490TIP3    H258962   0.469   4.697   0.677 -2.4484  1.3244  0.6199
12491TIP3   OH258963   3.898   4.693   0.437 -0.2089 -0.0080  0.4171
12491TIP3    H158964   3.904   4.645   0.354 -0.2704  1.8232 -0.6877
12491TIP3    H258965   3.820   4.747   0.428  0.5241  1.2056  1.1350
12492TIP3   OH258966   3.993   1.214   3.237  0.2400 -0.6035 -0.3042
12492TIP3    H158967   3.901   1.189   3.241  0.5675 -1.8181  3.4091
12492TIP3    H258968   3.998   1.295   3.288  1.2179 -0.5890 -0.4034
12493TIP3   OH258969   5.414   3.904   1.436 -0.4939  0.6004 -0.2069
12493TIP3    H158970   5.338   3.959   1.416 -0.7525  0.1816 -0.4081
12493TIP3    H258971   5.485   3.965   1.454 -0.7068  0.9967 -0.6889
12494TIP3   OH258972   4.564   5.984  12.533 -0.0185 -0.2394 -0.2380
12494TIP3    H158973   4.590   6.036  12.609 -1.2976  1.2056 -0.7355
12494TIP3    H258974   4.469   5.998  12.526 -0.0412 -0.9684 -1.6385
12495TIP3   OH258975   2.358   0.248   6.173 -0.3334  0.3923 -0.1662
12495TIP3    H158976   2.398   0.315   6.229 -0.7464 -0.7448  1.5791
12495TIP3    H258977   2.419   0.174   6.178 -0.9428 -0.1267 -0.2727
12496TIP3   OH258978   0.993   4.978  11.004  0.6188  0.1846  0.4340
12496TIP3    H158979   1.006   4.967  10.910  0.9439  0.1421  0.4797
12496TIP3    H258980   1.041   5.058  11.025  1.5085 -0.4141  0.7489
12497TIP3   OH258981   6.015   5.824  14.507  0.9104 -0.3004  0.2464
12497TIP3    H158982   6.062   5.793  14.585  0.6363 -2.5616 -0.4041
12497TIP3    H258983   6.041   5.763  14.438  0.3208  1.0089 -1.1893
12498TIP3   OH258984   4.328   5.145   3.018  0.0408 -0.1116  0.5471
12498TIP3    H158985   4.316   5.081   3.088  1.3567 -0.9263  0.0657
12498TIP3    H258986   4.423   5.152   3.009 -0.1089  0.6778 -0.5412
12499TIP3   OH258987   6.430   0.715   6.301 -0.4003  0.4434 -0.2414
12499TIP3    H158988   6.485   0.641   6.276 -2.4149 -1.0601 -0.4982
12499TIP3    H258989   6.363   0.677   6.358 -2.3355  1.7391 -1.4962
12500TIP3   OH258990   0.692   6.011   5.066 -0.1447  0.0156 -0.6069
12500TIP3    H158991   0.625   6.069   5.101 -0.3216 -0.9184  0.6939
12500TIP3    H258992   0.772   6.037   5.111 -0.1635 -0.5173 -0.2528
12501TIP3   OH258993   2.685   2.477   2.748 -0.7487  0.0516  0.2669
12501TIP3    H158994   2.727   2.420   2.813  1.7921  2.0599  0.5632
12501TIP3    H258995   2.707   2.565   2.777 -3.5720  1.1917 -0.8095
12502TIP3   OH258996   3.905   4.314  17.059  1.2008 -0.0052  0.5025
12502TIP3    H158997   3.873   4.401  17.035  0.0842 -0.8072 -1.1106
12502TIP3    H258998   3.989   4.305  17.015  1.1090  0.0899  0.3098
12503TIP3   OH258999   6.769   3.637  12.951  0.1306  0.9769  0.4333
12503TIP3    H159000   6.809   3.716  12.989 -0.0021  1.4354 -0.3356
12503TIP3    H259001   6.719   3.670  12.877 -0.1086  0.1813  0.2332
12504TIP3   OH259002   3.067   2.639   5.193 -0.2505 -0.0210 -0.3678
12504TIP3    H159003   3.163   2.633   5.190 -0.2861 -0.3345 -1.3830
12504TIP3    H259004   3.049   2.732   5.181 -0.0257  0.5428  2.8539
12505TIP3   OH259005   4.422   1.484  13.617  0.1787 -0.2771 -0.0661
12505TIP3    H159006   4.407   1.395  13.584 -0.7032  0.2505 -1.1756
12505TIP3    H259007   4.516   1.497  13.607  0.1664 -0.7087 -0.9517
12506TIP3   OH259008   1.903   4.665  11.021 -0.3801 -0.0749  0.3698
12506TIP3    H159009   1.879   4.745  10.975  1.9976 -0.3583 -1.5882
12506TIP3    H259010   1.820   4.619  11.034 -1.3572  0.2001 -3.4633
12507TIP3   OH259011   3.857   6.053  11.949 -0.0541 -0.1751 -0.2036
12507TIP3    H159012   3.890   5.964  11.941 -1.7030 -0.8370 -0.0161
12507TIP3    H259013   3.761   6.043  11.952 -0.2927  1.6318 -0.7127
12508TIP3   OH259014   6.732   2.029   2.042 -0.3272  0.5246  0.1329
12508TIP3    H159015   6.713   1.969   2.114  0.5544  0.1838  0.0902
12508TIP3    H259016   6.817   2.067   2.064 -1.0224  2.0440  0.3366
12509TIP3   OH259017   6.715   3.436  13.516 -0.7410 -0.3956  0.1870
12509TIP3    H159018   6.789   3.496  13.513 -0.1274 -1.1301  0.2563
12509TIP3    H259019   6.647   3.483  13.564 -0.9153  0.9160 -1.2533
12510TIP3   OH259020   3.140   4.375  11.207  0.1075  0.1553  0.4424
12510TIP3    H159021   3.180   4.313  11.146  1.7946 -0.3591  1.9951
12510TIP3    H259022   3.214   4.417  11.252 -1.0424  1.6927  1.0116
12511TIP3   OH259023   4.295   5.638  12.142 -0.0299  0.1190 -0.4066
12511TIP3    H159024   4.353   5.714  12.144 -0.5882  0.6326 -2.1512
12511TIP3    H259025   4.293   5.607  12.233 -0.1452  2.4294  0.4334
12512TIP3   OH259026   5.355   3.021  13.074  0.0324  0.1568  0.2604
12512TIP3    H159027   5.329   3.104  13.033  1.6349  0.0423 -1.1044
12512TIP3    H259028   5.357   3.040  13.168  1.2301  1.9525 -0.0705
12513TIP3   OH259029   6.646   2.406   3.377 -0.0187  0.2115  0.5828
12513TIP3    H159030   6.608   2.467   3.314  1.4210  1.3256  0.7372
12513TIP3    H259031   6.686   2.462   3.443  2.0677 -0.8634  0.2972
12514TIP3   OH259032   1.499   3.845   2.303  0.3280  0.0436  0.0315
12514TIP3    H159033   1.498   3.750   2.291  0.1439  0.2419 -1.8474
12514TIP3    H259034   1.465   3.859   2.391  0.1103 -1.6104  0.2394
12515TIP3   OH259035   5.848   5.387  11.944 -0.2268  0.3374  0.3505
12515TIP3    H159036   5.818   5.383  11.853 -2.1082  0.1208  0.9514
12515TIP3    H259037   5.835   5.299  11.978  1.9092  0.0029  0.4452
12516TIP3   OH259038   1.668   0.051  14.141 -0.0457 -0.2078 -0.0686
12516TIP3    H159039   1.595   0.106  14.170 -0.2243 -1.2356  1.5441
12516TIP3    H259040   1.709   0.101  14.071 -0.4108  1.8393  1.0986
12517TIP3   OH259041   3.605   4.664  16.223  0.3020  1.1582  0.1595
12517TIP3    H159042   3.580   4.603  16.155 -1.6363  0.2694  1.5767
12517TIP3    H259043   3.525   4.712  16.243  0.4316  0.4237  2.7463
12518TIP3   OH259044   1.217   4.333  15.126  0.1424 -0.1843  0.0933
12518TIP3    H159045   1.279   4.341  15.199 -1.4004 -0.0608  1.4557
12518TIP3    H259046   1.269   4.294  15.055  1.6891 -0.3681  1.2552
12519TIP3   OH259047   0.036   1.246   2.340  0.2244  0.1794  0.0910
12519TIP3    H159048   0.000   1.255   2.252 -0.7048  0.8847  0.5236
12519TIP3    H259049   0.007   1.160   2.369 -4.2498  1.9012  1.6988
12520TIP3   OH259050   5.973   3.430   0.451 -0.7191 -0.4359 -0.2250
12520TIP3    H159051   5.946   3.510   0.495  0.9350  0.3663 -0.5856
12520TIP3    H259052   5.913   3.363   0.484 -0.0279  0.2522  2.7194
12521TIP3   OH259053   3.628   6.325  14.240 -0.5795  0.3662 -0.3786
12521TIP3    H159054   3.596   6.390  14.303  0.1917  1.0416 -0.6727
12521TIP3    H259055   3.559   6.258  14.238 -0.8516  0.5823  0.8011
12522TIP3   OH259056   4.953   2.109   4.278 -0.1102  0.0469 -0.2766
12522TIP3    H159057   4.990   2.059   4.351  0.1290  0.6593  0.0271
12522TIP3    H259058   4.859   2.106   4.292 -0.3180 -2.4338 -1.6449
12523TIP3   OH259059   6.143   2.674  13.026  0.4584  0.2407  0.0744
12523TIP3    H159060   6.218   2.650  12.972  0.3464  0.7145 -0.2962
12523TIP3    H259061   6.076   2.701  12.964 -0.8930 -2.4171  0.2256
12524TIP3   OH259062   2.178   1.879  12.920  0.6428 -0.1222  0.2381
12524TIP3    H159063   2.242   1.939  12.880 -0.5916  0.8458 -0.3664
12524TIP3    H259064   2.186   1.798  12.869  3.5603 -1.2162  2.1599
12525TIP3   OH259065   4.112   2.049   0.157  0.4354 -0.3920  0.0176
12525TIP3    H159066   4.076   1.964   0.133 -0.6729  0.2807 -0.8475
12525TIP3    H259067   4.066   2.111   0.099  1.5627  0.7343  0.2903
12526TIP3   OH259068   0.818   2.912   3.195  0.4882 -0.6834  0.2078
12526TIP3    H159069   0.786   2.861   3.121 -0.9698  1.6231 -0.8440
12526TIP3    H259070   0.768   2.880   3.270 -1.1124 -0.1769 -0.6085
12527TIP3   OH259071   0.351   2.419  14.730  0.2585  0.8072 -0.0548
12527TIP3    H159072   0.415   2.490  14.722  1.3788 -0.2849 -1.0813
12527TIP3    H259073   0.369   2.362  14.655 -1.6198  0.2176 -0.0984
12528TIP3   OH259074   4.364   1.754  13.298 -0.7758  0.0512  0.5788
12528TIP3    H159075   4.404   1.798  13.373 -1.6339 -2.1331  2.4321
12528TIP3    H259076   4.302   1.692  13.336 -1.0120 -1.4111 -1.9328
12529TIP3   OH259077   6.456   5.265  13.354 -0.1721  0.3636  0.4993
12529TIP3    H159078   6.538   5.216  13.348 -1.2451 -1.6196  1.1475
12529TIP3    H259079   6.401   5.214  13.414 -1.2109  2.6481  1.6011
12530TIP3   OH259080   0.602   4.041   3.764  0.2648 -0.3730  0.3392
12530TIP3    H159081   0.584   4.131   3.738 -1.3901 -0.9780 -0.7652
12530TIP3    H259082   0.680   4.017   3.715 -0.2156 -0.0364 -0.6060
12531TIP3   OH259083   0.416   3.307  10.576  0.4787  0.2138 -0.2592
12531TIP3    H159084   0.437   3.373  10.642 -0.4045 -0.8177  1.1200
12531TIP3    H259085   0.385   3.357  10.500  1.0907  1.4161  0.2565
12532TIP3   OH259086   3.614   3.058  14.281  0.1440  0.1216  0.6692
12532TIP3    H159087   3.601   2.996  14.353 -0.9186  0.5529  0.8580
12532TIP3    H259088   3.527   3.070  14.243  0.5138  0.7188 -0.0124
12533TIP3   OH259089   3.298   4.509   3.166 -0.0518 -0.5599 -0.2126
12533TIP3    H159090   3.268   4.421   3.143  0.4557 -0.5589 -0.9038
12533TIP3    H259091   3.247   4.532   3.244 -2.0768 -0.4460 -1.4897
12534TIP3   OH259092   5.116   4.500   3.911  0.3100 -0.1177 -1.0737
12534TIP3    H159093   5.056   4.437   3.951 -1.9599  2.0523 -0.7797
12534TIP3    H259094   5.097   4.497   3.818 -0.3743  0.6162 -0.9734
12535TIP3   OH259095   6.026   6.098  15.248 -0.1693  0.3983 -0.3015
12535TIP3    H159096   5.972   6.082  15.171 -1.0117 -0.2248  0.4014
12535TIP3    H259097   6.024   6.015  15.297  0.8016  0.6087  0.1129
12536TIP3   OH259098   1.057   2.413   4.445 -0.5365 -0.2763 -0.0898
12536TIP3    H159099   1.143   2.382   4.416 -0.3744 -1.5376  1.5436
12536TIP3    H259100   1.070   2.433   4.538 -1.4652  1.7738 -0.3508
12537TIP3   OH259101   2.317   6.079  11.606 -0.4259  0.2795  0.1809
12537TIP3    H159102   2.368   6.118  11.677  1.6524 -0.0687 -1.0482
12537TIP3    H259103   2.339   5.986  11.608 -1.4714  0.0107 -0.0393
12538TIP3   OH259104   3.398   1.426   3.351 -0.2989 -0.0988 -0.1474
12538TIP3    H159105   3.483   1.422   3.307  0.5148  0.3232  1.3078
12538TIP3    H259106   3.393   1.344   3.400 -1.4785 -0.8542 -1.4602
12539TIP3   OH259107   0.471   4.196   2.429  0.2400  0.1215  0.3016
12539TIP3    H159108   0.549   4.251   2.421  0.2058  0.0014 -1.1506
12539TIP3    H259109   0.440   4.211   2.518  1.4682  0.7773  0.6388
12540TIP3   OH259110   0.115   5.794  14.603  0.1113 -0.2346  0.7042
12540TIP3    H159111   0.142   5.827  14.518  1.9822  2.1412  2.0789
12540TIP3    H259112   0.176   5.722  14.622 -0.9098 -1.4041 -0.2869
12541TIP3   OH259113   4.232   0.091   4.577  0.2328  0.4509  0.1627
12541TIP3    H159114   4.261   0.013   4.530 -1.1293  0.6679 -1.0931
12541TIP3    H259115   4.171   0.058   4.643  0.7005  0.3393  0.5493
12542TIP3   OH259116   3.884   5.998  12.229  0.4134 -0.3982  0.2059
12542TIP3    H159117   3.809   6.049  12.260  1.4547  1.0040  0.5010
12542TIP3    H259118   3.874   5.997  12.134  0.4324  0.4720  0.1882
12543TIP3   OH259119   3.594   5.714  10.966  0.6600 -0.0101 -0.1769
12543TIP3    H159120   3.669   5.695  10.909  1.6102  1.8576  0.3711
12543TIP3    H259121   3.528   5.650  10.940  2.0529 -1.0234 -1.4226
12544TIP3   OH259122   6.166   4.355   0.961  0.7502  0.2549  0.4115
12544TIP3    H159123   6.195   4.377   1.049 -0.7706 -0.0881  1.0259
12544TIP3    H259124   6.138   4.264   0.967 -0.8878  0.6957 -0.0020
12545TIP3   OH259125   3.466   3.982  12.809 -0.3343 -0.3316  0.5660
12545TIP3    H159126   3.455   4.036  12.730  0.0907  0.6560  1.1601
12545TIP3    H259127   3.450   3.892  12.779 -0.8428  0.0937 -0.4974
12546TIP3   OH259128   1.094   1.794   5.165 -0.2321 -0.0273 -0.0393
12546TIP3    H159129   1.053   1.811   5.080  0.5475 -1.8511 -0.8425
12546TIP3    H259130   1.165   1.733   5.145  1.6481  1.5107  1.5949
12547TIP3   OH259131   1.277   6.429   2.368  0.2040  0.2456 -0.3435
12547TIP3    H159132   1.223   6.352   2.381 -0.4409  0.2786 -2.4578
12547TIP3    H259133   1.216   6.503   2.372  0.2369  0.3642 -1.6367
12548TIP3   OH259134   1.302   2.806  13.151 -0.4814  0.3666  0.2031
12548TIP3    H159135   1.247   2.776  13.224 -1.8013 -0.6640 -1.1472
12548TIP3    H259136   1.312   2.729  13.095  0.2928  1.1942 -0.8319
12549TIP3   OH259137   0.108   5.199  13.899  0.5864  0.0524  0.3409
12549TIP3    H159138   0.049   5.148  13.953 -1.0103  2.1687  0.7472
12549TIP3    H259139   0.122   5.146  13.820 -3.4774  0.1976 -0.6976
12550TIP3   OH259140   4.832   0.834   4.332  0.8340  0.1723  0.5572
12550TIP3    H159141   4.809   0.849   4.240 -1.7133 -0.5386  0.9894
12550TIP3    H259142   4.779   0.758   4.358  2.0397 -0.0957  2.4301
12551TIP3   OH259143   6.529   3.517   0.282  0.5578  0.1240  0.5073
12551TIP3    H159144   6.492   3.605   0.282  0.1111 -0.0571  0.0429
12551TIP3    H259145   6.476   3.468   0.344  1.3889  0.4078  1.4680
12552TIP3   OH259146   1.633   1.397   4.378  0.2047  0.1928  0.3336
12552TIP3    H159147   1.636   1.310   4.337  0.0691  0.3306  0.0314
12552TIP3    H259148   1.720   1.407   4.417  0.1732 -0.1385  0.4931
12553TIP3   OH259149   3.738   4.001   0.073  0.0543  0.1803  0.1267
12553TIP3    H159150   3.814   3.972   0.025 -0.9477 -1.9170 -0.2896
12553TIP3    H259151   3.713   3.926   0.127 -1.3174  1.0409  0.7530
12554TIP3   OH259152   1.852   6.537  14.556 -0.1528  0.1631  0.0280
12554TIP3    H159153   1.932   6.515  14.604  0.2237  1.0127 -0.1941
12554TIP3    H259154   1.834   6.459  14.503 -0.0467 -0.4249  0.8290
12555TIP3   OH259155   6.269   2.516  11.297  0.0536  0.7068  0.4426
12555TIP3    H159156   6.186   2.507  11.250  0.9248  0.3027 -1.1069
12555TIP3    H259157   6.245   2.515  11.389 -1.5120 -1.1914  0.0842
12556TIP3   OH259158   1.034   4.796  16.418 -0.1345 -0.1172 -0.0624
12556TIP3    H159159   1.111   4.802  16.476 -1.6645 -1.9255  2.3425
12556TIP3    H259160   0.972   4.859  16.455 -0.1525  0.7458 -1.4984
12557TIP3   OH259161   6.276   2.678   3.249 -0.5428 -0.2846  0.3802
12557TIP3    H159162   6.200   2.654   3.196  0.2022  0.3822 -1.0308
12557TIP3    H259163   6.281   2.773   3.242  0.2427 -0.2951  0.6977
12558TIP3   OH259164   3.682   5.724  11.706  0.1483  0.3314  0.1798
12558TIP3    H159165   3.604   5.746  11.757 -0.4788  0.4761 -0.8271
12558TIP3    H259166   3.652   5.720  11.615  1.5357  1.5122 -0.3641
12559TIP3   OH259167   1.729   0.482  15.913  0.5179 -0.4733  0.1481
12559TIP3    H159168   1.819   0.490  15.946  0.5050  1.2176 -0.1281
12559TIP3    H259169   1.675   0.514  15.986  0.0867 -1.9381  0.4933
12560TIP3   OH259170   4.414   4.179   4.538  0.2153 -0.6322 -0.2999
12560TIP3    H159171   4.454   4.108   4.487  1.2032 -0.5742  0.3697
12560TIP3    H259172   4.487   4.234   4.564 -0.5767  0.8172 -1.0501
12561TIP3   OH259173   2.175   3.690  15.300 -0.1453 -0.1832 -0.1907
12561TIP3    H159174   2.132   3.743  15.233 -0.9167 -0.2731  0.2153
12561TIP3    H259175   2.106   3.631  15.331  0.3169 -0.4364  0.3724
12562TIP3   OH259176   3.526   0.473   5.153 -0.1125  0.3118 -0.2880
12562TIP3    H159177   3.543   0.537   5.222 -0.5892 -1.0868  1.1792
12562TIP3    H259178   3.607   0.469   5.103  0.1832  1.4739  0.0747
12563TIP3   OH259179   0.048   1.202   4.882 -0.1487 -0.1480 -0.0965
12563TIP3    H159180   0.102   1.159   4.815 -0.5383 -1.0629  0.1649
12563TIP3    H259181   0.035   1.135   4.948 -0.1396  0.6178  0.6947
12564TIP3   OH259182   5.697   5.631   4.503  0.2891 -0.2212  0.4130
12564TIP3    H159183   5.694   5.623   4.599  1.6851 -0.0855  0.4756
12564TIP3    H259184   5.646   5.710   4.484  1.1433  0.5222  1.1563
12565TIP3   OH259185   4.418   4.976  12.200 -0.5352 -1.1797  0.5798
12565TIP3    H159186   4.511   4.997  12.207 -0.7828 -0.5519  4.1134
12565TIP3    H259187   4.374   5.061  12.199 -1.1257 -1.4758  0.4033
12566TIP3   OH259188   0.232   5.126   0.098  0.2247  0.0932 -0.3963
12566TIP3    H159189   0.299   5.081   0.047  0.2847  0.8728 -1.0154
12566TIP3    H259190   0.177   5.055   0.132 -0.0026 -0.4426 -1.8110
12567TIP3   OH259191   2.282   4.007  14.674  0.4235  0.4144 -0.2990
12567TIP3    H159192   2.355   3.976  14.728  1.7327  3.5942 -0.0781
12567TIP3    H259193   2.228   3.928  14.660  1.4429 -1.1420  3.3207
12568TIP3   OH259194   3.053   1.581   1.716  0.1359 -0.4378 -0.0464
12568TIP3    H159195   2.993   1.531   1.771 -1.4108  0.7468 -0.6011
12568TIP3    H259196   3.107   1.630   1.779 -1.4395  0.7066  0.4604
12569TIP3   OH259197   3.535   1.819   4.038  0.3572  0.0086 -0.5204
12569TIP3    H159198   3.594   1.744   4.045 -0.7031 -0.7290  1.1372
12569TIP3    H259199   3.591   1.896   4.047  1.2296 -0.6406 -0.3288
12570TIP3   OH259200   2.165   3.038   1.309 -0.2393  0.2345  0.2451
12570TIP3    H159201   2.111   2.960   1.298  1.0967 -0.6258 -0.4836
12570TIP3    H259202   2.165   3.079   1.223  1.7069 -0.7904 -0.3143
12571TIP3   OH259203   3.064   0.581  15.828 -0.4009  0.3703 -0.8644
12571TIP3    H159204   3.035   0.516  15.892  1.4337  0.4881  0.1634
12571TIP3    H259205   3.005   0.655  15.842 -0.5432  0.0851  0.1686
12572TIP3   OH259206   1.838   2.956   4.929 -0.7439  0.3826  0.0444
12572TIP3    H159207   1.923   2.970   4.887 -0.5341  1.1442  0.6969
12572TIP3    H259208   1.774   2.986   4.865 -0.5014  0.1295 -0.3157
12573TIP3   OH259209   2.638   2.853  16.928 -0.7127  0.1442  0.1705
12573TIP3    H159210   2.636   2.760  16.952 -0.6085 -0.0648 -0.6027
12573TIP3    H259211   2.641   2.899  17.012 -1.2458 -0.5380  0.5796
12574TIP3   OH259212   4.631   5.547   3.657  0.0178  0.2821 -0.3463
12574TIP3    H159213   4.719   5.515   3.674  0.1996 -0.0530 -1.8090
12574TIP3    H259214   4.643   5.638   3.630 -0.0614  0.1461 -0.8379
12575TIP3   OH259215   1.199   0.569   3.553  0.0942 -0.1861  0.8169
12575TIP3    H159216   1.151   0.640   3.596 -1.6426 -0.2857 -0.8404
12575TIP3    H259217   1.131   0.518   3.509  1.7183 -0.2531 -1.7919
12576TIP3   OH259218   2.341   4.184   3.292 -0.5100 -0.8529 -0.2324
12576TIP3    H159219   2.422   4.161   3.337 -0.8323 -1.3585  0.0924
12576TIP3    H259220   2.291   4.234   3.357 -1.3512 -2.3261  0.2862
12577TIP3   OH259221   0.966   3.527  12.124  0.4108 -0.0962  0.5033
12577TIP3    H159222   0.920   3.543  12.207 -0.2427 -0.3933  0.1965
12577TIP3    H259223   1.050   3.490  12.151  0.9631  1.5118  1.1176
12578TIP3   OH259224   2.608   2.573   4.481  0.0448 -0.3174 -0.3337
12578TIP3    H159225   2.671   2.509   4.448  0.8141  1.2188 -2.0154
12578TIP3    H259226   2.651   2.658   4.468 -0.7820  0.5681  2.1606
12579TIP3   OH259227   4.161   4.476  14.503 -0.5759  0.2550  0.5412
12579TIP3    H159228   4.168   4.562  14.546  2.7428  0.8906 -0.9079
12579TIP3    H259229   4.092   4.431  14.551  0.5703  2.0752  4.3395
12580TIP3   OH259230   1.545   2.382   2.993 -0.2735 -0.1252  0.2834
12580TIP3    H159231   1.557   2.311   2.931  0.2388 -0.3318  0.6108
12580TIP3    H259232   1.517   2.339   3.074 -3.0344  0.2976 -0.3336
12581TIP3   OH259233   1.336   5.918  15.049  0.6580 -0.4661  0.2853
12581TIP3    H159234   1.407   5.901  15.112  1.1347 -0.9697 -0.3780
12581TIP3    H259235   1.293   5.997  15.083  2.0563  0.3478  0.2511
12582TIP3   OH259236   0.404   1.635  13.900  0.1817  0.3340  0.5923
12582TIP3    H159237   0.317   1.599  13.917  1.0134 -1.3917  1.5866
12582TIP3    H259238   0.404   1.655  13.807 -0.5918 -1.7440  0.0838
12583TIP3   OH259239   3.992   6.512  13.573  0.0237  0.0060  0.0428
12583TIP3    H159240   3.927   6.565  13.525 -0.7190 -1.0310 -0.1231
12583TIP3    H259241   4.015   6.442  13.512  1.1870  0.2444  0.1723
12584TIP3   OH259242   5.674   2.428   3.020 -0.0618  0.1388  0.5176
12584TIP3    H159243   5.700   2.518   3.002  0.9889 -0.1650  0.4764
12584TIP3    H259244   5.691   2.416   3.113 -0.7967  0.1690  0.6610
12585TIP3   OH259245   2.516   3.609  10.993  0.3923 -0.3232  0.7833
12585TIP3    H159246   2.477   3.579  10.910  0.7869 -2.2338  1.2297
12585TIP3    H259247   2.505   3.534  11.052 -0.2870  1.1625  2.6199
12586TIP3   OH259248   5.722   1.620  14.063 -0.4697  0.3808  0.1215
12586TIP3    H159249   5.664   1.632  14.139  0.8439  0.7467  1.1053
12586TIP3    H259250   5.739   1.709  14.032 -2.4555  0.1688 -1.8023
12587TIP3   OH259251   5.409   6.077   4.961  0.3140  0.0190 -0.4765
12587TIP3    H159252   5.331   6.081   5.017  1.2394 -1.7489  1.0749
12587TIP3    H259253   5.453   6.161   4.974  0.4020 -0.2735  1.3626
12588TIP3   OH259254   2.455   0.305   2.539 -0.2274  0.6333  0.1263
12588TIP3    H159255   2.441   0.218   2.575  0.3451 -0.4303 -2.0619
12588TIP3    H259256   2.367   0.340   2.525 -0.4572  0.6770  1.5481
12589TIP3   OH259257   0.373   2.520   3.882  0.1457  0.4411 -0.2133
12589TIP3    H159258   0.358   2.480   3.797  1.0138 -1.3403  0.4402
12589TIP3    H259259   0.465   2.545   3.881 -0.0922  1.3870 -0.1537
12590TIP3   OH259260   3.536   1.624  13.854  0.3159  0.2022 -0.2182
12590TIP3    H159261   3.605   1.605  13.791 -0.8433 -4.0541 -0.5071
12590TIP3    H259262   3.456   1.629  13.801 -0.0869  1.7765  0.4650
12591TIP3   OH259263   6.609   3.301   5.193 -0.4661 -0.8894 -0.1572
12591TIP3    H159264   6.559   3.279   5.115 -1.2110 -0.4516  0.1874
12591TIP3    H259265   6.698   3.314   5.161 -0.5035 -1.9739 -0.7251
12592TIP3   OH259266   6.458   2.706  12.048  0.0771  0.8566  0.2947
12592TIP3    H159267   6.401   2.630  12.049  0.5008  0.5266  1.6312
12592TIP3    H259268   6.472   2.724  11.955 -0.3439 -0.4531 -0.0485
12593TIP3   OH259269   2.966   4.843   5.562 -0.6983  0.1790 -0.3212
12593TIP3    H159270   3.050   4.887   5.579 -1.0942  1.6589 -1.9072
12593TIP3    H259271   2.900   4.903   5.596 -1.2075  0.1375 -1.2178
12594TIP3   OH259272   4.916   1.435   6.169  0.7777 -0.5170  0.0025
12594TIP3    H159273   4.966   1.420   6.249  1.4395  0.5618 -0.1786
12594TIP3    H259274   4.956   1.378   6.104  1.7320  0.2451 -0.1096
12595TIP3   OH259275   2.345   3.244   4.143  0.1142  0.2489 -0.2283
12595TIP3    H159276   2.281   3.296   4.192  2.2159  1.1044  1.8119
12595TIP3    H259277   2.304   3.157   4.137 -1.8638  1.1314 -0.3835
12596TIP3   OH259278   3.488   0.355  13.280  0.0969 -0.1226  0.3352
12596TIP3    H159279   3.460   0.345  13.371  2.3246  1.7599  1.3412
12596TIP3    H259280   3.584   0.348  13.284  0.2294 -0.3788 -1.9489
12597TIP3   OH259281   5.629   0.570   5.207  0.0541  0.9965  0.5831
12597TIP3    H159282   5.630   0.658   5.245  0.9522  1.3085 -0.1142
12597TIP3    H259283   5.544   0.534   5.232  0.2908  1.4732  2.1825
12598TIP3   OH259284   5.582   1.201   2.362 -0.5538 -0.1280 -0.3329
12598TIP3    H159285   5.583   1.184   2.268  0.4577  0.7076 -0.4971
12598TIP3    H259286   5.654   1.263   2.376  0.6937 -1.8211  1.3056
12599TIP3   OH259287   0.253   2.884   3.345  0.5103  0.4741  0.3225
12599TIP3    H159288   0.180   2.847   3.394  1.0920  1.3528  1.9219
12599TIP3    H259289   0.213   2.936   3.275 -0.3381 -1.9665 -1.1535
12600TIP3   OH259290   3.101   5.671  13.690 -0.0945  0.5430 -0.2718
12600TIP3    H159291   3.138   5.670  13.778  1.2215  3.5727 -0.6573
12600TIP3    H259292   3.007   5.658  13.703  0.0556  1.0518  1.6003
12601TIP3   OH259293   6.502   0.797   2.204 -0.3976  0.3754  0.0255
12601TIP3    H159294   6.498   0.709   2.167  0.2200 -0.5568  2.0366
12601TIP3    H259295   6.573   0.840   2.156 -0.4565 -0.3442 -0.7206
12602TIP3   OH259296   0.304   3.779   4.084  0.4237  0.3383  0.9095
12602TIP3    H159297   0.327   3.803   3.994 -1.2702 -1.6181 -0.1228
12602TIP3    H259298   0.367   3.711   4.108 -1.5141 -2.0636 -0.3935
12603TIP3   OH259299   5.840   3.766   2.911  0.7765 -0.8112  0.5006
12603TIP3    H159300   5.774   3.803   2.852  0.5059  1.2089  1.9807
12603TIP3    H259301   5.823   3.672   2.910 -1.2993 -0.4704 -0.1549
12604TIP3   OH259302   3.697   3.389  16.120  0.3687 -0.0352  0.0405
12604TIP3    H159303   3.778   3.386  16.171  0.8371  0.6074 -0.6539
12604TIP3    H259304   3.709   3.461  16.059 -0.3262 -0.5612 -0.7469
12605TIP3   OH259305   0.154   5.561  16.703  0.3277 -0.0615 -0.0202
12605TIP3    H159306   0.236   5.555  16.655 -0.8833  0.7381 -2.3330
12605TIP3    H259307   0.134   5.654  16.705  0.2543 -0.0639  2.0232
12606TIP3   OH259308   2.142   6.145   5.475 -0.1686  0.1955  0.9512
12606TIP3    H159309   2.148   6.049   5.475  1.4679  0.2583  2.3695
12606TIP3    H259310   2.080   6.166   5.544 -1.6019  0.1619 -0.2724
12607TIP3   OH259311   4.781   6.265   2.250  0.1817 -0.5204 -0.5499
12607TIP3    H159312   4.689   6.288   2.262  0.4913  0.5704 -0.1008
12607TIP3    H259313   4.787   6.174   2.278 -0.7510 -0.5855 -0.5287
12608TIP3   OH259314   6.187   5.071   4.574 -0.2819 -0.1006 -0.9432
12608TIP3    H159315   6.245   4.996   4.565 -0.8525 -0.4675 -1.6144
12608TIP3    H259316   6.139   5.076   4.491 -1.2408  0.1666 -0.3915
12609TIP3   OH259317   3.069   4.989  15.979 -0.0943  0.0072 -0.3074
12609TIP3    H159318   3.139   5.027  16.031 -1.1125  0.6523  0.6487
12609TIP3    H259319   2.990   5.033  16.010 -0.6160  1.4558 -3.3808
12610TIP3   OH259320   5.532   2.961   5.190  0.0160 -0.4307  0.2877
12610TIP3    H159321   5.453   2.964   5.245 -0.4019  1.3323 -0.3325
12610TIP3    H259322   5.604   2.949   5.252 -0.5523  0.1988  1.1011
12611TIP3   OH259323   2.278   0.971   0.324 -0.1762  0.2706  0.0724
12611TIP3    H159324   2.216   0.999   0.391 -0.2292 -0.3651  0.2995
12611TIP3    H259325   2.279   1.043   0.261 -1.1733  0.2836  0.0431
12612TIP3   OH259326   5.155   5.858  14.880 -0.3430 -0.2067  0.0197
12612TIP3    H159327   5.206   5.836  14.802 -1.1888 -0.3147 -0.5191
12612TIP3    H259328   5.198   5.812  14.951  0.6282  0.1451 -0.3311
12613TIP3   OH259329   2.155   1.094   0.535  0.1743  0.0745 -1.2851
12613TIP3    H159330   2.131   1.137   0.617 -1.4030 -0.3214 -1.5023
12613TIP3    H259331   2.120   1.151   0.467  1.7996  0.5915 -1.7310
12614TIP3   OH259332   1.767   3.021  16.083  0.4537 -0.1599  0.3684
12614TIP3    H159333   1.696   3.026  16.147  0.9808 -0.6120  0.9972
12614TIP3    H259334   1.835   2.969  16.126  0.7863 -0.5343 -0.5918
12615TIP3   OH259335   0.663   5.717  15.468  1.0055 -0.4787  0.3265
12615TIP3    H159336   0.654   5.770  15.547  1.2520 -0.4354  0.3242
12615TIP3    H259337   0.606   5.641  15.483 -0.0752  0.2303 -0.0512
12616TIP3   OH259338   4.416   4.529   1.947  0.1581  0.1345  0.2077
12616TIP3    H159339   4.387   4.484   1.868  3.1970  0.1648 -1.0683
12616TIP3    H259340   4.378   4.617   1.940  0.6946  0.2604 -1.4549
12617TIP3   OH259341   6.312   6.620   5.440 -0.5565 -0.0222 -0.4837
12617TIP3    H159342   6.283   6.702   5.400 -0.2223  1.1039  1.4393
12617TIP3    H259343   6.404   6.612   5.414 -0.5045  0.3818 -0.4352
12618TIP3   OH259344   6.490   5.386   1.406  0.0451  0.6301  0.3062
12618TIP3    H159345   6.526   5.401   1.494  1.3762 -0.0411 -0.0862
12618TIP3    H259346   6.445   5.302   1.413  1.1441 -0.0007  0.0944
12619TIP3   OH259347   4.802   3.492  15.081 -0.7917 -0.3796  0.5902
12619TIP3    H159348   4.865   3.496  15.009  4.1780 -1.9143  4.3229
12619TIP3    H259349   4.804   3.581  15.118 -0.5974 -0.4821  0.8306
12620TIP3   OH259350   1.125   0.879   2.073 -0.2221  0.1508  0.1421
12620TIP3    H159351   1.194   0.884   2.006  1.1135  0.8233  1.5014
12620TIP3    H259352   1.096   0.788   2.070  2.6473 -0.9255  1.2897
12621TIP3   OH259353   1.754   5.100   5.724 -0.4779 -0.1184  0.1962
12621TIP3    H159354   1.839   5.117   5.763 -1.4601  1.2229  1.9022
12621TIP3    H259355   1.693   5.156   5.773 -1.9269  1.2400 -2.8482
12622TIP3   OH259356   4.584   3.512  11.972 -0.2684  0.4591  0.5241
12622TIP3    H159357   4.679   3.515  11.965 -0.3172 -0.6836 -3.2115
12622TIP3    H259358   4.566   3.429  12.017  0.6812 -1.5592 -2.4498
12623TIP3   OH259359   4.212   0.145  15.890 -0.8479  0.1977 -0.6207
12623TIP3    H159360   4.264   0.068  15.910 -0.7896  0.4426  0.1864
12623TIP3    H259361   4.240   0.170  15.802  1.1517  0.9142  0.1618
12624TIP3   OH259362   3.197   5.015  12.410 -0.3828 -0.0108  0.1957
12624TIP3    H159363   3.162   4.976  12.491 -1.6484 -0.1516 -0.3977
12624TIP3    H259364   3.283   5.050  12.436 -0.6263 -0.3229  1.5195
12625TIP3   OH259365   0.932   3.095   4.570  0.4549 -0.3489 -0.0023
12625TIP3    H159366   1.028   3.092   4.571  0.5215  1.1014  0.3298
12625TIP3    H259367   0.907   3.034   4.500  1.7196  0.8493 -1.5899
12626TIP3   OH259368   1.540   0.308   2.264  0.2552  0.5045  0.4484
12626TIP3    H159369   1.454   0.285   2.228 -0.3316  1.5751  1.1055
12626TIP3    H259370   1.525   0.318   2.358  1.4341 -0.7308  0.8144
12627TIP3   OH259371   1.818   1.833   5.240 -0.6289 -0.1850  0.3145
12627TIP3    H159372   1.836   1.866   5.328  0.0015  1.1805 -0.3095
12627TIP3    H259373   1.868   1.751   5.235 -1.4520 -0.8069  1.5384
12628TIP3   OH259374   5.575   2.470  11.660  0.0550  0.0194  0.4623
12628TIP3    H159375   5.479   2.463  11.662  0.0379  0.2262  0.3714
12628TIP3    H259376   5.601   2.419  11.584  0.0624 -0.5326  0.8246
12629TIP3   OH259377   3.286   0.326   2.116  0.5356  0.0869  0.9031
12629TIP3    H159378   3.324   0.239   2.128  1.0347  0.0881 -0.4584
12629TIP3    H259379   3.253   0.325   2.025 -2.5313  0.1722  1.8814
12630TIP3   OH259380   4.683   4.602   5.285  0.2731  0.2469  0.6375
12630TIP3    H159381   4.739   4.527   5.303  1.1565  1.2682  2.4050
12630TIP3    H259382   4.613   4.597   5.350 -1.7123 -0.9208 -1.4399
12631TIP3   OH259383   6.594   2.431   4.239 -0.6848  0.2269  0.0499
12631TIP3    H159384   6.581   2.521   4.207  0.2380 -0.3494 -2.1735
12631TIP3    H259385   6.573   2.376   4.163 -1.4473 -1.4824  1.4298
12632TIP3   OH259386   5.302   0.509  11.229  0.0138  0.2371  0.2684
12632TIP3    H159387   5.316   0.464  11.312 -1.1588 -1.6068 -0.4546
12632TIP3    H259388   5.374   0.479  11.174 -1.3408 -1.7520 -0.5469
12633TIP3   OH259389   1.330   0.751  16.128  0.3923 -0.2647 -0.5276
12633TIP3    H159390   1.283   0.711  16.201 -0.2193 -0.0867 -0.8183
12633TIP3    H259391   1.301   0.702  16.051 -0.7443  1.0008 -0.9612
12634TIP3   OH259392   0.509   3.675  11.946 -0.2824  0.3139 -0.2042
12634TIP3    H159393   0.466   3.689  12.031  2.7401  0.5533  1.4273
12634TIP3    H259394   0.562   3.753  11.934 -0.1786 -0.0079 -2.0795
12635TIP3   OH259395   3.684   2.182   1.364 -0.0288 -0.4537  0.3025
12635TIP3    H159396   3.700   2.257   1.421 -2.1162 -0.4602  0.9727
12635TIP3    H259397   3.613   2.134   1.407  1.1129 -2.7187 -0.2134
12636TIP3   OH259398   0.837   5.110   0.784  0.1197 -0.4493  0.5254
12636TIP3    H159399   0.792   5.188   0.752  0.3641  0.0979  1.4768
12636TIP3    H259400   0.888   5.141   0.859  1.1368 -1.2949  0.2058
12637TIP3   OH259401   0.326   5.723  14.977  0.2713  0.4400  0.2096
12637TIP3    H159402   0.316   5.696  15.068  1.2695 -0.2222  0.1410
12637TIP3    H259403   0.295   5.813  14.975 -0.0486  0.3644  1.1357
12638TIP3   OH259404   0.446   6.211   5.116  0.7077  0.2849 -0.1975
12638TIP3    H159405   0.403   6.229   5.033 -0.8349 -0.2017  0.4567
12638TIP3    H259406   0.499   6.289   5.133  0.0209  0.9447 -1.0115
12639TIP3   OH259407   1.135   2.099   5.728 -0.0376  0.4667 -0.3970
12639TIP3    H159408   1.046   2.068   5.745  0.1859  0.5790  1.0884
12639TIP3    H259409   1.145   2.176   5.784  1.3948 -0.2662  0.4242
12640TIP3   OH259410   6.159   5.318   4.043  0.0931  0.4338 -0.7633
12640TIP3    H159411   6.197   5.259   4.109 -0.2229  1.9994  0.8989
12640TIP3    H259412   6.163   5.404   4.084  0.1616  1.5251 -2.9636
12641TIP3   OH259413   6.818   2.831   6.682  0.0137  0.1694  0.0872
12641TIP3    H159414   6.829   2.923   6.657  2.7587 -0.2166 -0.3673
12641TIP3    H259415   6.870   2.782   6.619 -1.8668 -1.8161 -0.0522
12642TIP3   OH259416   6.257   2.072   0.599 -0.3080  0.3373 -0.2751
12642TIP3    H159417   6.164   2.093   0.614 -0.6790 -0.9789 -0.5300
12642TIP3    H259418   6.298   2.087   0.684 -0.9222  0.1787  0.0627
12643TIP3   OH259419   0.771   0.826   4.732  0.4866  1.1170  0.3309
12643TIP3    H159420   0.845   0.765   4.743  1.8439  1.6401 -4.1851
12643TIP3    H259421   0.699   0.770   4.702  1.0084  1.3079 -1.3955
12644TIP3   OH259422   1.514   3.227   3.252  0.0288  0.2660  0.0009
12644TIP3    H159423   1.461   3.171   3.195  0.6511 -0.4776  0.1374
12644TIP3    H259424   1.535   3.172   3.327 -2.3744  1.8336  1.9318
12645TIP3   OH259425   0.287   4.562  14.974 -0.7315  0.7728 -0.3877
12645TIP3    H159426   0.286   4.470  14.999  1.8191  1.3593  2.5047
12645TIP3    H259427   0.195   4.584  14.958 -1.5202 -1.9870 -0.1733
12646TIP3   OH259428   4.523   2.265  16.577 -0.8211  0.4625 -0.0188
12646TIP3    H159429   4.539   2.359  16.573  0.0395  0.2865 -1.5238
12646TIP3    H259430   4.467   2.246  16.501 -0.9889 -0.2415  0.2684
12647TIP3   OH259431   1.711   6.201  16.938 -0.9217 -0.0031 -0.7206
12647TIP3    H159432   1.730   6.295  16.937  0.4128 -0.2301  0.6723
12647TIP3    H259433   1.627   6.195  16.985 -0.8974  0.4642 -0.6110
12648TIP3   OH259434   5.206   4.025   0.651  0.0853  0.0445 -0.2434
12648TIP3    H159435   5.153   4.015   0.572  2.0444  2.5518 -2.0148
12648TIP3    H259436   5.200   4.118   0.673  1.6027 -0.1133  1.0830
12649TIP3   OH259437   4.526   4.609   0.349  0.4505  0.0114 -0.1534
12649TIP3    H159438   4.478   4.690   0.368  0.0020 -0.2859 -0.0116
12649TIP3    H259439   4.461   4.539   0.359  1.2037 -0.5224  1.3550
12650TIP3   OH259440   0.827   0.313  14.789 -0.2567 -0.1028  0.4478
12650TIP3    H159441   0.875   0.388  14.753 -1.0366  0.7796  1.2042
12650TIP3    H259442   0.823   0.330  14.883  1.4566 -2.1941  0.9921
12651TIP3   OH259443   3.442   0.198  12.304 -0.0028  0.6705 -0.3819
12651TIP3    H159444   3.509   0.131  12.315 -0.4278  0.4502  1.0940
12651TIP3    H259445   3.464   0.240  12.221  0.9998 -0.4588 -0.7273
12652TIP3   OH259446   3.941   3.619  13.357  0.2731 -0.1222  0.7186
12652TIP3    H159447   3.869   3.607  13.296  1.2111 -1.0933 -0.2469
12652TIP3    H259448   4.014   3.650  13.302  0.7661  0.2499  1.5594
12653TIP3   OH259449   3.060   1.544   3.445 -0.3075 -0.5722  0.1921
12653TIP3    H159450   2.997   1.609   3.475  0.5713  1.5344 -2.2377
12653TIP3    H259451   3.144   1.575   3.478  0.3656  0.6191 -2.4298
12654TIP3   OH259452   5.884   3.901  16.992 -0.0533  0.2614 -0.0161
12654TIP3    H159453   5.926   3.830  17.042  0.1184 -0.4185 -1.0933
12654TIP3    H259454   5.803   3.862  16.960  0.5314  0.2046 -1.4836
12655TIP3   OH259455   2.936   5.809  15.669  0.4679  0.0699  0.2360
12655TIP3    H159456   2.880   5.829  15.743  1.5199  1.2446  0.7674
12655TIP3    H259457   2.966   5.720  15.684  0.2043  0.0934  0.9100
12656TIP3   OH259458   2.815   4.834  11.546  0.4012 -0.4825  0.4399
12656TIP3    H159459   2.768   4.907  11.587  2.1825 -0.0338  1.8000
12656TIP3    H259460   2.886   4.876  11.498  0.6666 -1.2611  0.1515
12657TIP3   OH259461   2.396   3.770   5.303 -0.4687  0.4487 -0.1754
12657TIP3    H159462   2.336   3.719   5.357  1.0662 -1.2236  0.0653
12657TIP3    H259463   2.345   3.792   5.225 -1.4415 -0.8055  0.0726
12658TIP3   OH259464   1.140   1.956  13.242 -0.1835  0.6010  0.3216
12658TIP3    H159465   1.111   1.916  13.323  0.3507  0.8526  0.6415
12658TIP3    H259466   1.137   1.886  13.177 -0.6022  0.4002  0.5579
12659TIP3   OH259467   6.801   0.659   3.564 -0.1951  0.3100  0.2801
12659TIP3    H159468   6.861   0.732   3.574 -0.3549  0.2824  1.6240
12659TIP3    H259469   6.826   0.598   3.633  0.1338 -1.0675 -0.9983
12660TIP3   OH259470   5.925   1.095  13.599 -0.3826 -0.2039  0.4605
12660TIP3    H159471   5.833   1.074  13.614  0.0960 -0.9639  2.8412
12660TIP3    H259472   5.940   1.175  13.649  0.9557 -1.9524  3.0981
12661TIP3   OH259473   5.657   0.383  16.177  0.7381  0.1158 -0.3692
12661TIP3    H159474   5.700   0.297  16.179 -0.4917 -0.5255  0.5078
12661TIP3    H259475   5.599   0.382  16.253 -1.4730  0.5506 -1.9244
12662TIP3   OH259476   5.257   3.617   1.850 -0.0035  0.8824  0.0035
12662TIP3    H159477   5.299   3.618   1.764  2.1667  2.7548  0.9701
12662TIP3    H259478   5.218   3.704   1.858  0.9682  1.2257  1.3748
12663TIP3   OH259479   3.063   4.907   0.318  0.0326  0.8448 -0.2267
12663TIP3    H159480   3.149   4.942   0.340  0.0189  0.5765  0.2604
12663TIP3    H259481   3.001   4.966   0.362 -0.0351  1.0308 -0.5667
12664TIP3   OH259482   5.637   5.884  14.944  0.1130 -0.0653 -0.8259
12664TIP3    H159483   5.556   5.919  14.906  0.6256  1.6107 -0.4338
12664TIP3    H259484   5.634   5.910  15.036  0.8798 -0.3868 -0.7062
12665TIP3   OH259485   0.145   3.755   2.601 -0.5331  0.1823  0.1855
12665TIP3    H159486   0.117   3.803   2.523  0.3918  0.4305 -0.0111
12665TIP3    H259487   0.216   3.809   2.637  3.4938 -2.8766 -2.2972
12666TIP3   OH259488   4.164   3.583  16.624 -0.2834  0.2770  0.3350
12666TIP3    H159489   4.091   3.563  16.566 -0.7381  2.6958 -0.0316
12666TIP3    H259490   4.230   3.623  16.566  0.5428 -0.1119  0.9842
12667TIP3   OH259491   3.823   5.887  16.160 -0.1543  0.5506  0.8480
12667TIP3    H159492   3.781   5.911  16.078  0.5248  1.3609  0.7312
12667TIP3    H259493   3.917   5.890  16.142 -0.0018  0.4449  1.5677
12668TIP3   OH259494   3.541   4.453   4.789 -0.5647  0.0117 -0.2036
12668TIP3    H159495   3.531   4.525   4.852  0.9544  0.8198 -0.8154
12668TIP3    H259496   3.568   4.379   4.843 -2.8674 -0.3713  0.5361
12669TIP3   OH259497   6.039   4.999   4.371  0.7127  0.2724 -0.2474
12669TIP3    H159498   5.951   5.019   4.403  0.6575 -0.2146 -0.0802
12669TIP3    H259499   6.025   4.958   4.286  0.8605  1.5884 -0.9260
12670TIP3   OH259500   1.144   1.783   6.798 -0.4119 -0.2074 -0.1169
12670TIP3    H159501   1.236   1.797   6.820 -0.5512  0.2142  0.1930
12670TIP3    H259502   1.134   1.687   6.795  0.3149 -0.2662 -1.3122
12671TIP3   OH259503   4.533   3.339  13.222  0.1294 -0.4803  0.1116
12671TIP3    H159504   4.625   3.348  13.249  0.6875  0.8383 -1.9156
12671TIP3    H259505   4.486   3.405  13.272  0.5981 -0.0855  0.0387
12672TIP3   OH259506   4.010   3.791   1.559 -0.2414 -0.2551 -0.2030
12672TIP3    H159507   3.991   3.725   1.492 -0.1985 -0.1891 -0.2809
12672TIP3    H259508   3.935   3.851   1.556 -0.3718 -0.4082  0.0012
12673TIP3   OH259509   0.301   6.792  11.397  0.9595  0.3796  0.1016
12673TIP3    H159510   0.297   6.742  11.316 -0.7760  0.2548  0.2355
12673TIP3    H259511   0.334   6.878  11.370 -1.2458  0.9301 -1.0954
12674TIP3   OH259512   4.833   0.183  12.314 -0.8920  0.2648  0.1901
12674TIP3    H159513   4.899   0.122  12.281  0.2376 -0.0408  2.8089
12674TIP3    H259514   4.833   0.255  12.252  2.9783  0.9703  0.7941
12675TIP3   OH259515   3.064   6.579   3.538 -0.1429 -0.3715 -0.5259
12675TIP3    H159516   3.154   6.612   3.541 -0.2353  0.0604 -1.8319
12675TIP3    H259517   3.049   6.541   3.625  1.0754  0.1301 -0.0788
12676TIP3   OH259518   0.717   5.264   1.052 -0.7279 -0.3586  0.6233
12676TIP3    H159519   0.738   5.357   1.049 -0.1151 -0.5132 -0.1608
12676TIP3    H259520   0.802   5.220   1.051 -1.0219 -0.9382  0.6019
12677TIP3   OH259521   1.789   2.430   4.875 -0.2329  0.0157 -0.7249
12677TIP3    H159522   1.729   2.394   4.940  0.3763  0.5556  0.1432
12677TIP3    H259523   1.770   2.379   4.796 -0.8110 -0.8244 -0.0730
12678TIP3   OH259524   6.136   5.070   2.267  0.1117 -0.2673 -0.1582
12678TIP3    H159525   6.178   5.111   2.191 -1.2319  0.4711 -0.5328
12678TIP3    H259526   6.186   4.990   2.282  0.6795 -0.1953 -1.5406
12679TIP3   OH259527   6.741   1.441  14.430 -0.4284  0.5110 -0.0727
12679TIP3    H159528   6.715   1.371  14.370 -0.2999 -1.4296  1.9907
12679TIP3    H259529   6.829   1.416  14.459  0.5270  2.7168 -0.8774
12680TIP3   OH259530   2.394   2.863  15.254  0.2412  0.8794  0.0027
12680TIP3    H159531   2.409   2.937  15.313  0.0127  0.9714 -0.0550
12680TIP3    H259532   2.358   2.903  15.175  0.1875  0.7123 -0.0561
12681TIP3   OH259533   3.672   2.383   4.815  0.1241  0.7576 -0.1039
12681TIP3    H159534   3.680   2.466   4.769  1.3253 -0.1743 -1.6544
12681TIP3    H259535   3.706   2.318   4.754 -2.7001 -1.1973  0.2220
12682TIP3   OH259536   6.517   6.034  13.962  0.1331  0.1591  0.1522
12682TIP3    H159537   6.446   6.093  13.939 -0.8902 -1.6435 -1.5790
12682TIP3    H259538   6.515   6.029  14.058 -1.6722  0.6385  0.1630
12683TIP3   OH259539   4.181   0.241  11.916 -0.2398  0.7122  0.0577
12683TIP3    H159540   4.132   0.248  11.998  1.4027  0.9337  1.0729
12683TIP3    H259541   4.243   0.169  11.931 -0.1842  0.4834 -1.1520
12684TIP3   OH259542   2.957   0.064  13.332 -0.2141 -0.0874 -0.3360
12684TIP3    H159543   3.024   0.120  13.293  0.4757  0.2018  1.1756
12684TIP3    H259544   2.956  -0.014  13.277  0.0777  0.6420 -1.4234
12685TIP3   OH259545   5.450   0.057  12.713  0.4630 -0.4620 -0.5383
12685TIP3    H159546   5.443   0.083  12.804 -0.5067 -0.3039 -0.6487
12685TIP3    H259547   5.544   0.056  12.695  0.8390 -2.7839  1.1093
12686TIP3   OH259548   2.178   1.316   4.134 -0.7564 -0.2319  0.2924
12686TIP3    H159549   2.162   1.377   4.207 -0.9562  0.0329  0.0325
12686TIP3    H259550   2.154   1.366   4.056  0.9021  0.0143 -0.0973
12687TIP3   OH259551   0.737   5.242   2.177 -0.5179 -0.2958 -0.0325
12687TIP3    H159552   0.832   5.250   2.188 -0.3599 -3.2177  1.8774
12687TIP3    H259553   0.724   5.241   2.082  1.6445 -1.8085 -0.3789
12688TIP3   OH259554   5.611   6.522   0.921 -0.1155 -0.0962  0.3170
12688TIP3    H159555   5.669   6.481   0.986  1.1772  0.3474 -0.5299
12688TIP3    H259556   5.660   6.597   0.889  0.1248 -1.3430 -2.5422
12689TIP3   OH259557   2.287   3.353   2.037 -0.2716 -0.0399  0.3100
12689TIP3    H159558   2.247   3.384   1.956 -0.0735 -0.5366  0.0210
12689TIP3    H259559   2.277   3.258   2.035 -0.0686 -0.0769  0.7632
12690TIP3   OH259560   3.480   0.582   3.724  0.5778  0.6276 -0.3628
12690TIP3    H159561   3.553   0.565   3.783 -0.2332 -1.5004  0.1299
12690TIP3    H259562   3.403   0.551   3.772 -0.3715  0.8672 -1.6811
12691TIP3   OH259563   5.681   3.546  10.619 -0.3038 -0.5542  0.0003
12691TIP3    H159564   5.620   3.619  10.604 -0.4869 -0.5302  0.8645
12691TIP3    H259565   5.703   3.517  10.530 -1.1907 -0.2539 -0.3401
12692TIP3   OH259566   3.665   2.349  16.534  0.5541 -0.1587  0.4789
12692TIP3    H159567   3.687   2.265  16.492  1.1418 -0.6648  1.7439
12692TIP3    H259568   3.679   2.414  16.465 -0.9544 -1.1701 -0.8611
12693TIP3   OH259569   5.149   6.244  11.989  0.1579  0.4235  0.7795
12693TIP3    H159570   5.241   6.217  11.991  0.2879  0.7010 -0.4941
12693TIP3    H259571   5.139   6.288  11.904 -1.0170  0.8753  1.1355
12694TIP3   OH259572   0.386   0.202   2.381  0.4043  0.6035  0.4688
12694TIP3    H159573   0.387   0.235   2.470  0.3778  0.4665  0.5203
12694TIP3    H259574   0.297   0.170   2.368 -0.2926  2.7027 -0.3792
12695TIP3   OH259575   1.114   5.441  11.748 -0.4458  0.0472 -0.1210
12695TIP3    H159576   1.033   5.472  11.790  0.1791  0.5853  0.7220
12695TIP3    H259577   1.180   5.505  11.774  0.3698 -0.6808 -0.3584
12696TIP3   OH259578   2.220   2.659  15.322 -0.0316  0.1049  0.4168
12696TIP3    H159579   2.286   2.601  15.358  0.1351 -0.4095 -0.6876
12696TIP3    H259580   2.267   2.741  15.304  0.5303 -0.5052 -1.0905
12697TIP3   OH259581   0.576   2.473   4.213 -0.2940 -0.0993  0.0621
12697TIP3    H159582   0.572   2.561   4.175  0.0054 -0.2169 -0.2499
12697TIP3    H259583   0.669   2.456   4.223 -0.3697  0.2714  1.6783
12698TIP3   OH259584   3.339   0.862   0.541 -0.1837  0.1081 -0.4917
12698TIP3    H159585   3.398   0.883   0.613 -0.6820 -0.3307  0.0567
12698TIP3    H259586   3.378   0.905   0.464  0.6574  0.1034 -0.0771
12699TIP3   OH259587   1.574   2.158  17.041 -0.7090 -0.4298  0.3675
12699TIP3    H159588   1.627   2.092  17.085 -0.8406  0.1641  1.4582
12699TIP3    H259589   1.540   2.114  16.963  2.4159 -0.4669 -1.1291
12700TIP3   OH259590   1.268   5.154   4.452  0.3131  0.1743  0.4905
12700TIP3    H159591   1.303   5.126   4.536  3.2494 -0.6121 -0.8777
12700TIP3    H259592   1.246   5.073   4.406  1.1457  0.4372 -0.4199
12701TIP3   OH259593   2.616   2.344  14.275 -0.1201  0.4711  0.0698
12701TIP3    H159594   2.637   2.397  14.199 -2.2221  0.5151 -0.5374
12701TIP3    H259595   2.689   2.282  14.282  0.0312  0.3256 -2.0929
12702TIP3   OH259596   2.482   2.785   6.548  0.0151  0.1915  0.3390
12702TIP3    H159597   2.513   2.717   6.488 -1.1873 -0.1263  0.0516
12702TIP3    H259598   2.511   2.867   6.508 -1.4703  0.0433 -1.1629
12703TIP3   OH259599   2.006   0.057   4.481 -0.4419  0.3525  0.4145
12703TIP3    H159600   1.916   0.049   4.452 -1.1683  1.9589  2.0173
12703TIP3    H259601   2.057   0.011   4.414 -2.2345  1.2153 -1.6813
12704TIP3   OH259602   1.797   5.808   6.081  0.5560 -0.0558 -0.5222
12704TIP3    H159603   1.863   5.739   6.086  0.8401  0.2368 -0.1096
12704TIP3    H259604   1.717   5.766   6.112  0.8749 -0.0285  0.3720
12705TIP3   OH259605   1.182   0.694  17.213  0.0508  0.6982 -0.4505
12705TIP3    H159606   1.145   0.656  17.133 -0.6609  4.2021 -1.9946
12705TIP3    H259607   1.144   0.643  17.284 -2.0926 -0.3683 -2.2415
12706TIP3   OH259608   1.259   6.312   1.783  0.1147 -0.5502 -0.1193
12706TIP3    H159609   1.182   6.356   1.817 -0.9133 -1.2918 -1.3959
12706TIP3    H259610   1.326   6.380   1.779 -1.7406  1.3264 -3.0963
12707TIP3   OH259611   3.484   5.505   0.241 -0.3697 -0.0773  0.2438
12707TIP3    H159612   3.525   5.570   0.184 -0.5517  0.0275  0.2309
12707TIP3    H259613   3.501   5.421   0.197  1.9954 -0.3438  1.4761
12708TIP3   OH259614   2.720   2.653   3.554 -0.0096  0.0842  0.0552
12708TIP3    H159615   2.814   2.668   3.555  0.0996  0.3840 -3.2058
12708TIP3    H259616   2.710   2.566   3.513 -1.1531 -0.0548  0.5820
12709TIP3   OH259617   2.599   6.485   3.452 -0.1510 -0.4813  0.1900
12709TIP3    H159618   2.561   6.552   3.509 -0.9737 -0.0771 -0.8086
12709TIP3    H259619   2.555   6.496   3.368  2.6877  0.4852 -1.2905
12710TIP3   OH259620   2.595   2.346   4.658 -0.2034 -0.4714 -0.8195
12710TIP3    H159621   2.528   2.408   4.631  0.4036 -0.1741 -1.6659
12710TIP3    H259622   2.677   2.383   4.626  0.1955 -1.5844 -1.1332
12711TIP3   OH259623   1.939   4.583   6.545 -0.0134 -0.0599  0.4836
12711TIP3    H159624   1.986   4.635   6.610  0.8526 -1.3691  0.9411
12711TIP3    H259625   1.970   4.493   6.559 -1.8399 -0.8002  0.0752
12712TIP3   OH259626   0.426   6.080   1.434  0.1510  0.3016  0.0525
12712TIP3    H159627   0.509   6.050   1.470  0.0138  1.2619  1.2510
12712TIP3    H259628   0.368   6.005   1.440  1.0836 -0.5690 -1.3804
12713TIP3   OH259629   6.696   0.611  16.179 -0.2197  0.2150 -0.2330
12713TIP3    H159630   6.686   0.524  16.140  0.4860 -0.0125  0.0624
12713TIP3    H259631   6.787   0.613  16.208 -0.0855  1.2646 -0.7153
12714TIP3   OH259632   1.485   6.407  13.428  0.4438 -0.2776  0.1049
12714TIP3    H159633   1.508   6.327  13.475  0.3996  0.7317  1.9084
12714TIP3    H259634   1.567   6.456  13.421  0.3453 -0.1776 -0.4243
12715TIP3   OH259635   1.949   1.400   4.969 -0.3309  0.0550  0.3958
12715TIP3    H159636   1.885   1.432   4.905  1.5981  1.2539 -1.0570
12715TIP3    H259637   2.016   1.357   4.916 -0.0699 -1.5004  1.8992
12716TIP3   OH259638   4.200   3.863  12.333  0.7612  0.3855  0.1115
12716TIP3    H159639   4.221   3.948  12.373  0.3108 -0.0394  1.2874
12716TIP3    H259640   4.244   3.799  12.389  1.6946 -0.1412 -1.1767
12717TIP3   OH259641   6.563   1.147  12.326 -0.7250 -0.5040 -0.2534
12717TIP3    H159642   6.627   1.088  12.286  0.7766  0.9928 -0.1795
12717TIP3    H259643   6.530   1.199  12.253 -1.0886 -0.5701 -0.1355
12718TIP3   OH259644   0.112   0.337   3.327  0.1704  0.1170 -0.4419
12718TIP3    H159645   0.107   0.388   3.246  1.9671 -0.9676 -1.3039
12718TIP3    H259646   0.190   0.370   3.372  0.3407 -0.6612 -0.1440
12719TIP3   OH259647   4.743   0.046   1.278 -0.0168  0.3864  0.4090
12719TIP3    H159648   4.762  -0.034   1.327 -0.6261  1.1962  2.0663
12719TIP3    H259649   4.822   0.100   1.288 -0.3291  0.7562  0.9717
12720TIP3   OH259650   1.697   6.527  15.639 -0.1524  0.5205 -0.1170
12720TIP3    H159651   1.777   6.574  15.662  0.2850  0.9769 -2.3194
12720TIP3    H259652   1.629   6.595  15.638 -0.2699  0.4093  0.3165
12721TIP3   OH259653   2.492   4.700   2.160  0.0935 -0.2697  0.1648
12721TIP3    H159654   2.407   4.656   2.152  0.1762 -0.9687  2.4302
12721TIP3    H259655   2.479   4.786   2.121 -1.6569 -0.3777  0.4427
12722TIP3   OH259656   1.012   3.405   4.007  0.7540 -0.5997 -0.6297
12722TIP3    H159657   1.038   3.399   3.915 -1.0252 -1.3545 -1.1044
12722TIP3    H259658   0.929   3.359   4.013  0.4842  0.0188  1.2352
12723TIP3   OH259659   0.360   1.968  15.756  0.4200 -0.1208  0.2958
12723TIP3    H159660   0.272   1.953  15.791  0.1314  0.4742 -0.1542
12723TIP3    H259661   0.419   1.940  15.826 -0.1371 -0.0238  0.8103
12724TIP3   OH259662   0.185   2.709   5.375 -0.0876 -0.5877 -0.1019
12724TIP3    H159663   0.274   2.687   5.348 -0.7699  0.1264 -3.2622
12724TIP3    H259664   0.156   2.633   5.424  1.4845 -1.7915 -0.9389
12725TIP3   OH259665   2.337   2.000   3.885 -0.1857  0.3873 -0.2926
12725TIP3    H159666   2.281   1.938   3.840  1.3954  0.2487 -2.1912
12725TIP3    H259667   2.363   1.955   3.965  0.3587 -1.1374 -1.2938
12726TIP3   OH259668   2.592   0.191  15.627 -0.2972  0.3921 -0.1787
12726TIP3    H159669   2.545   0.267  15.593 -0.6152 -0.1648 -1.0296
12726TIP3    H259670   2.649   0.164  15.555  0.1654  0.1111  0.2855
12727TIP3   OH259671   1.151   0.600  15.163  0.0300  0.4321  0.1188
12727TIP3    H159672   1.112   0.583  15.077 -0.5150  0.1831  0.4143
12727TIP3    H259673   1.239   0.562  15.156  0.0383  0.5293 -0.3700
12728TIP3   OH259674   1.832   0.758   3.576 -0.4612  0.6852  0.3996
12728TIP3    H159675   1.768   0.687   3.568 -0.1374  0.4803 -0.6231
12728TIP3    H259676   1.810   0.803   3.657 -0.3958 -0.8770  1.3173
12729TIP3   OH259677   5.310   3.152   4.523 -0.1773 -0.3742  0.0200
12729TIP3    H159678   5.231   3.170   4.472 -0.1426 -2.1304 -0.7456
12729TIP3    H259679   5.313   3.221   4.589 -0.0474  2.1979 -2.5184
12730TIP3   OH259680   3.943   1.739   0.555  0.2075 -0.5472  0.5357
12730TIP3    H159681   4.006   1.758   0.485  0.4642 -0.6168  0.7492
12730TIP3    H259682   3.986   1.768   0.635  0.2723 -1.2694  0.7704
12731TIP3   OH259683   6.353   3.927   1.909  0.3038  0.2798 -0.0130
12731TIP3    H159684   6.438   3.967   1.920  0.4673 -0.0358 -0.1095
12731TIP3    H259685   6.356   3.888   1.821 -0.2690  1.0638 -0.3913
12732TIP3   OH259686   6.075   6.251  11.245 -0.2641  0.5511 -0.0812
12732TIP3    H159687   6.119   6.314  11.302 -0.1422 -0.3936  0.8926
12732TIP3    H259688   6.008   6.211  11.300 -1.6665  1.2124 -1.2462
12733TIP3   OH259689   3.233   0.786  16.954  0.4598 -0.0167  0.4253
12733TIP3    H159690   3.245   0.751  16.866 -1.0917  0.6613 -0.0883
12733TIP3    H259691   3.209   0.709  17.007 -0.5474 -0.1297 -0.1765
12734TIP3   OH259692   3.227   4.463   5.662 -0.0835  0.1393 -0.2913
12734TIP3    H159693   3.153   4.509   5.624  0.5885  1.1945 -0.3702
12734TIP3    H259694   3.202   4.447   5.753  0.8643  3.6249  0.7559
12735TIP3   OH259695   4.851   2.267   3.116  0.0756 -0.8167  0.1893
12735TIP3    H159696   4.806   2.268   3.200  3.1414 -0.2177  2.0012
12735TIP3    H259697   4.787   2.301   3.054 -2.7866 -2.5787  1.9336
12736TIP3   OH259698   5.929   6.780  15.479 -0.1991  0.2497  0.4988
12736TIP3    H159699   5.998   6.726  15.440 -0.6192 -0.3199  0.5258
12736TIP3    H259700   5.897   6.834  15.406  0.0728  0.3093  0.4200
12737TIP3   OH259701   1.092   1.985   2.771 -0.3658 -0.2033  0.5180
12737TIP3    H159702   1.126   1.923   2.835 -2.1225 -0.3887  1.3380
12737TIP3    H259703   0.998   1.967   2.768 -0.9569  2.4244  0.8261
12738TIP3   OH259704   3.177   6.032   5.821 -0.8746  0.1959  0.1128
12738TIP3    H159705   3.220   6.032   5.907 -0.8766  0.3039  0.1147
12738TIP3    H259706   3.092   5.991   5.837 -1.9903  2.5810  0.7426
12739TIP3   OH259707   4.464   6.561   1.682 -0.2462 -0.2685 -0.1984
12739TIP3    H159708   4.482   6.650   1.653  2.3336 -1.1643 -1.6267
12739TIP3    H259709   4.543   6.512   1.659 -1.2073 -2.7383  1.4048
12740TIP3   OH259710   1.260   1.700   1.805  0.6710 -0.2875  0.0540
12740TIP3    H159711   1.221   1.614   1.817  0.2160 -0.2128 -0.8267
12740TIP3    H259712   1.190   1.753   1.766  0.5079  0.8618  1.7750
12741TIP3   OH259713   0.363   2.545  12.549 -0.1076 -0.4973  0.0286
12741TIP3    H159714   0.389   2.606  12.480 -3.1355  0.8002 -0.1459
12741TIP3    H259715   0.349   2.462  12.503  0.8987 -0.4790 -0.3312
12742TIP3   OH259716   1.110   4.447  11.592  0.0035  0.3665  0.4424
12742TIP3    H159717   1.130   4.363  11.633  1.6890 -0.0710 -1.1554
12742TIP3    H259718   1.191   4.497  11.600 -0.1626  0.8695 -0.8815
12743TIP3   OH259719   5.139   3.250   1.090  0.8161 -0.2421 -0.0873
12743TIP3    H159720   5.177   3.226   1.006  1.7385  0.5256  0.0952
12743TIP3    H259721   5.136   3.345   1.089 -0.5954 -0.2605  0.1440
12744TIP3   OH259722   6.771   4.082  17.090 -0.0612 -0.2296  0.0906
12744TIP3    H159723   6.730   4.115  17.010 -0.3872  0.1369  0.4099
12744TIP3    H259724   6.813   4.158  17.129 -0.6580 -0.2201  0.7296
12745TIP3   OH259725   6.407   4.095  13.356 -0.3805 -0.3571 -0.1061
12745TIP3    H159726   6.496   4.062  13.372  0.5953  2.3130  0.5437
12745TIP3    H259727   6.397   4.088  13.261  0.4387 -0.8951 -0.1716
12746TIP3   OH259728   4.045   0.524  13.154  0.3471 -0.0348  0.1944
12746TIP3    H159729   3.952   0.519  13.133  0.2383  1.4021  0.2722
12746TIP3    H259730   4.076   0.433  13.145 -1.0466 -0.5349  0.1875
12747TIP3   OH259731   2.106   2.883   2.697 -0.1351 -0.5050 -0.0959
12747TIP3    H159732   2.029   2.920   2.741 -0.1629 -0.0770 -0.4940
12747TIP3    H259733   2.076   2.864   2.608  0.1329 -0.6286 -0.1613
12748TIP3   OH259734   0.006   6.435  12.691 -0.1020  0.0441  0.4272
12748TIP3    H159735  -0.018   6.362  12.635 -1.0857  0.2972  0.5037
12748TIP3    H259736  -0.009   6.402  12.780 -0.4106  0.2929  0.4661
12749TIP3   OH259737   4.681   3.153   1.122 -0.1509 -0.1419 -0.0500
12749TIP3    H159738   4.665   3.213   1.049 -0.0896  0.0004  0.0505
12749TIP3    H259739   4.649   3.068   1.092  0.4172 -0.2138 -0.4662
12750TIP3   OH259740   6.168   5.396   3.783  0.5984  0.0992  0.8279
12750TIP3    H159741   6.251   5.349   3.773 -0.4129 -1.7870  0.9615
12750TIP3    H259742   6.141   5.377   3.873 -0.8679 -0.8436  0.2154
12751TIP3   OH259743   2.988   3.741   0.830 -0.1660  0.1851 -0.9290
12751TIP3    H159744   3.034   3.746   0.746  1.2722 -0.8715 -0.2570
12751TIP3    H259745   3.058   3.748   0.896 -1.1384 -0.0338  0.1524
12752TIP3   OH259746   4.810   2.092  11.343 -0.3516 -0.0703 -0.6450
12752TIP3    H159747   4.871   2.130  11.406 -0.5916 -0.3770 -0.2234
12752TIP3    H259748   4.792   2.163  11.282 -1.4289  0.7869  0.5937
12753TIP3   OH259749   0.904   3.212  15.257  0.2286 -0.2472 -0.4206
12753TIP3    H159750   0.944   3.142  15.205  0.1401 -0.8904  0.3555
12753TIP3    H259751   0.890   3.283  15.194  1.8906 -0.2776 -0.8792
12754TIP3   OH259752   1.102   2.904   5.349 -0.0619  0.3002  0.5599
12754TIP3    H159753   1.098   2.992   5.385  3.1076  1.2045 -0.9593
12754TIP3    H259754   1.166   2.858   5.404  0.4010 -0.1434 -0.3276
12755TIP3   OH259755   2.516   1.891   2.051  0.0626 -0.9526  0.0437
12755TIP3    H159756   2.454   1.962   2.067 -1.2563 -2.4166  1.7694
12755TIP3    H259757   2.597   1.920   2.093  0.1656  0.3616 -1.0033
12756TIP3   OH259758   4.873   3.630  15.930 -0.6203 -0.2539  0.1312
12756TIP3    H159759   4.955   3.672  15.904 -0.6185  0.0076  0.5447
12756TIP3    H259760   4.809   3.702  15.930 -0.4277 -0.0517  1.7258
12757TIP3   OH259761   6.444   3.369   6.755 -0.0872  0.3216  0.3098
12757TIP3    H159762   6.376   3.356   6.821 -0.0329  1.6047  0.6451
12757TIP3    H259763   6.509   3.301   6.775 -0.7915 -0.2863  0.6020
12758TIP3   OH259764   0.469   4.905   1.258  0.7673 -0.8005  0.4485
12758TIP3    H159765   0.509   4.960   1.191  3.9939 -2.4405  0.8391
12758TIP3    H259766   0.402   4.856   1.211  1.0787  0.0548 -0.9527
12759TIP3   OH259767   6.726   3.454   3.083  0.4555  0.5216 -0.5588
12759TIP3    H159768   6.774   3.378   3.049  0.4724  0.6681 -0.8628
12759TIP3    H259769   6.637   3.421   3.098  0.8767 -0.0219  0.9490
12760TIP3   OH259770   5.365   4.982  15.615 -0.8765 -0.4691  0.0729
12760TIP3    H159771   5.335   4.958  15.528  0.4349  2.9768 -1.4835
12760TIP3    H259772   5.460   4.969  15.612 -0.5243  1.7608  0.1446
12761TIP3   OH259773   2.804   0.292  14.091  0.1410 -0.3143  0.7171
12761TIP3    H159774   2.833   0.369  14.042 -0.1863 -0.4937  0.2331
12761TIP3    H259775   2.871   0.281  14.159  0.1839  0.4012  0.8046
12762TIP3   OH259776   6.578   1.890  13.142  0.2238 -0.5592 -0.4641
12762TIP3    H159777   6.644   1.876  13.210  1.3636 -1.5567 -1.7199
12762TIP3    H259778   6.629   1.916  13.065 -0.8463 -1.3197 -1.4591
12763TIP3   OH259779   1.741   6.609  16.496  0.2924 -0.0265 -0.3002
12763TIP3    H159780   1.780   6.694  16.473  0.2134  0.2175  0.4533
12763TIP3    H259781   1.654   6.630  16.528  0.5953 -0.2965  0.7457
12764TIP3   OH259782   4.221   6.667   5.128 -0.0769  0.0089  0.2444
12764TIP3    H159783   4.256   6.709   5.207 -1.0069 -1.9374  1.7884
12764TIP3    H259784   4.156   6.728   5.094 -0.1674  0.5753  1.4058
12765TIP3   OH259785   1.257   3.262  15.331  0.9985 -0.4765 -0.1096
12765TIP3    H159786   1.297   3.269  15.417  0.9313 -0.0808 -0.1083
12765TIP3    H259787   1.242   3.169  15.318 -0.0962 -0.4546  0.8154
12766TIP3   OH259788   3.554   5.938  13.452 -0.3538 -0.2825  0.2402
12766TIP3    H159789   3.542   5.963  13.360  0.6097 -2.3432 -0.5072
12766TIP3    H259790   3.468   5.951  13.492 -0.4903  1.8719 -0.5819
12767TIP3   OH259791   1.202   4.717   1.921  0.0046 -0.7281 -0.2422
12767TIP3    H159792   1.189   4.741   1.829  2.7425  1.4048 -0.1907
12767TIP3    H259793   1.154   4.784   1.970  0.8219 -0.2391 -0.1094
12768TIP3   OH259794   2.380   2.083  14.759  0.7470 -0.3132  0.2597
12768TIP3    H159795   2.419   2.170  14.755 -0.7101  0.4099  1.0051
12768TIP3    H259796   2.367   2.067  14.852 -0.6026 -0.5548  0.0541
12769TIP3   OH259797   3.864   3.645   1.385 -0.3485 -0.3177  0.4246
12769TIP3    H159798   3.859   3.572   1.323  1.9417 -0.9565  0.8815
12769TIP3    H259799   3.824   3.611   1.465 -2.4319  0.1833 -0.3302
12770TIP3   OH259800   5.020   4.429   1.007  0.1067 -0.0540  0.2831
12770TIP3    H159801   5.113   4.452   1.000 -0.2921  1.2755 -1.1714
12770TIP3    H259802   4.985   4.492   1.071  0.6663 -2.2988  3.0159
12771TIP3   OH259803   0.204   6.702  16.706 -0.2398  0.2882 -0.3083
12771TIP3    H159804   0.124   6.691  16.654 -0.7512  1.7454  0.1173
12771TIP3    H259805   0.240   6.786  16.676  0.8770 -0.1284 -0.1570
12772TIP3   OH259806   2.746   0.607   0.182  0.1854 -0.0808 -0.3523
12772TIP3    H159807   2.683   0.566   0.122 -0.4316 -0.9522  0.8564
12772TIP3    H259808   2.758   0.543   0.252  0.6738  1.0299  0.6126
12773TIP3   OH259809   2.975   1.786   2.339  0.1516 -0.1560 -0.5619
12773TIP3    H159810   2.880   1.771   2.336  0.3479 -1.2003 -2.6310
12773TIP3    H259811   3.004   1.736   2.416 -1.0810  1.1573  0.8373
12774TIP3   OH259812   4.622   1.868   3.074  0.1089 -0.2308  0.4472
12774TIP3    H159813   4.643   1.780   3.044  2.3524  0.4664 -0.2128
12774TIP3    H259814   4.588   1.913   2.996 -1.5251 -0.5940  0.8985
12775TIP3   OH259815   0.014   5.502  13.227 -0.1431  0.3405  0.0666
12775TIP3    H159816   0.060   5.424  13.258 -1.6080 -0.2893  0.7300
12775TIP3    H259817   0.082   5.570  13.223  1.1793 -0.9661 -0.6273
12776TIP3   OH259818   3.631   1.824  13.147  0.2175  0.1101 -0.1568
12776TIP3    H159819   3.579   1.836  13.227  0.3517  0.6883 -0.1506
12776TIP3    H259820   3.657   1.732  13.149 -0.9555 -0.2487 -0.2479
12777TIP3   OH259821   6.448   0.962  13.911  0.0884 -0.0546  0.2268
12777TIP3    H159822   6.475   1.046  13.946 -1.4348  0.2324  0.7944
12777TIP3    H259823   6.528   0.909  13.911  0.7278  0.8671  1.4010
12778TIP3   OH259824   3.448   5.500  14.621  0.1344 -0.1445  0.6728
12778TIP3    H159825   3.486   5.485  14.708 -0.0454  0.1137  0.7977
12778TIP3    H259826   3.470   5.590  14.601 -0.7113  0.1189  0.8992
12779TIP3   OH259827   4.220   5.749  11.121  0.7746 -0.1837  0.4302
12779TIP3    H159828   4.275   5.745  11.043  2.7141 -2.1888  1.7472
12779TIP3    H259829   4.275   5.791  11.187 -0.7683  1.3349  0.8051
12780TIP3   OH259830   0.529   6.139  13.639  0.3764  0.4317 -0.6538
12780TIP3    H159831   0.536   6.119  13.732  0.2847  0.4169 -0.6500
12780TIP3    H259832   0.561   6.229  13.631  1.0516  0.1975 -0.7056
12781TIP3   OH259833   0.546   1.634   3.060 -0.3486 -0.3161 -0.4684
12781TIP3    H159834   0.627   1.650   3.012  0.4825  1.2733  1.3404
12781TIP3    H259835   0.550   1.542   3.085  1.2869 -0.0817  0.2234
12782TIP3   OH259836   2.192   2.919  16.253 -0.0029 -0.1180 -0.4188
12782TIP3    H159837   2.200   2.996  16.309 -0.1121  0.0932 -0.6916
12782TIP3    H259838   2.142   2.949  16.177 -2.5182 -1.1049  0.7319
12783TIP3   OH259839   2.767   0.693   2.140  0.1019  0.1787  0.2786
12783TIP3    H159840   2.805   0.676   2.226  0.8167  0.6313  0.0588
12783TIP3    H259841   2.673   0.680   2.153  0.3531 -1.4041  0.7157
12784TIP3   OH259842   3.894   0.449   4.142  0.3779 -1.2803 -0.0339
12784TIP3    H159843   3.823   0.385   4.133  0.3487 -1.4031  0.9427
12784TIP3    H259844   3.864   0.508   4.211  1.3448 -1.5100  0.6026
12785TIP3   OH259845   3.173   5.988  14.975  0.4626  0.4832 -0.6199
12785TIP3    H159846   3.142   5.986  15.065  1.5892  1.4482 -0.1810
12785TIP3    H259847   3.208   5.901  14.958  1.5251  0.6974  0.3674
12786TIP3   OH259848   2.526   0.543   1.523  0.0794 -0.5052  0.6248
12786TIP3    H159849   2.467   0.502   1.587 -0.8847  0.1028  0.1465
12786TIP3    H259850   2.513   0.492   1.443 -1.2041  0.7456 -0.0033
12787TIP3   OH259851   2.583   5.797  11.252  0.4866  0.6111 -0.2801
12787TIP3    H159852   2.585   5.892  11.260  0.2376  0.5296  0.9124
12787TIP3    H259853   2.622   5.765  11.333  0.3142 -0.3148 -0.5452
12788TIP3   OH259854   4.846   2.023   1.141 -0.2494 -0.7669  0.1835
12788TIP3    H159855   4.782   2.078   1.096  1.3123 -0.0488 -1.2758
12788TIP3    H259856   4.805   2.002   1.225 -3.2711 -2.0255 -1.4151
12789TIP3   OH259857   2.920   4.923   4.642  0.5033 -0.2019  0.0510
12789TIP3    H159858   2.910   5.018   4.646  0.4624 -0.1384 -1.1544
12789TIP3    H259859   2.843   4.888   4.688  0.7766  0.3400  0.9304
12790TIP3   OH259860   1.864   4.414   0.488  0.0569 -0.5005 -0.0622
12790TIP3    H159861   1.799   4.453   0.430  1.0654  1.8152  0.2639
12790TIP3    H259862   1.946   4.416   0.439  0.3419 -1.2870  0.3573
12791TIP3   OH259863   5.304   0.025  11.400  0.4984 -0.5301 -0.0703
12791TIP3    H159864   5.262   0.023  11.314 -1.9936 -2.0527  1.0727
12791TIP3    H259865   5.373  -0.041  11.394 -0.3430 -1.3864 -0.6004
12792TIP3   OH259866   1.749   4.903  14.243  0.5388  0.0261  0.4640
12792TIP3    H159867   1.663   4.867  14.263  0.5163  0.6049  1.5096
12792TIP3    H259868   1.761   4.889  14.150 -2.2879  3.2390 -0.5806
12793TIP3   OH259869   0.787   1.962   2.475  0.3397  0.4231  0.5176
12793TIP3    H159870   0.750   1.887   2.427  2.1966 -0.9537  1.1271
12793TIP3    H259871   0.880   1.961   2.454  0.6794  1.6033  1.8005
12794TIP3   OH259872   4.417   0.991   2.618 -0.3844 -0.1254 -0.5793
12794TIP3    H159873   4.400   0.960   2.706  1.0411  0.6719  0.0177
12794TIP3    H259874   4.500   1.038   2.625  0.2829 -0.8965 -2.5409
12795TIP3   OH259875   6.649   3.805   0.683  0.8325 -0.3919 -0.2794
12795TIP3    H159876   6.606   3.771   0.604 -0.5579 -0.6886  0.5666
12795TIP3    H259877   6.577   3.819   0.745  1.7698  0.9277  0.5515
12796TIP3   OH259878   2.848   3.063  15.652 -0.1783  0.1037 -0.2269
12796TIP3    H159879   2.831   3.031  15.741 -0.8965 -1.5735 -0.9199
12796TIP3    H259880   2.763   3.058  15.608  0.1184  1.1509 -0.9443
12797TIP3   OH259881   6.368   3.880  16.612 -0.9789 -0.6481  0.0904
12797TIP3    H159882   6.362   3.970  16.578 -2.1612 -0.7883 -0.1025
12797TIP3    H259883   6.363   3.890  16.707 -2.8943 -0.6152  0.0141
12798TIP3   OH259884   1.355   4.997  12.285  0.1364 -0.1663  0.1646
12798TIP3    H159885   1.319   4.923  12.235 -1.5717  1.4791 -1.1489
12798TIP3    H259886   1.431   4.959  12.330 -0.2810 -2.5682 -0.9448
12799TIP3   OH259887   1.317   2.991   3.411  0.0004  0.2070 -0.2929
12799TIP3    H159888   1.313   3.067   3.470 -0.4713 -0.1064  0.0869
12799TIP3    H259889   1.404   2.997   3.371  1.1287 -0.6074  1.8457
12800TIP3   OH259890   0.034   0.120   5.868  0.0426  0.2396 -0.2044
12800TIP3    H159891   0.123   0.107   5.899 -0.5216  0.9995  1.9500
12800TIP3    H259892  -0.021   0.082   5.937 -1.3109  1.2134 -0.6914
12801TIP3   OH259893   6.029   1.714  12.287  0.2717 -0.3053  0.1935
12801TIP3    H159894   6.053   1.799  12.250 -0.6302  0.5929  1.5495
12801TIP3    H259895   6.112   1.673  12.309  0.7070  0.6193  0.3296
12802TIP3   OH259896   2.920   1.496   4.812 -0.3817 -0.3645  0.2003
12802TIP3    H159897   2.851   1.556   4.843  1.8929  2.8226 -0.3562
12802TIP3    H259898   2.962   1.464   4.892  0.8357  2.0242  0.6090
12803TIP3   OH259899   2.687   4.625  15.151 -0.0746  0.3086 -0.2026
12803TIP3    H159900   2.746   4.687  15.195  0.9062 -0.7302 -0.0048
12803TIP3    H259901   2.717   4.624  15.060 -0.3432  0.4179 -0.2928
12804TIP3   OH259902   3.841   4.634   3.740 -0.1884 -0.2953  0.1258
12804TIP3    H159903   3.777   4.692   3.783  0.5463  0.4297  0.2777
12804TIP3    H259904   3.889   4.692   3.681 -1.1155 -1.2537 -1.6687
12805TIP3   OH259905   4.329   4.417  15.965 -0.2864 -0.2616 -0.1549
12805TIP3    H159906   4.404   4.448  15.915  0.5037 -1.9907 -0.1104
12805TIP3    H259907   4.331   4.470  16.046  0.3100  0.3410 -0.5536
12806TIP3   OH259908   2.822   6.684   2.105  0.1814  0.5479 -0.6738
12806TIP3    H159909   2.842   6.734   2.184  1.2559  3.9779 -2.8466
12806TIP3    H259910   2.746   6.729   2.067  0.4904 -0.1412 -2.2063
12807TIP3   OH259911   4.543   3.599   5.164  0.0553  0.0733 -0.1741
12807TIP3    H159912   4.628   3.634   5.139  0.1020  0.7305  0.8586
12807TIP3    H259913   4.544   3.600   5.260 -0.6771 -0.9910 -0.1361
12808TIP3   OH259914   1.104   2.154  14.110  0.5027  0.5949  0.0307
12808TIP3    H159915   1.037   2.187  14.049 -1.4021 -0.6835  1.3269
12808TIP3    H259916   1.071   2.068  14.136  2.2303  0.3197  1.4255
12809TIP3   OH259917   2.157   0.300  15.842 -0.8112 -0.3846 -0.4158
12809TIP3    H159918   2.198   0.233  15.896 -0.0219  1.1670  0.9946
12809TIP3    H259919   2.166   0.381  15.892 -0.3253  1.0986 -2.7208
12810TIP3   OH259920   6.141   2.596   5.844 -0.6738  0.1353  0.0286
12810TIP3    H159921   6.085   2.656   5.795  0.8571  1.1231 -0.6055
12810TIP3    H259922   6.170   2.532   5.778 -1.7677 -0.9389  0.5567
12811TIP3   OH259923   3.351   6.180  11.863  0.0537  0.2760  1.2987
12811TIP3    H159924   3.311   6.228  11.790  0.2262  2.4698  2.5682
12811TIP3    H259925   3.444   6.179  11.843 -0.2176 -2.4120 -0.2818
12812TIP3   OH259926   4.897   4.857  13.458 -0.1641  0.2585 -0.1574
12812TIP3    H159927   4.992   4.857  13.472 -0.3890 -0.9001  1.7884
12812TIP3    H259928   4.865   4.929  13.512 -0.3374  1.2511 -1.5474
12813TIP3   OH259929   0.349   3.436  11.133 -0.4553  0.9666 -0.0249
12813TIP3    H159930   0.354   3.427  11.228  1.2280  0.3911 -0.1370
12813TIP3    H259931   0.294   3.514  11.119  1.7279  2.9337  1.5369
12814TIP3   OH259932   3.620   0.562   1.808  0.1242  0.1027  0.2202
12814TIP3    H159933   3.634   0.476   1.769 -2.1111  0.5767 -1.8890
12814TIP3    H259934   3.649   0.553   1.898 -2.2251 -3.6276  0.8064
12815TIP3   OH259935   0.048   0.213   4.144  0.0574  0.0175  0.3312
12815TIP3    H159936  -0.045   0.227   4.128  0.1580 -0.3061 -0.5322
12815TIP3    H259937   0.052   0.178   4.233 -0.6192  0.2894  0.4717
12816TIP3   OH259938   5.508   2.964   1.143  0.1753  0.0313 -0.3684
12816TIP3    H159939   5.547   2.889   1.188  1.0539 -0.0499 -1.2104
12816TIP3    H259940   5.447   3.002   1.206  0.9954 -0.3713  0.6932
12817TIP3   OH259941   1.395   3.493   3.051 -0.0848 -0.5549 -0.0551
12817TIP3    H159942   1.307   3.483   3.013  0.0932 -2.6532 -0.0431
12817TIP3    H259943   1.442   3.415   3.022  1.2045 -0.3822  1.4438
12818TIP3   OH259944   2.466   0.329   0.582 -0.3307 -0.0737  0.3063
12818TIP3    H159945   2.427   0.256   0.533  0.0422 -0.0906  0.0296
12818TIP3    H259946   2.467   0.299   0.673 -1.9858  0.3665  0.5036
12819TIP3   OH259947   1.424   5.920  12.052  0.5372  0.0977  0.4726
12819TIP3    H159948   1.362   5.864  12.100  0.7429 -0.3883  0.1779
12819TIP3    H259949   1.381   6.005  12.048 -0.0936 -0.2234  0.3184
12820TIP3   OH259950   1.128   5.817   2.865  0.3834 -0.9733  0.1428
12820TIP3    H159951   1.141   5.835   2.959  1.0257 -1.0540  0.0736
12820TIP3    H259952   1.196   5.868   2.821 -1.4940  1.1375 -0.4967
12821TIP3   OH259953   6.344   5.833   1.956 -0.2047 -0.2672  0.0231
12821TIP3    H159954   6.339   5.885   2.036  0.0715  0.3035 -0.3196
12821TIP3    H259955   6.417   5.872   1.907 -0.7408 -0.2262 -0.7673
12822TIP3   OH259956   6.573   1.070   1.738  0.1635 -0.0539  0.1057
12822TIP3    H159957   6.517   0.998   1.766  0.7538  0.1949  2.0918
12822TIP3    H259958   6.526   1.149   1.765  1.9766  0.1424  3.0971
12823TIP3   OH259959   4.778   1.133   4.385  0.3859  0.2563 -0.4141
12823TIP3    H159960   4.728   1.195   4.439  1.8864  1.5791 -0.4541
12823TIP3    H259961   4.718   1.108   4.315 -0.9629 -0.0073  0.7809
12824TIP3   OH259962   2.432   5.340   1.915  0.9819  0.3613  0.1545
12824TIP3    H159963   2.419   5.380   1.829  1.5508  0.6110  0.1838
12824TIP3    H259964   2.511   5.286   1.906  1.5463  1.0650  0.7512
12825TIP3   OH259965   3.568   5.674  15.526  0.1396 -0.3617 -0.4021
12825TIP3    H159966   3.663   5.674  15.536  0.0428  0.2527  0.6302
12825TIP3    H259967   3.546   5.765  15.508 -0.2188 -0.5827 -1.1170
12826TIP3   OH259968   1.161   0.378  16.430  0.6684 -0.5608  0.1567
12826TIP3    H159969   1.083   0.412  16.387 -0.7126  1.7660  4.0157
12826TIP3    H259970   1.142   0.285  16.446 -1.2021 -0.1248  0.6808
12827TIP3   OH259971   2.339   5.119   1.353 -0.2944 -0.0438  0.7478
12827TIP3    H159972   2.325   5.025   1.342  0.2212 -0.1090  0.6255
12827TIP3    H259973   2.431   5.133   1.331 -0.8044  0.7801 -1.0638
12828TIP3   OH259974   6.302   5.905  15.367  0.1845 -0.0642  0.8882
12828TIP3    H159975   6.283   5.950  15.449 -1.3604  0.2829  0.3762
12828TIP3    H259976   6.287   5.813  15.386 -0.0310 -0.0009  1.0273
12829TIP3   OH259977   5.916   6.154  16.448  0.0500  0.0988 -0.1395
12829TIP3    H159978   5.876   6.226  16.400 -1.0328  0.5341  1.3411
12829TIP3    H259979   5.860   6.078  16.430  1.4613 -0.5564 -2.0912
12830TIP3   OH259980   2.054   4.751  12.850 -0.0300 -0.3466  1.0661
12830TIP3    H159981   2.148   4.761  12.859  0.1697 -0.4092 -0.7244
12830TIP3    H259982   2.034   4.669  12.896  0.7828 -0.3556  1.4140
12831TIP3   OH259983   0.478   4.882   0.758 -0.4292  0.7713  0.1626
12831TIP3    H159984   0.388   4.872   0.789  0.1160  1.1541  1.9755
12831TIP3    H259985   0.480   4.968   0.715 -1.0230  0.5620 -0.2920
12832TIP3   OH259986   2.845   2.067   4.997  0.0265  0.0467 -0.2564
12832TIP3    H159987   2.892   1.995   4.954 -0.1841 -0.4861  0.3974
12832TIP3    H259988   2.790   2.024   5.062  1.3280  0.9091  1.4920
12833TIP3   OH259989   4.031   0.945  10.646 -0.7767 -0.0307  0.6012
12833TIP3    H159990   4.006   0.859  10.678 -1.7884 -0.4158 -1.1205
12833TIP3    H259991   4.107   0.930  10.590 -0.7770  0.2291  0.5254
12834TIP3   OH259992   2.038   6.491   1.823  0.4482 -0.3501  0.0039
12834TIP3    H159993   2.103   6.421   1.829 -0.8988 -1.6410  0.2961
12834TIP3    H259994   2.087   6.567   1.793  2.0801 -1.2656  0.2246
12835TIP3   OH259995   0.516   1.582   4.243 -0.1966  0.4580  0.1744
12835TIP3    H159996   0.450   1.533   4.291  0.9687 -0.3369  1.0226
12835TIP3    H259997   0.519   1.541   4.157  1.8453 -2.0838  1.3478
12836TIP3   OH259998   4.570   4.330  11.675 -0.1037 -0.3471 -0.2265
12836TIP3    H159999   4.564   4.309  11.769  0.2497 -0.1513 -0.1555
12836TIP3    H260000   4.649   4.283  11.646  1.1532  1.4556  0.1061
12837TIP3   OH260001   0.154   1.988   4.539 -0.0211 -0.4941 -0.9115
12837TIP3    H160002   0.182   1.980   4.630 -5.2487  1.1797  1.2275
12837TIP3    H260003   0.195   2.068   4.508  0.7984 -0.3682  0.4104
12838TIP3   OH260004   2.469   5.733  13.694  0.0241 -0.5721  0.5900
12838TIP3    H160005   2.452   5.644  13.725 -1.3693  0.0265  1.6757
12838TIP3    H260006   2.464   5.787  13.773  3.4983  0.2180  0.4317
12839TIP3   OH260007   3.017   0.045   4.154  0.1338  0.2096 -0.8506
12839TIP3    H160008   3.012   0.129   4.108 -0.5315 -0.0904 -1.3433
12839TIP3    H260009   2.933   0.036   4.199  0.4854  0.1409 -0.1922
12840TIP3   OH260010   6.640   4.712  14.721  0.1914 -0.0421  0.4143
12840TIP3    H160011   6.557   4.755  14.701 -0.1410 -0.8213  0.0880
12840TIP3    H260012   6.666   4.671  14.638  2.4386  2.6626 -0.3933
12841TIP3   OH260013   1.614   1.502   2.924 -0.0305  0.2376  0.1142
12841TIP3    H160014   1.659   1.585   2.906 -0.2872  0.7289  1.5983
12841TIP3    H260015   1.657   1.469   3.003 -1.0228 -0.2179  0.4780
12842TIP3   OH260016   0.016   2.000   5.221  0.5861  0.3664  0.2978
12842TIP3    H160017   0.038   1.939   5.292 -0.7867  0.5618  0.9223
12842TIP3    H260018  -0.036   1.949   5.160  0.8885  0.4657 -0.0422
12843TIP3   OH260019   5.951   2.785  14.867 -0.3479 -0.2237  0.0501
12843TIP3    H160020   6.010   2.710  14.873  0.6329  0.5912  0.8003
12843TIP3    H260021   5.867   2.747  14.842  0.2100 -1.5319  0.0956
12844TIP3   OH260022   0.608   6.561   5.770  0.3700 -0.2285 -0.2594
12844TIP3    H160023   0.635   6.597   5.685 -1.0341 -0.9912 -1.0732
12844TIP3    H260024   0.562   6.480   5.748  1.0314 -1.0809  1.3309
12845TIP3   OH260025   6.493   4.666  16.825 -0.3653 -0.0246 -0.3893
12845TIP3    H160026   6.456   4.639  16.910 -2.0480 -0.9692 -1.3724
12845TIP3    H260027   6.573   4.714  16.848 -0.8245 -0.1745  1.7326
12846TIP3   OH260028   0.657   0.649  13.999  0.0237 -0.6970  0.0418
12846TIP3    H160029   0.709   0.622  13.924 -0.1355 -0.9300  0.0112
12846TIP3    H260030   0.595   0.576  14.012 -1.5383  0.3597 -1.0739
12847TIP3   OH260031   3.255   4.743  17.221 -0.4109  0.3821 -0.1200
12847TIP3    H160032   3.204   4.703  17.151  0.7633 -0.4330 -0.5304
12847TIP3    H260033   3.346   4.736  17.192 -0.0803  2.6170  0.1695
12848TIP3   OH260034   3.061   1.838  11.230 -0.2893  0.6899 -0.2015
12848TIP3    H160035   3.115   1.906  11.190 -0.5285  1.3441  0.5612
12848TIP3    H260036   2.984   1.831  11.174  1.0431 -1.0470 -1.9470
12849TIP3   OH260037   1.271   5.086  13.135  0.8004 -0.1490  0.0418
12849TIP3    H160038   1.354   5.121  13.165 -0.0119  2.0906 -0.1259
12849TIP3    H260039   1.248   5.141  13.059 -0.5022 -1.1601 -0.3362
12850TIP3   OH260040   0.213   1.503   1.776  0.2535  0.2383 -0.0135
12850TIP3    H160041   0.243   1.458   1.855  1.1114  0.0342 -0.4407
12850TIP3    H260042   0.175   1.434   1.722  0.4863  0.2289 -0.1640
12851TIP3   OH260043   5.830   3.248  12.473 -0.2032  0.1726 -0.6313
12851TIP3    H160044   5.890   3.321  12.482 -1.7260  1.4802 -0.6685
12851TIP3    H260045   5.811   3.221  12.563  1.1980 -0.9309 -0.6398
12852TIP3   OH260046   4.836   5.297   3.628  0.1757  0.1381 -0.0748
12852TIP3    H160047   4.845   5.355   3.703 -1.1020 -0.1242  0.3000
12852TIP3    H260048   4.924   5.262   3.614  0.3202 -0.3454  1.7500
12853TIP3   OH260049   0.404   6.733   0.920  0.0639 -0.4383 -0.2011
12853TIP3    H160050   0.489   6.689   0.919  1.0901  1.4401 -0.5723
12853TIP3    H260051   0.364   6.710   0.837 -0.7036 -2.9213  0.7792
12854TIP3   OH260052   4.741   3.992  12.535  0.7813 -0.0793 -0.2273
12854TIP3    H160053   4.737   3.949  12.450  0.7071  3.1672 -2.0266
12854TIP3    H260054   4.650   3.994  12.565  0.3001  1.4577 -1.6348
12855TIP3   OH260055   0.712   5.419  13.544 -0.4025  0.1929 -0.3608
12855TIP3    H160056   0.652   5.367  13.596 -1.9389  0.7828 -1.4521
12855TIP3    H260057   0.798   5.379  13.558 -0.8178  0.0926  2.2253
12856TIP3   OH260058   6.631   1.439  10.813 -0.3320  0.0866 -0.5147
12856TIP3    H160059   6.681   1.440  10.732 -0.2801 -1.9210 -0.5491
12856TIP3    H260060   6.561   1.504  10.799  1.4542  2.0488 -0.9250
12857TIP3   OH260061   4.846   0.946  15.725 -0.4887 -0.8596  0.2895
12857TIP3    H160062   4.778   1.010  15.702 -0.1591 -0.1782  1.1353
12857TIP3    H260063   4.896   0.989  15.796  1.9461 -0.5689 -1.4723
12858TIP3   OH260064   1.445   3.300  16.303  0.1859  0.0891 -0.3201
12858TIP3    H160065   1.498   3.367  16.260 -0.1929  0.1958 -0.6266
12858TIP3    H260066   1.358   3.309  16.264  0.7044 -2.1766 -2.1685
12859TIP3   OH260067   6.772   6.473  16.383 -0.6773  0.1337  0.3862
12859TIP3    H160068   6.864   6.447  16.379 -1.6148 -3.6187 -0.0915
12859TIP3    H260069   6.751   6.471  16.477 -0.0850  2.2066  0.6260
12860TIP3   OH260070   2.081   1.753   6.311 -0.3996  0.2508  0.0082
12860TIP3    H160071   2.081   1.819   6.380  0.8944 -0.2974  0.5715
12860TIP3    H260072   2.070   1.670   6.358  0.2170 -0.1067 -0.4761
12861TIP3   OH260073   4.587   5.695  12.427  0.2316  0.0425 -0.2866
12861TIP3    H160074   4.570   5.654  12.512 -1.7064 -0.7497 -0.9996
12861TIP3    H260075   4.606   5.786  12.448 -2.1723  0.3360  0.9070
12862TIP3   OH260076   6.405   0.312   0.573  0.5434  0.1694 -0.6706
12862TIP3    H160077   6.440   0.240   0.521 -0.7871 -1.5520  0.6900
12862TIP3    H260078   6.459   0.312   0.653 -0.3472 -0.2521 -0.0581
12863TIP3   OH260079   3.374   3.290  13.324 -0.2812 -0.1803  0.1549
12863TIP3    H160080   3.376   3.202  13.360 -1.9777 -0.8250 -1.2091
12863TIP3    H260081   3.339   3.344  13.394  0.1209 -0.7031  0.7672
12864TIP3   OH260082   4.891   3.733  15.199  0.6327 -0.0647  0.4810
12864TIP3    H160083   4.969   3.689  15.166  0.8402  0.1471  0.6798
12864TIP3    H260084   4.891   3.818  15.156 -0.2817 -0.6075 -0.6174
12865TIP3   OH260085   1.222   1.633  13.408 -0.0761 -0.6125 -0.3554
12865TIP3    H160086   1.302   1.598  13.370 -0.1371  0.0522 -1.1242
12865TIP3    H260087   1.168   1.556  13.427  0.6071 -1.0409 -0.1338
12866TIP3   OH260088   4.309   0.497  16.228 -0.5478  0.1977  0.2077
12866TIP3    H160089   4.216   0.490  16.246 -0.7498  1.0069 -0.4233
12866TIP3    H260090   4.315   0.496  16.132  0.1504 -0.4710  0.2488
12867TIP3   OH260091   0.941   1.478  12.629  0.0666 -0.0140 -0.1843
12867TIP3    H160092   0.908   1.467  12.540  1.0220 -0.6357 -0.4776
12867TIP3    H260093   0.884   1.424  12.683 -0.7622  0.6748 -0.3487
12868TIP3   OH260094   2.162   5.987   1.331 -0.3214  0.7658  0.0307
12868TIP3    H160095   2.083   5.942   1.302  0.6835  0.0648 -1.8284
12868TIP3    H260096   2.167   5.971   1.425 -0.3183 -2.5924 -0.4328
12869TIP3   OH260097   5.657   3.464  17.053  0.3865  0.0382  0.1207
12869TIP3    H160098   5.597   3.402  17.095 -1.5459  0.9782 -1.1288
12869TIP3    H260099   5.690   3.417  16.977  0.0579  0.0442 -0.0260
12870TIP3   OH260100   0.547   1.341  11.475  0.1121  0.3900  0.0017
12870TIP3    H160101   0.568   1.406  11.408  0.6223 -0.0536 -0.2781
12870TIP3    H260102   0.628   1.290  11.486 -0.0505  0.2732  0.7498
12871TIP3   OH260103   5.718   0.741  11.725  0.4797  0.4863  0.3439
12871TIP3    H160104   5.683   0.825  11.754 -1.2742  0.5368 -1.6932
12871TIP3    H260105   5.784   0.763  11.660  1.3527  0.3110  1.1650
12872TIP3   OH260106   4.423   4.025  16.137  0.2091  0.3437 -0.9614
12872TIP3    H160107   4.474   3.967  16.195  1.3016  0.8907 -1.3550
12872TIP3    H260108   4.353   4.058  16.193 -0.0587 -0.8551 -0.5557
12873TIP3   OH260109   6.468   1.076   5.342 -0.2073  0.0763 -0.4257
12873TIP3    H160110   6.374   1.093   5.349 -0.7435 -2.4579 -0.5164
12873TIP3    H260111   6.489   1.091   5.250  0.1486  3.2753  0.0594
12874TIP3   OH260112   3.405   1.597   1.254  0.0587 -0.8707 -0.0409
12874TIP3    H160113   3.368   1.663   1.196  1.2961  0.1164  0.2608
12874TIP3    H260114   3.338   1.528   1.257 -1.6875  0.7617  0.3792
12875TIP3   OH260115   5.255   1.286  15.563 -0.4212 -0.2870  0.7210
12875TIP3    H160116   5.268   1.222  15.493 -2.7338  0.6361 -0.6653
12875TIP3    H260117   5.339   1.332  15.569  0.7141 -2.2340  0.5308
12876TIP3   OH260118   3.027   5.951  14.737  0.7265  0.7403  0.3357
12876TIP3    H160119   3.069   5.868  14.762 -0.8731 -0.3056 -0.2734
12876TIP3    H260120   3.035   6.006  14.815  0.6649 -0.4697  1.2347
12877TIP3   OH260121   5.059   5.272   0.137 -0.3926  0.0174 -0.0242
12877TIP3    H160122   4.982   5.314   0.100 -1.4192  0.1229  2.0877
12877TIP3    H260123   5.133   5.315   0.095 -1.4578  1.2294 -0.7207
12878TIP3   OH260124   0.303   1.474  13.442  0.1936  0.6720  0.5054
12878TIP3    H160125   0.225   1.426  13.471 -0.1634  2.2239  2.3117
12878TIP3    H260126   0.299   1.556  13.490  2.1649  1.4287 -0.5338
12879TIP3   OH260127   6.139   2.212  15.137  0.3108 -0.4120 -0.2302
12879TIP3    H160128   6.050   2.217  15.171  0.4738  0.2417  0.1073
12879TIP3    H260129   6.166   2.121  15.153 -0.7642 -1.0013 -1.5430
12880TIP3   OH260130   2.013   6.603   5.614 -0.1821  0.1247  0.3847
12880TIP3    H160131   2.000   6.556   5.532  0.3270  0.5806  0.0339
12880TIP3    H260132   1.986   6.542   5.682 -3.4132  0.6774 -0.2168
12881TIP3   OH260133   3.273   6.701  11.341  0.2501 -0.1585  0.5967
12881TIP3    H160134   3.332   6.639  11.384 -0.6669  0.0367  2.2361
12881TIP3    H260135   3.327   6.778  11.325  0.6726 -0.2945  1.3006
12882TIP3   OH260136   1.957   5.360   3.264 -0.0066  0.0487 -0.7529
12882TIP3    H160137   2.039   5.322   3.233 -0.5793 -1.0865 -0.9432
12882TIP3    H260138   1.921   5.405   3.187 -1.4158 -2.7460 -1.9083
12883TIP3   OH260139   0.745   5.147  10.861  0.5139  0.2847  0.5456
12883TIP3    H160140   0.753   5.097  10.780 -0.7625 -0.7224  1.0135
12883TIP3    H260141   0.833   5.183  10.875  0.8195  0.2758 -1.1345
12884TIP3   OH260142   6.471   0.553   4.262 -0.5066 -0.2613 -0.1361
12884TIP3    H160143   6.438   0.642   4.274  0.6598  0.0210  1.2126
12884TIP3    H260144   6.397   0.497   4.287 -0.8398  0.3306  0.2333
12885TIP3   OH260145   1.117   4.333   0.838 -0.3951  0.6218 -0.2580
12885TIP3    H160146   1.084   4.247   0.813 -0.5811 -0.1105  2.2041
12885TIP3    H260147   1.209   4.318   0.859 -0.2805  1.1400 -0.3908
12886TIP3   OH260148   6.434   0.447   3.695  0.0441 -0.1888 -0.3549
12886TIP3    H160149   6.377   0.370   3.702  0.7767 -0.7259 -0.2358
12886TIP3    H260150   6.414   0.499   3.773  0.2763 -0.7557  0.0805
12887TIP3   OH260151   4.871   1.669   4.736 -0.4488  0.1354 -0.0359
12887TIP3    H160152   4.815   1.594   4.753 -0.5510  0.3820  0.7633
12887TIP3    H260153   4.956   1.645   4.773 -0.4143  0.3087  0.0004
12888TIP3   OH260154   0.188   2.885  14.086 -0.1613 -0.2615 -0.6401
12888TIP3    H160155   0.137   2.963  14.108 -1.2129 -0.9509 -0.5559
12888TIP3    H260156   0.261   2.918  14.034  0.5269  1.0115  1.0291
12889TIP3   OH260157   6.434   4.622   1.182  0.7395  0.0270 -0.2234
12889TIP3    H160158   6.417   4.700   1.234 -0.3966 -0.5857  0.3787
12889TIP3    H260159   6.484   4.564   1.240 -1.3893 -1.0708  0.6488
12890TIP3   OH260160   3.065   4.826  12.077  0.1816 -0.0990  0.4942
12890TIP3    H160161   3.060   4.754  12.015 -0.7838 -1.0927  1.6496
12890TIP3    H260162   2.984   4.818  12.128 -0.9705  3.0628 -0.6497
12891TIP3   OH260163   6.689   5.619  16.762 -0.2946 -0.6605  0.2351
12891TIP3    H160164   6.741   5.553  16.809 -0.0605 -0.2829  0.5166
12891TIP3    H260165   6.750   5.692  16.750 -0.3341 -0.7851 -0.7392
12892TIP3   OH260166   0.224   0.067  13.472 -0.5199  0.5267 -0.1357
12892TIP3    H160167   0.254   0.157  13.456  0.4600  0.0693 -1.0341
12892TIP3    H260168   0.273   0.014  13.409 -1.0407 -0.6534  0.4148
12893TIP3   OH260169   0.896   6.375  14.369 -0.3236 -0.2876 -0.4975
12893TIP3    H160170   0.960   6.369  14.440  1.0459 -2.1419 -1.8015
12893TIP3    H260171   0.944   6.415  14.297 -1.6127  1.2761 -0.5549
12894TIP3   OH260172   0.952   5.266  13.535 -0.2164  0.0036  0.6286
12894TIP3    H160173   0.993   5.217  13.463  1.0031  1.7065  0.0891
12894TIP3    H260174   0.997   5.351  13.534 -2.8510  1.4887  0.9357
12895TIP3   OH260175   4.257   0.425   4.840  0.6528 -0.0169  0.0305
12895TIP3    H160176   4.190   0.357   4.841  0.6058 -0.0089 -1.4805
12895TIP3    H260177   4.290   0.426   4.751  0.8557  1.7557  0.0869
12896TIP3   OH260178   6.116   2.594  11.499 -0.7379  0.2121 -0.1196
12896TIP3    H160179   6.141   2.686  11.507 -4.0587  1.2634 -0.4362
12896TIP3    H260180   6.047   2.582  11.564  0.0290 -2.2902  0.3526
12897TIP3   OH260181   3.358   5.040  14.518 -0.0313 -0.0735 -0.4134
12897TIP3    H160182   3.397   5.123  14.491 -1.0877 -0.1717 -2.4560
12897TIP3    H260183   3.425   4.975  14.500 -0.8574 -0.2161 -3.7178
12898TIP3   OH260184   0.052   5.856  13.030  0.9551  0.2446  0.1181
12898TIP3    H160185   0.113   5.796  12.987  0.4722 -0.7391  0.7463
12898TIP3    H260186   0.092   5.873  13.116 -0.0418 -1.1587  0.9152
12899TIP3   OH260187   3.743   0.447  11.029 -0.1745 -0.4411  0.1701
12899TIP3    H160188   3.837   0.449  11.048  0.1247  0.5140 -1.2119
12899TIP3    H260189   3.725   0.533  10.991 -1.6320 -0.5867  0.5001
12900TIP3   OH260190   5.998   1.516  13.119  0.3843 -0.2920  0.9050
12900TIP3    H160191   6.016   1.448  13.054  0.7158  1.2265 -0.6615
12900TIP3    H260192   5.935   1.574  13.075  1.4388  1.3619  1.5141
12901TIP3   OH260193   2.303   1.678  11.606 -0.1001  0.0672 -0.4874
12901TIP3    H160194   2.216   1.702  11.637 -0.3245 -1.1713 -0.1011
12901TIP3    H260195   2.362   1.741  11.648 -0.8310  1.2056 -1.1099
12902TIP3   OH260196   2.074   2.611   6.087  0.1776 -0.1734  0.0683
12902TIP3    H160197   2.125   2.594   6.167  1.3003  0.0806 -0.5739
12902TIP3    H260198   1.988   2.574   6.106  0.2058  0.4516  1.6507
12903TIP3   OH260199   2.159   2.794   1.521 -0.0696 -0.4406 -0.2186
12903TIP3    H160200   2.121   2.821   1.438  0.3948  1.7789  0.2269
12903TIP3    H260201   2.106   2.838   1.587 -0.5385 -2.3107  0.7053
12904TIP3   OH260202   3.693   2.490  14.728  0.1499  0.2098 -0.2931
12904TIP3    H160203   3.753   2.481  14.802  0.1226  0.7239 -0.2034
12904TIP3    H260204   3.751   2.505  14.653  0.1327  0.9572 -0.1654
12905TIP3   OH260205   5.094   5.777  15.906 -0.3245  0.0263  0.1276
12905TIP3    H160206   5.178   5.814  15.879  0.0291 -0.4266  0.5900
12905TIP3    H260207   5.071   5.826  15.985  1.5885 -2.5707  2.5272
12906TIP3   OH260208   1.535   3.461  14.914 -0.1751 -0.0747  0.4406
12906TIP3    H160209   1.491   3.412  14.983 -1.0434 -0.5417 -0.4279
12906TIP3    H260210   1.536   3.402  14.839 -0.9712  1.0900 -0.5336
12907TIP3   OH260211   2.344   6.426  16.076  0.0074  0.3072 -0.0370
12907TIP3    H160212   2.426   6.382  16.098 -0.0610 -0.6581 -1.6001
12907TIP3    H260213   2.352   6.513  16.115  1.1866 -0.2494  1.0000
12908TIP3   OH260214   0.471   4.338  15.361  0.4613 -0.3498 -0.5978
12908TIP3    H160215   0.546   4.379  15.405  1.2439 -0.5664 -1.7015
12908TIP3    H260216   0.453   4.259  15.413 -2.1519  2.0496  2.6151
12909TIP3   OH260217   3.577   0.309  15.631 -0.3976 -0.3414 -0.3334
12909TIP3    H160218   3.505   0.276  15.576 -0.5271  2.2681 -1.9397
12909TIP3    H260219   3.538   0.382  15.680  0.7619  0.1006 -0.0337
12910TIP3   OH260220   0.023   0.705   1.793  0.4904  0.3461 -0.2114
12910TIP3    H160221  -0.025   0.768   1.846 -1.4346 -2.1474  1.2470
12910TIP3    H260222   0.104   0.690   1.841 -0.8537 -1.2332  1.7427
12911TIP3   OH260223   0.041   1.827   1.535  0.3954  0.4978  0.6499
12911TIP3    H160224  -0.045   1.853   1.569  0.8722  0.6465  1.8044
12911TIP3    H260225   0.101   1.893   1.570  1.3405 -0.9918  1.9909
12912TIP3   OH260226   1.307   2.497  16.965 -0.3615  0.0283 -0.2580
12912TIP3    H160227   1.258   2.534  17.038 -1.1732 -2.8499  0.7993
12912TIP3    H260228   1.246   2.501  16.891 -1.0691 -0.6989  0.2734
12913TIP3   OH260229   2.473   5.748   1.490 -0.7517  0.0820 -0.1375
12913TIP3    H160230   2.410   5.684   1.523  0.1388  0.1768  1.8213
12913TIP3    H260231   2.431   5.783   1.411 -2.7985 -0.4055  0.6725
12914TIP3   OH260232   0.363   1.198  13.312  0.2608 -0.7014  0.5741
12914TIP3    H160233   0.355   1.250  13.392  0.2617  1.7919 -0.9398
12914TIP3    H260234   0.280   1.210  13.267  1.2033  0.1772 -1.0114
12915TIP3   OH260235   3.918   0.048  13.392 -0.1914 -0.1762 -0.0254
12915TIP3    H160236   4.004   0.044  13.350 -0.7137 -1.6478 -1.0305
12915TIP3    H260237   3.879   0.129  13.358  0.9371  0.7524  0.7961
12916TIP3   OH260238   5.726   0.781  17.238  0.6033 -0.1270  0.0870
12916TIP3    H160239   5.667   0.854  17.222  0.0050 -0.5087  0.5522
12916TIP3    H260240   5.754   0.754  17.150 -0.3623 -0.3123 -0.1740
12917TIP3   OH260241   5.279   2.755  16.347 -0.3639  0.1043  0.3844
12917TIP3    H160242   5.358   2.700  16.343  0.2065  0.9802 -1.5709
12917TIP3    H260243   5.298   2.819  16.415  0.4391  0.0507  0.2191
12918TIP3   OH260244   3.590   4.193   4.064 -0.8816 -0.0145  0.1819
12918TIP3    H160245   3.507   4.148   4.052 -0.7744 -0.3743  0.7253
12918TIP3    H260246   3.570   4.286   4.051 -1.4477 -0.0648  0.6740
12919TIP3   OH260247   1.643   0.210   1.460 -0.1086 -0.5268 -0.2272
12919TIP3    H160248   1.625   0.242   1.548 -0.3705  0.2157 -0.5433
12919TIP3    H260249   1.583   0.136   1.448 -0.5826 -0.1773 -0.0416
12920TIP3   OH260250   4.394   2.023   1.548 -0.1611  0.0841 -0.1522
12920TIP3    H160251   4.477   2.016   1.594  0.0696  1.8474 -0.2562
12920TIP3    H260252   4.329   1.988   1.609  0.4356  0.2452  0.5820
12921TIP3   OH260253   0.719   2.473  11.909  1.1695 -0.4072  0.0584
12921TIP3    H160254   0.774   2.420  11.967 -0.1369 -0.1576  1.5846
12921TIP3    H260255   0.646   2.416  11.887  0.4406  0.2937  0.6169
12922TIP3   OH260256   4.751   5.604  11.950 -0.0105 -0.1055 -0.3373
12922TIP3    H160257   4.778   5.577  12.037  0.5534 -1.0382 -0.7917
12922TIP3    H260258   4.765   5.699  11.949 -1.6942  0.2096  1.1538
12923TIP3   OH260259   6.254   3.819   2.137 -0.0750  0.3375  0.1493
12923TIP3    H160260   6.270   3.823   2.043  1.1869  0.1966  0.3359
12923TIP3    H260261   6.308   3.889   2.174  0.8086 -0.7126  0.9121
12924TIP3   OH260262   0.257   2.853  12.737  0.5871  0.1960 -0.0293
12924TIP3    H160263   0.336   2.804  12.759  0.1928 -0.8859 -0.9291
12924TIP3    H260264   0.286   2.944  12.728  1.1328  0.3979  2.8407
12925TIP3   OH260265   1.742   5.284  13.693  0.0577  0.0928  0.2445
12925TIP3    H160266   1.819   5.227  13.685 -0.7387 -0.8815 -0.8488
12925TIP3    H260267   1.708   5.267  13.781  2.1312  1.9681  1.5183
12926TIP3   OH260268   4.306   4.770   5.917 -0.0098  0.5956  0.3219
12926TIP3    H160269   4.387   4.753   5.870  0.2087 -3.9264  1.8218
12926TIP3    H260270   4.237   4.756   5.853  0.3636 -2.3855  0.4459
12927TIP3   OH260271   5.689   1.896  12.941 -0.6749 -0.2344 -0.9183
12927TIP3    H160272   5.621   1.948  12.983 -0.4941 -1.2112  0.6775
12927TIP3    H260273   5.643   1.847  12.872 -1.3505  0.0036 -0.6434
12928TIP3   OH260274   5.909   2.863   3.210  0.0798 -0.2482  0.2654
12928TIP3    H160275   5.957   2.911   3.278  1.2434 -0.2145 -0.5472
12928TIP3    H260276   5.902   2.926   3.138 -0.4699 -0.5277  0.0725
12929TIP3   OH260277   4.844   2.781  16.523 -0.4435 -0.1938  0.6560
12929TIP3    H160278   4.875   2.869  16.500 -0.1934 -0.5455 -0.4278
12929TIP3    H260279   4.905   2.723  16.478 -0.3515 -0.9294  1.7177
12930TIP3   OH260280   0.924   4.088   1.572  0.6357 -0.4855 -0.3214
12930TIP3    H160281   0.923   4.035   1.492 -1.2241  0.7730 -1.2204
12930TIP3    H260282   0.918   4.178   1.540  0.6385  0.0860  1.2368
12931TIP3   OH260283   2.554   0.934   6.034 -0.4372 -0.0323  0.8994
12931TIP3    H160284   2.468   0.960   6.002  0.3285 -0.8349 -2.2601
12931TIP3    H260285   2.543   0.843   6.062 -0.6646 -0.1157  0.5556
12932TIP3   OH260286   1.618   2.743  12.123 -0.2876 -0.1931  0.1285
12932TIP3    H160287   1.659   2.675  12.069 -0.1139 -0.2514  0.3300
12932TIP3    H260288   1.660   2.824  12.095 -0.4359 -0.1797 -0.0547
12933TIP3   OH260289   0.638   3.455  15.509  0.3155 -0.2569 -0.0834
12933TIP3    H160290   0.559   3.504  15.488 -0.0141 -1.1192 -0.9060
12933TIP3    H260291   0.610   3.390  15.574  0.8558  0.9244  1.3902
12934TIP3   OH260292   6.563   2.540  12.596 -0.6820 -0.1479 -1.1772
12934TIP3    H160293   6.511   2.472  12.639  1.1403 -1.1613 -0.4577
12934TIP3    H260294   6.558   2.519  12.502 -0.2589 -1.2256 -0.9737
12935TIP3   OH260295   6.472   6.812   3.521  0.6770  0.0410 -0.2026
12935TIP3    H160296   6.432   6.875   3.461 -0.3331  0.6873  1.1026
12935TIP3    H260297   6.556   6.850   3.544  0.0232  0.9959  0.6691
12936TIP3   OH260298   4.234   3.658   0.431  0.0317  0.1816 -0.0790
12936TIP3    H160299   4.211   3.576   0.387  0.3515 -0.6305  1.2110
12936TIP3    H260300   4.198   3.726   0.375 -0.5572 -0.8520 -1.0000
12937TIP3   OH260301   2.650   0.192   5.921 -0.0714  0.0826 -0.4097
12937TIP3    H160302   2.624   0.144   6.001  1.3942  0.9350  0.6101
12937TIP3    H260303   2.573   0.184   5.864 -1.4255 -0.0092  1.3178
12938TIP3   OH260304   4.525   5.115   0.157 -0.4262  0.0130  0.0851
12938TIP3    H160305   4.443   5.144   0.115 -1.2205 -0.8894  0.9592
12938TIP3    H260306   4.539   5.177   0.228 -2.4800 -1.8864  2.3746
12939TIP3   OH260307   3.864   3.792  10.374  0.4566 -0.3248 -0.5536
12939TIP3    H160308   3.943   3.832  10.338  1.3670 -1.7035 -0.1605
12939TIP3    H260309   3.894   3.710  10.413 -1.2891 -1.2426 -1.0416
12940TIP3   OH260310   0.596   4.456   3.333 -0.0987  0.2769  0.0584
12940TIP3    H160311   0.637   4.423   3.413 -0.7897 -0.0927  0.2670
12940TIP3    H260312   0.502   4.451   3.351 -0.2469  0.5729 -0.6289
12941TIP3   OH260313   2.766   3.562  14.578  0.5216  0.1571 -0.2631
12941TIP3    H160314   2.834   3.526  14.635  0.1710 -2.0587 -1.1500
12941TIP3    H260315   2.797   3.544  14.489  0.3370  2.1862 -0.7864
12942TIP3   OH260316   4.299   0.257   5.933  0.2014  0.0135 -0.0769
12942TIP3    H160317   4.331   0.302   5.855  0.3769  0.9017  0.5013
12942TIP3    H260318   4.265   0.326   5.989  2.7668 -0.2181  1.9488
12943TIP3   OH260319   5.044   2.422   3.896  0.5498  0.1646  0.4475
12943TIP3    H160320   4.983   2.365   3.849  0.1862 -1.7465  3.0143
12943TIP3    H260321   4.989   2.493   3.930  0.9245  1.9299 -2.3633
12944TIP3   OH260322   4.919   3.498   1.838  0.1514  0.7915 -0.2244
12944TIP3    H160323   4.858   3.453   1.780  0.8111 -1.1340  0.5035
12944TIP3    H260324   4.979   3.545   1.779  1.4385 -1.9259 -1.2540
12945TIP3   OH260325   0.111   4.548   3.341  0.7682  0.3417  0.0391
12945TIP3    H160326   0.157   4.503   3.269  1.5144 -1.5978  1.6395
12945TIP3    H260327   0.037   4.491   3.361  0.0325  1.3453  0.2340
12946TIP3   OH260328   3.997   4.057   1.823  0.6014  0.0377 -0.2731
12946TIP3    H160329   4.088   4.060   1.794  0.8826  0.9102  0.6676
12946TIP3    H260330   3.980   3.964   1.838  1.7963 -0.0136  0.9358
12947TIP3   OH260331   0.316   1.452   4.340  0.3481 -0.2460 -0.3808
12947TIP3    H160332   0.238   1.477   4.291  0.3239  0.5927  0.0561
12947TIP3    H260333   0.306   1.358   4.355 -1.2320  0.0590  0.7684
12948TIP3   OH260334   1.862   4.646  13.357  0.2938  0.0383 -0.3438
12948TIP3    H160335   1.857   4.688  13.443  0.8412  0.0625 -0.3180
12948TIP3    H260336   1.841   4.715  13.295 -0.2540 -0.0165 -0.2219
12949TIP3   OH260337   5.359   0.890   0.948  0.1957 -0.0436 -0.1690
12949TIP3    H160338   5.309   0.931   1.019  2.3472  0.4474  1.1331
12949TIP3    H260339   5.292   0.861   0.886 -1.6719  0.9637  1.2701
12950TIP3   OH260340   5.683   1.127   4.049  0.9372  0.3338  0.5331
12950TIP3    H160341   5.655   1.201   4.103  2.0837  1.0139  0.2465
12950TIP3    H260342   5.763   1.158   4.007  0.2610 -0.2908 -1.3131
12951TIP3   OH260343   4.892   4.542  11.616 -0.2913 -0.4961 -0.3672
12951TIP3    H160344   4.877   4.528  11.710 -0.9909 -0.1286 -0.4194
12951TIP3    H260345   4.976   4.499  11.599  0.4774  0.5296  0.6796
12952TIP3   OH260346   6.478   4.688   3.970  0.0896  0.3959  0.2380
12952TIP3    H160347   6.414   4.759   3.982  0.6129  0.9665 -0.2313
12952TIP3    H260348   6.544   4.726   3.912  0.3079 -0.5341 -0.1367
12953TIP3   OH260349   1.102   0.484  10.865 -0.1107  0.0562  0.5492
12953TIP3    H160350   1.042   0.538  10.813  0.5347  0.1993 -0.0570
12953TIP3    H260351   1.045   0.439  10.928 -0.7003  1.1328  0.8011
12954TIP3   OH260352   0.365   2.241   1.714 -0.3123 -0.4641 -0.8607
12954TIP3    H160353   0.458   2.220   1.718 -0.1534  0.3509  0.7192
12954TIP3    H260354   0.346   2.252   1.620  0.9251 -1.6406 -1.2643
12955TIP3   OH260355   6.166   6.744  13.305  0.8207 -0.4709  0.0744
12955TIP3    H160356   6.261   6.744  13.298  0.8268  0.7461  0.0317
12955TIP3    H260357   6.146   6.662  13.350  1.8270 -1.0858 -0.5672
12956TIP3   OH260358   1.482   3.111  13.329  0.1022  0.0205 -0.6204
12956TIP3    H160359   1.553   3.050  13.348  1.3828  1.6536  0.0655
12956TIP3    H260360   1.511   3.156  13.249  0.6084  1.7735  0.5179
12957TIP3   OH260361   2.277   2.714   0.149 -0.4080  0.4808 -0.1308
12957TIP3    H160362   2.318   2.638   0.191  0.4999  0.3220 -1.2716
12957TIP3    H260363   2.333   2.788   0.173  0.4656  0.2986 -1.4989
12958TIP3   OH260364   6.305   3.587   0.990 -0.5131  0.6587 -0.0086
12958TIP3    H160365   6.300   3.641   1.069 -1.9374 -0.6864  0.8715
12958TIP3    H260366   6.399   3.573   0.977 -0.2462  0.7053  1.6212
12959TIP3   OH260367   2.829   1.299   2.233 -0.6067 -0.2027 -0.6678
12959TIP3    H160368   2.803   1.210   2.209 -0.7645  0.3425 -2.6473
12959TIP3    H260369   2.904   1.286   2.292 -0.2030 -1.6434 -1.4491
12960TIP3   OH260370   0.362   0.246   5.716  0.4550 -0.0909  0.2325
12960TIP3    H160371   0.300   0.298   5.666  0.3211  0.4961  0.9790
12960TIP3    H260372   0.308   0.193   5.774  0.6118 -0.6247 -0.1038
12961TIP3   OH260373   1.968   1.168   1.521  0.2433  0.3281  0.2265
12961TIP3    H160374   1.885   1.215   1.529 -0.5740 -0.2495 -3.2069
12961TIP3    H260375   2.007   1.172   1.608 -2.8530  1.5762  1.6790
12962TIP3   OH260376   0.625   5.119  12.373 -0.0482 -0.5989  0.5277
12962TIP3    H160377   0.674   5.048  12.414  1.0274 -0.3655 -0.2948
12962TIP3    H260378   0.675   5.198  12.394 -1.6377  0.0602  2.0815
12963TIP3   OH260379   4.972   2.689   1.654 -0.3364 -0.1162  0.5074
12963TIP3    H160380   5.040   2.633   1.690 -0.6412  0.1704  1.5796
12963TIP3    H260381   4.925   2.634   1.591  1.3326 -0.0926 -0.8054
12964TIP3   OH260382   0.636   3.169  17.191  0.4208 -0.1346  0.0613
12964TIP3    H160383   0.655   3.145  17.282  0.6379  2.2849  0.7224
12964TIP3    H260384   0.660   3.091  17.140  1.3181 -1.1721  1.9596
12965TIP3   OH260385   3.099   2.759   2.538 -0.5992 -0.4341  0.2877
12965TIP3    H160386   3.150   2.734   2.615 -0.4387  0.2840  0.4254
12965TIP3    H260387   3.161   2.754   2.465  0.0851  1.7107  0.6373
12966TIP3   OH260388   1.991   2.007  15.466  0.3159  0.0980 -0.2060
12966TIP3    H160389   1.906   1.994  15.425  1.4809 -1.0192 -2.4616
12966TIP3    H260390   1.992   1.947  15.541 -1.4434  1.3319  0.8672
12967TIP3   OH260391   0.350   4.150  16.968 -0.5732  0.5197  0.0718
12967TIP3    H160392   0.409   4.122  17.037 -0.1076  1.0329 -0.1040
12967TIP3    H260393   0.397   4.129  16.887 -0.9860  0.1899 -0.0809
12968TIP3   OH260394   0.582   6.317  11.616 -0.2058 -0.5012  0.3973
12968TIP3    H160395   0.537   6.294  11.535 -0.3399 -1.4277  0.7135
12968TIP3    H260396   0.675   6.308  11.596 -0.2358 -0.5989  0.3023
12969TIP3   OH260397   6.459   0.068   4.525  0.2294  0.4622 -0.4994
12969TIP3    H160398   6.507  -0.011   4.502 -1.8204 -0.8199 -0.5902
12969TIP3    H260399   6.443   0.111   4.442  1.3291  1.0023 -0.4519
12970TIP3   OH260400   2.859   4.319   4.997 -0.6195 -0.1635 -0.2635
12970TIP3    H160401   2.807   4.378   5.051  0.0211 -0.8102  1.1047
12970TIP3    H260402   2.844   4.232   5.035 -0.2832 -0.6615 -1.2389
12971TIP3   OH260403   2.129   6.236   3.041 -0.0537  0.0763 -0.2874
12971TIP3    H160404   2.207   6.203   3.085  0.1778 -0.3813 -1.0254
12971TIP3    H260405   2.069   6.258   3.112  1.1120  1.3951  0.3334
12972TIP3   OH260406   1.061   1.939   2.406  0.8912  0.7361 -0.5512
12972TIP3    H160407   1.087   2.013   2.460 -0.8262  0.4790  0.7278
12972TIP3    H260408   1.092   1.862   2.455  0.2519  0.5455 -0.4241
12973TIP3   OH260409   5.899   5.584   1.746  0.0712  0.6416 -0.5698
12973TIP3    H160410   5.863   5.657   1.796 -3.1304 -0.4347 -1.0816
12973TIP3    H260411   5.993   5.587   1.764 -0.6616  0.7042  4.9780
12974TIP3   OH260412   0.251   5.265  13.524  0.1741  0.3774  0.1528
12974TIP3    H160413   0.193   5.263  13.448  0.7134 -1.2485 -0.2535
12974TIP3    H260414   0.318   5.199  13.505  0.5640  0.2373  1.8469
12975TIP3   OH260415   6.231   0.047  15.971  0.0121  0.0139  0.0963
12975TIP3    H160416   6.175   0.090  16.036 -0.0476  0.5163 -0.2801
12975TIP3    H260417   6.308   0.103  15.966  0.3615 -0.4443  0.2964
12976TIP3   OH260418   5.341   0.803   4.379 -0.7456  0.5121  0.5616
12976TIP3    H160419   5.392   0.884   4.367  0.6018 -0.2330  0.9827
12976TIP3    H260420   5.326   0.771   4.290  0.3911  0.2400  0.4531
12977TIP3   OH260421   6.386   4.563  13.165 -0.4348  0.2304 -0.5504
12977TIP3    H160422   6.311   4.623  13.162  0.0984  0.8677 -1.5644
12977TIP3    H260423   6.347   4.475  13.163 -1.1676  0.5547 -0.8548
12978TIP3   OH260424   5.500   2.359   1.889 -0.0888  0.1884  0.2109
12978TIP3    H160425   5.529   2.272   1.864 -0.0582  0.4318 -0.6254
12978TIP3    H260426   5.507   2.411   1.809 -1.3469  0.6306  0.3602
12979TIP3   OH260427   0.555   0.148   2.186  0.1565 -0.0811  0.4082
12979TIP3    H160428   0.472   0.172   2.226  0.1717 -0.0605  0.4281
12979TIP3    H260429   0.596   0.088   2.249 -0.7971 -1.8337 -0.5784
12980TIP3   OH260430   6.778   1.554  11.999  0.2476  0.0008  0.0207
12980TIP3    H160431   6.719   1.608  11.947  0.4069 -1.4241 -1.7130
12980TIP3    H260432   6.830   1.505  11.935 -1.4542 -3.9920  1.3612
12981TIP3   OH260433   3.419   3.453  16.187  0.3185 -0.3429 -0.5139
12981TIP3    H160434   3.510   3.433  16.209  0.0017  0.8896  2.3373
12981TIP3    H260435   3.375   3.368  16.185  1.5420 -0.9827 -2.2756
12982TIP3   OH260436   2.906   2.525   1.123 -0.5654  0.6572  0.2029
12982TIP3    H160437   2.823   2.552   1.163 -1.2676 -1.1363  0.0423
12982TIP3    H260438   2.943   2.606   1.087 -2.6049  1.3764 -0.3827
12983TIP3   OH260439   2.600   0.992   5.768  0.1682  0.4738  0.4482
12983TIP3    H160440   2.550   0.923   5.726  1.6248 -0.6424  0.4855
12983TIP3    H260441   2.595   0.972   5.862  0.4107  0.5617  0.4801
12984TIP3   OH260442   5.749   1.977  16.778  0.6492 -0.0962 -0.4538
12984TIP3    H160443   5.696   1.902  16.803  0.6380  0.3114  0.8316
12984TIP3    H260444   5.705   2.013  16.701  0.6473 -1.3753 -1.0706
12985TIP3   OH260445   2.752   1.083  15.580 -0.1253  0.4819 -0.1521
12985TIP3    H160446   2.775   1.019  15.513 -0.4236  1.6492 -1.4372
12985TIP3    H260447   2.787   1.048  15.662  0.1592 -1.0402 -0.9028
12986TIP3   OH260448   5.237   3.187   2.715 -0.1829 -0.2338 -0.4354
12986TIP3    H160449   5.161   3.208   2.770 -0.4534 -1.7313 -0.2010
12986TIP3    H260450   5.254   3.095   2.732  2.6371  0.3885  0.6435
12987TIP3   OH260451   0.428   2.772  11.266  0.3379  0.0886 -0.0732
12987TIP3    H160452   0.421   2.691  11.216  0.9514 -1.4465  2.1274
12987TIP3    H260453   0.344   2.780  11.310 -0.3788  1.6875 -1.6347
12988TIP3   OH260454   5.598   1.809   4.940 -0.4376 -0.2119  0.3464
12988TIP3    H160455   5.639   1.734   4.897 -0.5946  0.7952 -1.6773
12988TIP3    H260456   5.556   1.858   4.868 -0.4139  1.7675  1.6064
12989TIP3   OH260457   6.490   0.151   5.623 -0.4468  0.4691  0.2941
12989TIP3    H160458   6.416   0.142   5.561  1.4555  1.3325 -2.2815
12989TIP3    H260459   6.508   0.245   5.625 -0.3532  0.4422  2.1298
12990TIP3   OH260460   0.503   3.870  10.803  0.0031 -0.2563  0.0044
12990TIP3    H160461   0.546   3.951  10.777  1.6737 -0.5829  1.5790
12990TIP3    H260462   0.431   3.898  10.859 -0.6326  0.1912 -0.9961
12991TIP3   OH260463   2.382   4.243   0.358 -0.3315  0.0560  0.5361
12991TIP3    H160464   2.361   4.249   0.451  3.5088 -0.3972  1.6471
12991TIP3    H260465   2.421   4.328   0.337  0.4828 -0.4611 -0.1049
12992TIP3   OH260466   3.889   4.441   3.287  0.1874  0.8800  0.3603
12992TIP3    H160467   3.804   4.472   3.256  0.6829  1.4111 -0.5237
12992TIP3    H260468   3.916   4.377   3.221  0.2560  0.3347  0.9055
12993TIP3   OH260469   5.167   1.677   4.179 -0.1058  0.0051  0.4821
12993TIP3    H160470   5.171   1.751   4.240  0.5578  0.5336 -0.1787
12993TIP3    H260471   5.145   1.717   4.095 -1.5897 -0.7826  0.4627
12994TIP3   OH260472   3.181   2.312   2.834  0.1794  0.1878  0.3181
12994TIP3    H160473   3.105   2.360   2.869  0.2463  1.1388 -0.7941
12994TIP3    H260474   3.142   2.240   2.783  0.0708 -0.4165  1.2217
12995TIP3   OH260475   1.426   3.137  14.866 -0.1191 -0.2575  0.3766
12995TIP3    H160476   1.361   3.074  14.898  1.4287 -1.6387  0.8911
12995TIP3    H260477   1.426   3.207  14.931 -2.2934  0.6717 -0.5136
12996TIP3   OH260478   1.611   0.546   2.161 -0.2561 -0.6762 -0.5370
12996TIP3    H160479   1.586   0.545   2.068 -0.3366  0.7273 -0.5564
12996TIP3    H260480   1.615   0.454   2.185 -1.1166 -1.0557 -1.7043
12997TIP3   OH260481   6.283   3.254   0.187  0.1585 -0.0670 -0.2282
12997TIP3    H160482   6.208   3.312   0.199 -1.0399 -1.4032 -0.9282
12997TIP3    H260483   6.301   3.220   0.275  0.3105  0.6773  0.0349
12998TIP3   OH260484   0.199   2.540  17.078  0.5190  0.2473 -0.0743
12998TIP3    H160485   0.206   2.449  17.107 -1.1971 -0.0811 -0.5962
12998TIP3    H260486   0.237   2.541  16.991  0.6480  0.0554 -0.0203
12999TIP3   OH260487   2.485   4.446  14.010  0.1259 -0.2830  0.0332
12999TIP3    H160488   2.570   4.446  13.965  0.4093  0.4428  0.5523
12999TIP3    H260489   2.441   4.367  13.978  0.6267 -0.1806 -0.9414
13000TIP3   OH260490   4.370   3.971   3.727  0.2170  0.0641 -0.3226
13000TIP3    H160491   4.460   3.994   3.706  0.9358 -1.8008  0.4373
13000TIP3    H260492   4.362   3.991   3.820  0.2246 -0.8037 -0.1271
13001TIP3   OH260493   0.248   4.295   4.491  0.1985 -0.4602 -0.1330
13001TIP3    H160494   0.188   4.351   4.441  0.0647 -1.0199 -0.6011
13001TIP3    H260495   0.266   4.345   4.571 -0.6234 -0.1327 -0.1440
13002TIP3   OH260496   4.095   3.243   4.771 -0.3838 -0.0744 -0.1393
13002TIP3    H160497   4.118   3.222   4.862  0.4502 -1.5838 -0.6612
13002TIP3    H260498   4.179   3.263   4.729 -0.5192 -1.1160 -0.9729
13003TIP3   OH260499   3.708   5.881  11.418 -0.1363  0.1830  0.4763
13003TIP3    H160500   3.695   5.911  11.327 -0.5001 -0.6618  0.2449
13003TIP3    H260501   3.667   5.949  11.471  1.1548  1.3242  0.0808
13004TIP3   OH260502   1.317   3.886  16.886  0.2600  0.1539 -0.2583
13004TIP3    H160503   1.230   3.922  16.903  0.9254  1.4929  0.5075
13004TIP3    H260504   1.303   3.817  16.821 -1.5669 -0.7503  1.0271
13005TIP3   OH260505   6.539   4.843  11.733  0.3501 -0.4504 -0.8076
13005TIP3    H160506   6.624   4.865  11.770 -0.3902 -0.8932  1.2904
13005TIP3    H260507   6.489   4.924  11.736 -0.3801 -0.9308  1.1839
13006TIP3   OH260508   2.368   6.624   1.499  0.0411  0.4928  0.0261
13006TIP3    H160509   2.305   6.654   1.434 -0.3762  0.8489  0.5818
13006TIP3    H260510   2.362   6.529   1.496  0.4158  0.4895 -0.8227
13007TIP3   OH260511   2.538   6.228   5.537 -0.4880 -0.1841  0.2949
13007TIP3    H160512   2.619   6.208   5.584 -0.6009 -1.1766  0.0869
13007TIP3    H260513   2.544   6.178   5.456 -0.0583  1.9179 -1.0351
13008TIP3   OH260514   5.591   4.414   4.707 -0.1914 -0.2219  0.1675
13008TIP3    H160515   5.553   4.343   4.759 -0.0196  0.8454  1.8295
13008TIP3    H260516   5.666   4.443   4.757 -0.9304  1.9018  0.1549
13009TIP3   OH260517   4.555   5.339   5.330  0.7061 -0.4836 -0.2300
13009TIP3    H160518   4.531   5.248   5.348 -0.3579 -0.2702 -0.4899
13009TIP3    H260519   4.504   5.390   5.393  0.9971 -0.0428 -0.3497
13010TIP3   OH260520   1.240   1.005  16.494 -0.2233 -0.9480 -0.2079
13010TIP3    H160521   1.308   1.047  16.546 -0.6713 -1.2407  0.6327
13010TIP3    H260522   1.229   0.919  16.535  1.9966 -2.7302 -2.9882
13011TIP3   OH260523   1.606   2.969   5.560 -0.1444  0.4793 -0.0541
13011TIP3    H160524   1.685   2.967   5.505  0.7643  0.8035  1.2049
13011TIP3    H260525   1.534   2.957   5.498  0.8281  1.1331 -1.3649
13012TIP3   OH260526   0.398   0.272  13.560 -0.0363  0.2320 -0.2774
13012TIP3    H160527   0.386   0.272  13.655 -0.4267  0.9392 -0.3169
13012TIP3    H260528   0.489   0.297  13.547  0.5054 -1.5362 -0.0588
13013TIP3   OH260529   3.663   6.190  16.997  0.1918 -0.4425 -0.0012
13013TIP3    H160530   3.582   6.147  17.026  0.6116 -0.1137  1.7724
13013TIP3    H260531   3.712   6.206  17.078  1.7059  0.0375 -0.9758
13014TIP3   OH260532   6.820   1.873  16.847  0.1340  0.0826 -0.5246
13014TIP3    H160533   6.756   1.838  16.910 -0.1196  2.2483  0.5395
13014TIP3    H260534   6.878   1.927  16.901  1.2900  0.2214 -1.8692
13015TIP3   OH260535   2.514   6.357  13.673  0.0094  0.2304  0.2750
13015TIP3    H160536   2.462   6.299  13.618 -0.1454 -0.6898  1.3415
13015TIP3    H260537   2.605   6.333  13.653 -0.0565 -0.5592  0.8639
13016TIP3   OH260538   3.098   3.115  13.231  0.8681  0.4484  0.0570
13016TIP3    H160539   3.190   3.129  13.250  1.1593 -0.1987 -0.8265
13016TIP3    H260540   3.093   3.027  13.196  0.1665  1.0388 -1.4318
13017TIP3   OH260541   3.411   5.580  16.598  0.7617 -0.1384 -0.3222
13017TIP3    H160542   3.317   5.597  16.605  0.7865 -0.4747  1.1570
13017TIP3    H260543   3.418   5.485  16.601  1.0990 -0.1504 -1.3459
13018TIP3   OH260544   1.094   2.735  12.343  0.3412  0.3597 -0.1839
13018TIP3    H160545   1.053   2.683  12.413  1.2915 -0.8096 -0.4726
13018TIP3    H260546   1.109   2.821  12.383  2.8931 -0.9157  1.8273
13019TIP3   OH260547   4.594   0.729  16.239 -0.0890  0.3586  0.3870
13019TIP3    H160548   4.664   0.772  16.289 -0.1540  1.3964 -0.3944
13019TIP3    H260549   4.640   0.672  16.177 -0.0072 -1.9857  2.4208
13020TIP3   OH260550   4.939   2.660  12.311  0.0383 -0.0631  0.1970
13020TIP3    H160551   4.984   2.623  12.387  1.1828  1.3231  0.2303
13020TIP3    H260552   4.995   2.637  12.236 -0.1551  0.1098 -0.0012
13021TIP3   OH260553   4.572   5.878   2.332  0.2489 -0.2263  0.2674
13021TIP3    H160554   4.561   5.830   2.413 -0.3848  0.1900  0.4343
13021TIP3    H260555   4.577   5.810   2.264 -0.8637 -0.5350  0.4731
13022TIP3   OH260556   2.425   5.261   2.946 -0.2531 -0.4057 -0.3052
13022TIP3    H160557   2.470   5.181   2.971 -0.8470 -0.5127  0.4626
13022TIP3    H260558   2.415   5.310   3.028  0.1226  0.4647 -0.7690
13023TIP3   OH260559   3.835   3.571   4.033 -0.2427 -0.5995 -1.0854
13023TIP3    H160560   3.810   3.664   4.033 -1.1110 -0.8145 -0.0973
13023TIP3    H260561   3.789   3.535   3.957 -0.2831 -0.3124 -1.2010
13024TIP3   OH260562   4.145   3.080  13.277  0.9145  0.0271  0.1280
13024TIP3    H160563   4.107   3.014  13.335  1.7598 -1.5804 -1.0624
13024TIP3    H260564   4.202   3.030  13.218  1.1170  1.7584 -1.2252
13025TIP3   OH260565   2.854   5.954  16.286 -0.2293 -0.4848 -0.0081
13025TIP3    H160566   2.942   5.922  16.305 -0.1414 -1.4553 -1.7901
13025TIP3    H260567   2.855   6.045  16.313  1.8007 -0.0718 -1.2745
13026TIP3   OH260568   2.025   5.242  12.051  0.3907  0.0732 -0.2686
13026TIP3    H160569   1.967   5.166  12.041 -0.4949  0.2935  2.3957
13026TIP3    H260570   2.111   5.205  12.071  0.7341 -0.2203 -2.1265
13027TIP3   OH260571   5.474   0.942  13.221  0.2213  0.0783  0.0808
13027TIP3    H160572   5.548   0.882  13.220 -0.5480 -0.9145  0.4463
13027TIP3    H260573   5.500   1.014  13.277  0.9708 -0.1714  0.0530
13028TIP3   OH260574   5.178   3.641  11.063  0.0965  0.0010  0.1333
13028TIP3    H160575   5.225   3.567  11.101 -0.2632 -0.7676 -0.8616
13028TIP3    H260576   5.151   3.694  11.137  1.3985 -0.2273  0.7992
13029TIP3   OH260577   5.873   5.486  16.397  0.0260  0.1172 -0.0201
13029TIP3    H160578   5.953   5.464  16.348  0.4831  0.7413  0.4286
13029TIP3    H260579   5.902   5.549  16.463 -0.6217 -0.5726  0.9401
13030TIP3   OH260580   6.489   3.651  15.636  0.1840 -0.4593  0.8988
13030TIP3    H160581   6.408   3.619  15.595 -1.0354 -0.1101  2.9344
13030TIP3    H260582   6.486   3.746  15.624  0.5142 -0.4850  0.6048
13031TIP3   OH260583   6.043   3.797   6.115  0.1403  0.6259  0.0836
13031TIP3    H160584   6.093   3.769   6.039 -1.6207  1.6784 -1.5435
13031TIP3    H260585   6.106   3.798   6.187  1.7717 -0.7646 -1.2527
13032TIP3   OH260586   5.981   1.035  11.777  0.1886 -0.7159 -0.4464
13032TIP3    H160587   5.910   1.093  11.805  0.3729 -0.3828 -0.6668
13032TIP3    H260588   6.042   1.035  11.851  0.5150 -0.0976 -0.7194
13033TIP3   OH260589   2.388   2.781   4.583  0.3341 -0.5845 -0.1559
13033TIP3    H160590   2.417   2.743   4.500  0.5733 -2.8053  0.8802
13033TIP3    H260591   2.317   2.840   4.558 -0.4949 -2.1838 -1.8499
13034TIP3   OH260592   5.278   3.859  14.285 -0.3654 -0.5821 -0.4140
13034TIP3    H160593   5.239   3.818  14.208 -0.3512 -0.6802 -0.3678
13034TIP3    H260594   5.216   3.840  14.356 -1.1641  0.7768 -0.6907
13035TIP3   OH260595   6.335   1.670   2.755  0.5399  0.0768  0.2551
13035TIP3    H160596   6.287   1.741   2.797  1.7590  2.0043 -1.4151
13035TIP3    H260597   6.268   1.621   2.707 -0.2402  0.4676  0.9242
13036TIP3   OH260598   4.898   1.416   2.988  0.1367  0.0775  0.3946
13036TIP3    H160599   4.969   1.465   2.947 -0.8669  0.1824 -1.3325
13036TIP3    H260600   4.883   1.342   2.929 -0.4882 -0.5150  1.2812
13037TIP3   OH260601   6.274   5.536   4.643  0.3830  0.9084  0.0577
13037TIP3    H160602   6.181   5.549   4.626  0.2632  0.1541  0.1097
13037TIP3    H260603   6.316   5.612   4.603 -0.2927  1.4931  0.4532
13038TIP3   OH260604   3.276   2.808   2.346  0.2525 -0.4235  0.4263
13038TIP3    H160605   3.295   2.850   2.262  0.3203  0.1077  0.7018
13038TIP3    H260606   3.360   2.807   2.391  0.0562  0.0080  0.8041
13039TIP3   OH260607   6.248   5.193  16.070  0.7200  0.1207  0.3181
13039TIP3    H160608   6.255   5.141  16.150  0.2541 -1.7422 -0.7743
13039TIP3    H260609   6.156   5.219  16.067  0.6321 -0.2092  0.1518
13040TIP3   OH260610   5.933   1.657  12.543  0.1992 -0.7199  0.3028
13040TIP3    H160611   5.962   1.664  12.452  1.2736  0.4373  0.7044
13040TIP3    H260612   5.894   1.743  12.562 -1.1893 -1.3893  0.5631
13041TIP3   OH260613   4.683   5.181   0.811  0.1587 -0.0598 -0.0796
13041TIP3    H160614   4.766   5.137   0.792  1.4620  2.0191  0.5829
13041TIP3    H260615   4.658   5.148   0.898  1.2697  0.6852  0.5390
13042TIP3   OH260616   2.011   5.622   4.800 -0.5403 -0.5470 -0.3580
13042TIP3    H160617   1.938   5.582   4.847 -0.1679  0.1683  0.8566
13042TIP3    H260618   1.976   5.705   4.767 -0.7976 -1.0412 -1.3657
13043TIP3   OH260619   4.925   3.932  13.446  0.2465 -0.1377 -0.7040
13043TIP3    H160620   5.010   3.934  13.401  0.5097 -1.0579 -0.2550
13043TIP3    H260621   4.868   3.884  13.386  0.6352 -1.4921 -0.0043
13044TIP3   OH260622   2.767   6.157   1.526 -0.3172 -0.2764  0.5496
13044TIP3    H160623   2.778   6.069   1.490 -0.5498  0.9309 -2.8414
13044TIP3    H260624   2.839   6.207   1.488 -0.8888  1.2998  1.4591
13045TIP3   OH260625   2.543   1.418   2.236 -0.5674  0.4870 -0.3441
13045TIP3    H160626   2.563   1.406   2.329  0.1793  1.3616 -0.3752
13045TIP3    H260627   2.628   1.411   2.193 -0.8597  0.4835 -0.9213
13046TIP3   OH260628   4.451   3.350  14.545 -0.1409  0.1708 -0.4198
13046TIP3    H160629   4.437   3.369  14.452 -1.8428 -1.9089 -0.6697
13046TIP3    H260630   4.386   3.283  14.566  0.9398 -0.2364  2.0112
13047TIP3   OH260631   6.460   2.643  13.523  0.0969 -0.0272  0.2812
13047TIP3    H160632   6.455   2.564  13.577  0.7174 -1.6001 -1.8269
13047TIP3    H260633   6.511   2.616  13.446  0.2580  2.4214 -0.5499
13048TIP3   OH260634   0.502   3.005   3.266  0.0971 -0.1473 -0.1535
13048TIP3    H160635   0.411   2.979   3.274 -0.2061  0.6106 -0.9353
13048TIP3    H260636   0.517   3.012   3.171  0.3790  1.6102 -0.0296
13049TIP3   OH260637   3.841   2.181  16.061 -0.0170  0.5386  0.1898
13049TIP3    H160638   3.935   2.161  16.053  0.4124  1.6147  2.0322
13049TIP3    H260639   3.805   2.158  15.975  2.2183  1.6774 -1.1566
13050TIP3   OH260640   1.711   6.091  10.502 -0.0293 -0.4631  0.0858
13050TIP3    H160641   1.756   6.125  10.425  0.7208 -1.8839 -0.1363
13050TIP3    H260642   1.657   6.164  10.532  0.6074  0.5158 -1.0475
13051TIP3   OH260643   1.742   1.317  11.372  0.3586 -0.2673 -0.5459
13051TIP3    H160644   1.709   1.263  11.301  0.8553 -1.6791  0.2579
13051TIP3    H260645   1.796   1.258  11.425  0.7337  0.9545  0.5070
13052TIP3   OH260646   5.044   6.075  13.586 -0.2270 -0.0695 -0.1472
13052TIP3    H160647   5.111   6.008  13.574 -1.3387 -1.2425  0.0157
13052TIP3    H260648   5.091   6.148  13.628  1.1265 -0.4899 -0.8805
13053TIP3   OH260649   3.297   2.300  16.737  0.0600  0.0734 -0.1865
13053TIP3    H160650   3.309   2.329  16.647 -0.2831 -0.2507 -0.3415
13053TIP3    H260651   3.359   2.228  16.747  0.2526  0.2515 -0.0949
13054TIP3   OH260652   3.819   6.098   2.364  0.5170  0.1278  0.2299
13054TIP3    H160653   3.740   6.138   2.328 -0.2883 -1.8466 -0.3788
13054TIP3    H260654   3.868   6.170   2.402 -1.7371  1.3787  0.9372
13055TIP3   OH260655   0.361   0.732   0.731  0.0815 -0.1945  0.2115
13055TIP3    H160656   0.418   0.761   0.802 -0.4370  0.0171  0.5402
13055TIP3    H260657   0.416   0.739   0.653  0.5701 -0.1816  0.5527
13056TIP3   OH260658   0.679   3.554   2.591  0.3571 -0.3307 -0.2150
13056TIP3    H160659   0.742   3.488   2.619 -0.4403 -1.1033 -0.2093
13056TIP3    H260660   0.601   3.505   2.567 -0.3853  0.6318  0.1441
13057TIP3   OH260661   3.774   0.106  14.912 -0.3767 -0.7885  0.1721
13057TIP3    H160662   3.864   0.073  14.920 -0.7890 -1.7141  1.3538
13057TIP3    H260663   3.719   0.028  14.917 -1.2894 -0.1560  0.3539
13058TIP3   OH260664   0.757   0.078   1.985  0.4329  0.2546 -0.6050
13058TIP3    H160665   0.842   0.084   2.028  2.1280 -2.5140 -3.1279
13058TIP3    H260666   0.693   0.081   2.056  2.7042  0.5110  1.5665
13059TIP3   OH260667   6.622   5.361   5.455 -0.1983  0.4293 -0.5935
13059TIP3    H160668   6.575   5.313   5.523  0.1529  1.3590  0.3341
13059TIP3    H260669   6.556   5.375   5.387 -0.6374 -0.2621 -0.3227
13060TIP3   OH260670   6.628   3.204  16.096  0.0541  0.1134  0.3387
13060TIP3    H160671   6.695   3.271  16.112  0.1567  0.3623 -0.9885
13060TIP3    H260672   6.669   3.122  16.123 -0.6058  0.6972  3.4106
13061TIP3   OH260673   1.824   2.619   2.878  0.2398  0.0726  0.8948
13061TIP3    H160674   1.744   2.626   2.929  0.2054  1.1798  0.7258
13061TIP3    H260675   1.846   2.526   2.878 -2.5586 -0.7187 -1.4078
13062TIP3   OH260676   5.526   3.741   5.913 -0.4046 -0.4082 -0.3955
13062TIP3    H160677   5.518   3.705   6.001 -2.9648  2.1642  0.5936
13062TIP3    H260678   5.618   3.767   5.906 -0.2883 -0.0167  1.8400
13063TIP3   OH260679   0.041   1.707   5.218  0.2466  0.0524  0.4926
13063TIP3    H160680  -0.041   1.659   5.219 -0.0529  0.4643 -1.0220
13063TIP3    H260681   0.081   1.688   5.303 -1.6895  0.3600  1.5371
13064TIP3   OH260682   1.843   2.505   0.957  0.0425 -0.1213  0.2289
13064TIP3    H160683   1.861   2.427   1.009 -1.4897  0.3800  1.6085
13064TIP3    H260684   1.885   2.576   1.005 -0.7059  0.2372  0.3675
13065TIP3   OH260685   0.055   4.184  11.353 -0.0362 -0.0892  0.7861
13065TIP3    H160686   0.035   4.116  11.290 -2.0859 -0.2173  1.5205
13065TIP3    H260687  -0.001   4.258  11.329  1.4325  1.0315  0.5962
13066TIP3   OH260688   6.747   1.323   2.085 -0.3668 -0.1429  0.2647
13066TIP3    H160689   6.661   1.309   2.045 -0.6665 -0.0886  0.8649
13066TIP3    H260690   6.762   1.417   2.076  0.2534 -0.3561 -1.0458
13067TIP3   OH260691   0.999   0.143  11.141  0.6373  0.9744  0.2996
13067TIP3    H160692   0.956   0.147  11.055 -1.0983  2.1124  1.1505
13067TIP3    H260693   1.002   0.234  11.170 -0.3147  0.4649  2.1313
13068TIP3   OH260694   6.684   0.932  15.957  0.1680  0.1571 -1.0014
13068TIP3    H160695   6.732   0.882  16.022  0.9001 -0.4945 -2.0188
13068TIP3    H260696   6.751   0.977  15.906 -0.3369 -0.0006 -1.8330
13069TIP3   OH260697   5.371   6.242  12.517  0.5710  0.4783 -0.1390
13069TIP3    H160698   5.302   6.181  12.543  1.3129  0.1486  1.1036
13069TIP3    H260699   5.335   6.287  12.440  0.3732 -2.1826 -1.7232
13070TIP3   OH260700   3.426   5.781   1.711 -0.3252 -0.0605 -0.3760
13070TIP3    H160701   3.366   5.848   1.678  0.8215  1.0568 -0.2614
13070TIP3    H260702   3.425   5.793   1.806  0.2135  0.0822 -0.3879
13071TIP3   OH260703   3.329   3.325  14.929  0.1092  0.3272  0.4165
13071TIP3    H160704   3.317   3.324  14.834  1.2685 -2.5823  0.2197
13071TIP3    H260705   3.374   3.408  14.946 -0.2755  0.9941 -1.5238
13072TIP3   OH260706   1.168   2.271  16.664  0.5024  0.4024 -0.3368
13072TIP3    H160707   1.142   2.352  16.620  0.7887  0.5136 -0.3033
13072TIP3    H260708   1.088   2.217  16.665  0.4034  0.5386 -0.6755
13073TIP3   OH260709   4.067   1.927   4.421 -0.4034 -0.3686  0.4187
13073TIP3    H160710   4.143   1.943   4.365  0.5503 -2.5702  0.9636
13073TIP3    H260711   4.018   1.859   4.376  0.3753 -2.1630  2.1751
13074TIP3   OH260712   3.042   4.469  15.563  0.3050 -0.7031 -0.5147
13074TIP3    H160713   2.949   4.483  15.581  0.3522 -0.0372 -0.7511
13074TIP3    H260714   3.044   4.391  15.508 -0.3736  0.7657 -2.7801
13075TIP3   OH260715   4.638   5.883  15.536  0.0529 -0.7671  0.3658
13075TIP3    H160716   4.682   5.807  15.576 -2.1369 -1.2962  1.9635
13075TIP3    H260717   4.555   5.889  15.583 -0.2719  2.0358 -0.4373
13076TIP3   OH260718   1.260   6.296   0.199 -0.5781 -0.0860 -0.2219
13076TIP3    H160719   1.240   6.213   0.240 -1.5789 -0.4017 -1.2893
13076TIP3    H260720   1.232   6.285   0.108  0.0504  1.1302 -0.5847
13077TIP3   OH260721   1.079   0.489   5.862 -0.1033  0.0421  0.0782
13077TIP3    H160722   1.077   0.582   5.839  0.2416 -0.0587 -0.3742
13077TIP3    H260723   1.022   0.482   5.939  0.4025  0.7386  0.5273
13078TIP3   OH260724   4.820   3.703   3.416 -0.3071 -0.3602 -0.4302
13078TIP3    H160725   4.794   3.792   3.392  2.2626  0.5658 -0.1086
13078TIP3    H260726   4.889   3.681   3.353 -0.8850 -2.1609 -0.4911
13079TIP3   OH260727   1.329   2.043  11.715  0.1909  0.1236  0.5981
13079TIP3    H160728   1.254   2.028  11.773 -0.6170  0.1957 -0.4020
13079TIP3    H260729   1.379   1.962  11.719  0.9387  0.6194  2.4897
13080TIP3   OH260730   2.537   2.588  16.962  0.1251  0.1573 -0.4744
13080TIP3    H160731   2.448   2.617  16.939  0.4980  2.5402  0.8002
13080TIP3    H260732   2.523   2.514  17.021 -0.9472 -0.4052 -1.3761
13081TIP3   OH260733   1.003   4.369  13.221 -0.1981  0.6994 -0.3930
13081TIP3    H160734   1.050   4.286  13.212 -2.0825 -0.3684 -0.7272
13081TIP3    H260735   1.035   4.423  13.149 -0.1503 -0.3371 -1.1614
13082TIP3   OH260736   5.761   2.994  13.992  0.2029  0.2837  0.1929
13082TIP3    H160737   5.819   2.922  14.020 -0.8102 -0.5007  0.3237
13082TIP3    H260738   5.744   3.044  14.072 -0.4840 -0.3521  0.4510
13083TIP3   OH260739   2.219   5.744   1.063 -0.0201  0.1011 -0.3881
13083TIP3    H160740   2.280   5.801   1.110 -0.8206  1.3315 -0.8041
13083TIP3    H260741   2.238   5.656   1.097  0.6613  0.7136  0.9016
13084TIP3   OH260742   1.872   3.879  15.643 -0.5831 -0.1695 -0.2013
13084TIP3    H160743   1.883   3.955  15.585  1.2005 -0.8913 -0.8576
13084TIP3    H260744   1.957   3.835  15.642  0.6074  1.2433  5.1431
13085TIP3   OH260745   5.497   6.254   2.294  0.0902  0.3789  0.3482
13085TIP3    H160746   5.514   6.348   2.301  1.5215  0.2921 -1.2897
13085TIP3    H260747   5.493   6.237   2.200 -0.4660 -1.1661  0.6127
13086TIP3   OH260748   4.988   3.461   0.363 -0.1821  0.0005  0.6028
13086TIP3    H160749   5.009   3.375   0.328 -0.9865  0.4155 -0.9688
13086TIP3    H260750   5.006   3.454   0.457  2.7903 -0.8993  0.0509
13087TIP3   OH260751   1.033   1.154  14.366 -0.0368  0.1359 -0.0314
13087TIP3    H160752   1.064   1.193  14.448 -1.5596  0.6519  0.3445
13087TIP3    H260753   1.049   1.222  14.301 -0.5766  0.4991  0.2043
13088TIP3   OH260754   2.292   2.046  16.277 -0.1414  0.1587 -0.1334
13088TIP3    H160755   2.239   1.994  16.337 -1.2788 -0.0997 -1.3188
13088TIP3    H260756   2.346   1.983  16.230  0.9712  0.3874  0.7931
13089TIP3   OH260757   3.812   3.401  11.659 -0.3350 -0.1743  0.2064
13089TIP3    H160758   3.816   3.470  11.593  2.2366 -0.7282 -0.3164
13089TIP3    H260759   3.877   3.426  11.724 -0.1753 -1.5195  0.5901
13090TIP3   OH260760   1.938   0.841  14.360 -0.0705  0.5487 -0.1061
13090TIP3    H160761   1.984   0.919  14.328 -0.4156  1.0576  0.5854
13090TIP3    H260762   1.965   0.834  14.452 -0.3709  0.0992 -0.0501
13091TIP3   OH260763   6.243   2.010  14.443  0.1009  0.0359  0.1057
13091TIP3    H160764   6.187   2.081  14.412  0.0587 -0.3487 -0.7196
13091TIP3    H260765   6.332   2.040  14.427  0.0736 -0.2968 -0.7183
13092TIP3   OH260766   3.948   5.414  15.326  0.1336 -0.0994 -0.0804
13092TIP3    H160767   4.010   5.486  15.335  1.0450 -0.8888  0.1129
13092TIP3    H260768   4.002   5.335  15.329 -0.7418 -0.7716 -1.2205
13093TIP3   OH260769   2.877   5.820  13.290  0.7108  0.1181 -0.0811
13093TIP3    H160770   2.878   5.820  13.194  1.8771  0.2973 -0.0922
13093TIP3    H260771   2.968   5.801  13.314  1.0290  2.5745  0.9655
13094TIP3   OH260772   1.427   2.983   5.373 -1.5278 -0.2567 -0.5109
13094TIP3    H160773   1.350   3.037   5.390  0.4980  2.7484 -0.0227
13094TIP3    H260774   1.424   2.967   5.278 -3.2337 -1.1183 -0.3500
13095TIP3   OH260775   5.648   2.365  11.413 -0.2479  0.5625  0.8597
13095TIP3    H160776   5.639   2.270  11.420 -0.4222  0.6222  1.4801
13095TIP3    H260777   5.586   2.389  11.344  0.5259  0.1168 -0.0045
13096TIP3   OH260778   3.486   3.887  15.879 -0.0783  0.2608  0.2646
13096TIP3    H160779   3.394   3.900  15.857 -0.1521  0.2575  0.5646
13096TIP3    H260780   3.496   3.791  15.882 -0.0506  0.2608  0.1700
13097TIP3   OH260781   3.497   4.267   2.025  0.1248  0.3413 -0.3594
13097TIP3    H160782   3.449   4.340   1.986  0.0195  0.3050 -0.2981
13097TIP3    H260783   3.552   4.308   2.092  1.5457  0.6165 -1.6549
13098TIP3   OH260784   3.179   1.786   4.630  0.5782 -0.4176  0.2074
13098TIP3    H160785   3.187   1.691   4.645  1.0460 -0.8572 -2.2387
13098TIP3    H260786   3.270   1.815   4.619  0.3491 -0.0844 -0.9210
13099TIP3   OH260787   4.434   6.341   1.859  0.7193 -0.2136  1.0079
13099TIP3    H160788   4.452   6.405   1.929  2.4076 -0.1331  0.5529
13099TIP3    H260789   4.411   6.395   1.783  0.2703 -0.2315  1.1329
13100TIP3   OH260790   3.860   6.585   0.680  0.6753  0.0950 -0.0899
13100TIP3    H160791   3.948   6.551   0.694  1.1685  1.2452 -0.3007
13100TIP3    H260792   3.871   6.653   0.614 -0.3238  0.4673  0.1123
13101TIP3   OH260793   6.260   1.597  13.552 -0.1573  0.2870  0.4985
13101TIP3    H160794   6.285   1.506  13.565 -0.0778  0.4302  1.4206
13101TIP3    H260795   6.164   1.596  13.551 -0.2832  0.5165  3.4642
13102TIP3   OH260796   5.666   4.604   5.948  0.2556  0.2901  0.4093
13102TIP3    H160797   5.572   4.594   5.964  0.2496 -1.9759 -0.7039
13102TIP3    H260798   5.676   4.696   5.923 -1.7740  0.4402 -0.0259
13103TIP3   OH260799   0.667   1.297  17.012  0.0561 -0.2396 -0.0689
13103TIP3    H160800   0.708   1.257  16.936 -1.7056 -1.9529 -0.2062
13103TIP3    H260801   0.698   1.388  17.012 -1.3139  0.4275 -3.9735
13104TIP3   OH260802   5.959   3.774  12.672 -0.1360 -0.1924  0.6203
13104TIP3    H160803   5.876   3.785  12.719 -0.9991  4.1763 -1.4422
13104TIP3    H260804   6.026   3.802  12.735 -0.8818  1.8788  0.5610
13105TIP3   OH260805   1.165   1.684  11.557  0.2667  0.3869  0.1949
13105TIP3    H160806   1.106   1.627  11.608  0.7675  0.3012  0.6930
13105TIP3    H260807   1.124   1.690  11.471 -2.1905  2.8803  1.3718
13106TIP3   OH260808   5.223   0.268   4.701  0.0852  0.0044 -0.2718
13106TIP3    H160809   5.202   0.197   4.761 -1.4277  0.1023 -0.6380
13106TIP3    H260810   5.173   0.247   4.621  2.9008 -0.7537 -1.9990
13107TIP3   OH260811   6.205   4.582  12.461  0.5808  0.1639  0.2911
13107TIP3    H160812   6.213   4.645  12.389 -0.2257  1.0289  0.9335
13107TIP3    H260813   6.222   4.632  12.540  1.9188 -0.8833  0.7093
13108TIP3   OH260814   6.388   5.022  13.492  0.5016  0.9916 -0.2799
13108TIP3    H160815   6.356   5.004  13.580  0.3849  0.8440 -0.3519
13108TIP3    H260816   6.467   4.970  13.483 -0.3321 -0.2521 -0.8174
13109TIP3   OH260817   4.066   1.474   2.367  0.3990  0.4067  0.6894
13109TIP3    H160818   4.112   1.401   2.325  0.5745  1.3248 -0.8041
13109TIP3    H260819   3.981   1.476   2.324  0.2496  0.8302  1.0002
13110TIP3   OH260820   1.095   5.962  14.123  0.1574  0.4946 -1.0520
13110TIP3    H160821   1.113   5.873  14.153  2.7399  0.9906 -0.9102
13110TIP3    H260822   1.124   6.018  14.195  2.8690  1.5522 -2.7840
13111TIP3   OH260823   3.256   2.379   4.783 -0.5935 -0.3688  0.4587
13111TIP3    H160824   3.300   2.304   4.744 -2.1438 -0.5255 -1.1533
13111TIP3    H260825   3.217   2.345   4.864  0.6530 -0.6818  0.9402
13112TIP3   OH260826   1.264   3.719   3.267  0.2264  0.3480 -0.9405
13112TIP3    H160827   1.328   3.703   3.336  1.3585  2.6329 -1.3837
13112TIP3    H260828   1.299   3.671   3.191  0.4530  0.1345 -0.7062
13113TIP3   OH260829   1.819   3.371  14.245  0.3823 -1.3163 -0.5557
13113TIP3    H160830   1.890   3.388  14.183  1.8382  1.2748  1.6343
13113TIP3    H260831   1.862   3.361  14.330 -1.8065  0.0638  0.8270
13114TIP3   OH260832   3.376   5.820   2.348  0.0272  0.3271 -0.3189
13114TIP3    H160833   3.440   5.755   2.320 -0.7176 -0.7672  0.4335
13114TIP3    H260834   3.295   5.793   2.305 -0.0694  1.3899 -0.8455
13115TIP3   OH260835   0.394   1.242   6.646 -0.2571  0.5064 -0.4314
13115TIP3    H160836   0.335   1.307   6.610 -0.4100  1.0625  0.8066
13115TIP3    H260837   0.337   1.177   6.687 -0.0469  0.7330  0.2373
13116TIP3   OH260838   2.031   4.506   5.520 -0.3950 -0.3385  0.3212
13116TIP3    H160839   2.076   4.580   5.479  0.2576 -0.0470  1.5254
13116TIP3    H260840   1.951   4.496   5.469 -0.8803  1.7181  0.5951
13117TIP3   OH260841   3.753   3.589  13.159  0.5612 -0.6314 -0.3325
13117TIP3    H160842   3.738   3.671  13.111 -0.5517 -0.1025  0.8533
13117TIP3    H260843   3.779   3.526  13.091 -1.7605 -0.1454 -1.7915
13118TIP3   OH260844   1.426   0.927   2.604  0.8138 -0.2920 -0.0023
13118TIP3    H160845   1.465   0.981   2.536  0.6322 -0.2622 -0.0828
13118TIP3    H260846   1.456   0.967   2.686  0.6275 -0.0317 -0.0612
13119TIP3   OH260847   1.381   1.473   3.245  0.3330 -0.0568  0.3051
13119TIP3    H160848   1.296   1.488   3.286  1.3675  0.2938  2.4766
13119TIP3    H260849   1.378   1.382   3.217 -1.4684  0.5084 -1.5623
13120TIP3   OH260850   3.655   5.767   1.061 -0.1870  0.6346 -0.2324
13120TIP3    H160851   3.592   5.754   0.990 -0.6069  1.1205  0.0407
13120TIP3    H260852   3.629   5.850   1.101  1.3493  1.4417 -0.8436
13121TIP3   OH260853   6.703   5.189   2.495 -0.3685  0.1805 -0.8288
13121TIP3    H160854   6.719   5.225   2.582 -0.0093 -0.1688 -0.7502
13121TIP3    H260855   6.774   5.225   2.441  0.5705 -1.1674 -0.5352
13122TIP3   OH260856   2.151   1.806   3.803 -0.0763  0.2525 -0.3206
13122TIP3    H160857   2.126   1.788   3.894  3.9932  1.0368  1.1847
13122TIP3    H260858   2.142   1.722   3.758 -1.3912 -0.3591  0.9955
13123TIP3   OH260859   6.241   6.802  15.701 -0.5895 -0.2200  0.0292
13123TIP3    H160860   6.225   6.819  15.794  3.0635  2.0720  0.4574
13123TIP3    H260861   6.259   6.709  15.696  2.2385  0.0753  2.3378
13124TIP3   OH260862   3.825   6.701  11.627 -0.0152  0.0762 -0.1596
13124TIP3    H160863   3.858   6.627  11.678 -2.0670 -0.5460  0.3961
13124TIP3    H260864   3.815   6.771  11.691 -0.7328 -0.0861 -0.0799
13125TIP3   OH260865   2.064   3.060   4.850 -0.4814  0.0781 -0.6663
13125TIP3    H160866   2.030   3.099   4.769  0.5137  1.5000 -0.4450
13125TIP3    H260867   2.158   3.047   4.833  0.5204  3.4889  1.2627
13126TIP3   OH260868   5.153   0.168   3.520  0.0742 -0.2286 -0.1517
13126TIP3    H160869   5.089   0.207   3.460  0.9443 -2.1936 -2.4977
13126TIP3    H260870   5.231   0.222   3.510  0.1502 -0.4256 -0.6382
13127TIP3   OH260871   4.915   2.078  13.718  0.0253 -0.0367 -0.1327
13127TIP3    H160872   5.008   2.074  13.741  0.3409  0.6553 -1.2372
13127TIP3    H260873   4.906   2.159  13.668 -1.3155  0.2539  0.5267
13128TIP3   OH260874   0.383   2.975   3.576  0.1995 -0.1715 -0.5890
13128TIP3    H160875   0.395   3.068   3.595 -2.3074 -0.0405  0.8240
13128TIP3    H260876   0.372   2.971   3.481  2.2132  0.6772 -0.8966
13129TIP3   OH260877   2.186   3.268  12.953 -0.1553 -0.1489  0.0157
13129TIP3    H160878   2.217   3.196  12.897 -1.3359  0.2470 -1.1985
13129TIP3    H260879   2.265   3.320  12.971  0.2279 -0.1570 -1.4960
13130TIP3   OH260880   3.002   1.010   4.657  0.6740 -0.7573 -0.6887
13130TIP3    H160881   2.954   0.929   4.670  0.2128 -0.2971  0.5688
13130TIP3    H260882   3.093   0.982   4.647  0.7573 -1.3395  1.3604
13131TIP3   OH260883   1.241   0.161  16.961  0.3110  0.6697  0.0059
13131TIP3    H160884   1.217   0.083  16.911  0.4526  1.1324 -0.8015
13131TIP3    H260885   1.311   0.201  16.910  0.9385  0.7748  0.9475
13132TIP3   OH260886   3.544   2.125   1.605 -0.6023  0.2050 -0.1641
13132TIP3    H160887   3.497   2.090   1.682 -1.0210  1.1390  0.0172
13132TIP3    H260888   3.578   2.209   1.634  2.0694 -0.8423  0.0191
13133TIP3   OH260889   4.530   4.411   5.507  0.4680  0.0297 -0.1516
13133TIP3    H160890   4.448   4.457   5.525  0.3850 -0.0672 -0.2820
13133TIP3    H260891   4.598   4.465   5.547  0.1320 -1.1158  2.1285
13134TIP3   OH260892   2.938   1.355   1.081  0.6847  0.1673 -0.1573
13134TIP3    H160893   3.031   1.350   1.061  1.0547 -1.3956  1.6875
13134TIP3    H260894   2.913   1.444   1.056  2.8828  0.9512  0.2142
13135TIP3   OH260895   0.132   4.679  14.086 -0.1093  0.0741  0.0117
13135TIP3    H160896   0.141   4.584  14.091 -0.6839  0.0608  2.4130
13135TIP3    H260897   0.179   4.711  14.163 -3.0043  1.4171  1.3730
13136TIP3   OH260898   3.425   2.873   5.226  0.2566  0.3323 -0.6912
13136TIP3    H160899   3.431   2.781   5.200 -0.5084  0.0283  0.1451
13136TIP3    H260900   3.337   2.900   5.198  0.2269  0.6115 -0.3364
13137TIP3   OH260901   1.893   6.501   1.413 -0.5538  0.2434 -0.6236
13137TIP3    H160902   1.874   6.501   1.506 -0.0523 -0.9706 -0.5045
13137TIP3    H260903   1.963   6.566   1.402  1.0347 -1.2727  0.2264
13138TIP3   OH260904   0.042   1.012   3.358  0.5398 -0.4591  0.3768
13138TIP3    H160905  -0.015   0.956   3.305  1.1667 -2.1206  1.4144
13138TIP3    H260906   0.013   1.101   3.337 -1.0328 -1.1740 -0.6892
13139TIP3   OH260907   6.803   3.231   1.354  0.1901  0.0542 -0.6627
13139TIP3    H160908   6.896   3.216   1.371 -0.0363  0.7298  1.4919
13139TIP3    H260909   6.794   3.223   1.259  2.1673 -1.4746 -0.7912
13140TIP3   OH260910   6.078   6.421  16.651 -0.1415  0.4580 -0.2477
13140TIP3    H160911   6.089   6.462  16.737 -1.0534 -0.4522  0.3241
13140TIP3    H260912   5.983   6.416  16.639 -0.0271 -0.0716 -0.9866
13141TIP3   OH260913   4.610   2.473   5.280  0.8064 -0.3135  0.1048
13141TIP3    H160914   4.679   2.414   5.311  0.0671 -0.0515  2.4569
13141TIP3    H260915   4.579   2.517   5.360 -2.6371 -1.0166 -0.7263
13142TIP3   OH260916   0.805   1.459   4.453  0.1766  0.3453 -0.0080
13142TIP3    H160917   0.866   1.500   4.514  0.8479  2.5643 -2.0502
13142TIP3    H260918   0.721   1.458   4.500  1.3596 -1.4077  2.2761
13143TIP3   OH260919   2.229   0.785  13.644 -0.4734  0.4275  0.1676
13143TIP3    H160920   2.253   0.696  13.618 -0.5261  0.4696 -0.0225
13143TIP3    H260921   2.141   0.776  13.680 -0.4238  0.3803  0.2800
13144TIP3   OH260922   3.735   0.825  12.547 -1.0696 -0.5621 -0.3769
13144TIP3    H160923   3.665   0.769  12.580 -0.8958 -1.4821 -1.5133
13144TIP3    H260924   3.815   0.792  12.588 -1.2796  0.5424  0.9861
13145TIP3   OH260925   5.872   4.871   5.665  0.5035 -0.1977 -0.1613
13145TIP3    H160926   5.965   4.869   5.642  0.8088  1.1693  0.8268
13145TIP3    H260927   5.846   4.962   5.650 -0.8299 -0.6760 -0.9327
13146TIP3   OH260928   0.264   4.736   2.617  0.3303  0.2194  0.5918
13146TIP3    H160929   0.327   4.679   2.572  0.5839  0.9582 -0.0168
13146TIP3    H260930   0.178   4.700   2.594  0.2276  2.3742 -3.2643
13147TIP3   OH260931   4.436   4.673  14.507 -0.3323 -0.1842  0.2889
13147TIP3    H160932   4.400   4.725  14.436  1.7309 -0.1312 -0.7941
13147TIP3    H260933   4.363   4.660  14.567 -2.3608 -0.7970 -2.1424
13148TIP3   OH260934   0.678   0.797   1.957 -0.3155 -0.4170 -0.0197
13148TIP3    H160935   0.727   0.762   2.031 -0.9908 -1.8298 -0.2004
13148TIP3    H260936   0.604   0.842   1.996  0.7053  1.1236  0.2282
13149TIP3   OH260937   0.222   6.648   4.975  0.6520 -0.3098 -0.4455
13149TIP3    H160938   0.246   6.669   4.885  1.0777 -0.2587 -0.3177
13149TIP3    H260939   0.126   6.644   4.973  0.6764 -0.8029 -1.0122
13150TIP3   OH260940   2.580   5.096  15.782 -0.1166 -0.4239  0.5320
13150TIP3    H160941   2.600   5.049  15.701 -1.1937 -0.2738  0.1665
13150TIP3    H260942   2.661   5.142  15.803  0.6629 -1.6542  0.3735
13151TIP3   OH260943   2.652   4.924  13.344  0.1095 -0.4404 -0.3981
13151TIP3    H160944   2.695   4.877  13.416  0.2802  0.1360 -0.1213
13151TIP3    H260945   2.581   4.973  13.386  0.1493 -0.1765 -0.6336
13152TIP3   OH260946   6.565   3.442  11.427  0.0684  0.5677 -0.4382
13152TIP3    H160947   6.641   3.444  11.368  0.7120  4.4531  0.2962
13152TIP3    H260948   6.600   3.472  11.511 -1.9915  0.9916  0.3080
13153TIP3   OH260949   2.552   4.292   3.529 -0.0050  0.1310 -0.4230
13153TIP3    H160950   2.550   4.384   3.558  1.7118 -0.0080  0.2376
13153TIP3    H260951   2.474   4.253   3.569  0.4524  0.7902  1.1911
13154TIP3   OH260952   5.531   3.806  14.154  0.1536 -0.0645 -0.3536
13154TIP3    H160953   5.498   3.716  14.145 -0.1281  0.1238 -1.3007
13154TIP3    H260954   5.462   3.851  14.202  0.4036 -0.4035  0.3417
13155TIP3   OH260955   2.502   2.051   0.251 -0.4045 -0.7295  0.0584
13155TIP3    H160956   2.539   1.964   0.240  0.8121 -0.2044 -0.1329
13155TIP3    H260957   2.567   2.110   0.213 -2.7851  0.0631 -3.3198
13156TIP3   OH260958   1.664   4.106  13.535  0.2774  0.3583 -0.0762
13156TIP3    H160959   1.585   4.101  13.588 -1.4055  3.7755 -1.9499
13156TIP3    H260960   1.675   4.018  13.499 -0.9402 -0.9221  2.4238
13157TIP3   OH260961   2.664   2.943  13.029 -0.8645 -0.1889 -0.7033
13157TIP3    H160962   2.754   2.948  13.062 -1.0479  0.6049 -0.3081
13157TIP3    H260963   2.661   2.860  12.980 -0.8701 -1.9840  2.1213
13158TIP3   OH260964   3.996   1.912   2.468 -0.4118 -0.6859  0.3727
13158TIP3    H160965   3.962   1.872   2.388  0.3707 -0.2985 -0.1729
13158TIP3    H260966   3.949   1.995   2.476  0.7370  0.1195 -0.6943
13159TIP3   OH260967   0.910   3.633  15.664 -0.0477  0.6696  0.3356
13159TIP3    H160968   0.938   3.571  15.732  0.1734 -0.2646 -0.5770
13159TIP3    H260969   0.861   3.579  15.603  0.6809  1.2703 -0.8076
13160TIP3   OH260970   6.253   0.265  10.519  0.0263 -0.8212 -0.4817
13160TIP3    H160971   6.230   0.197  10.456 -1.2649  0.4079 -1.4018
13160TIP3    H260972   6.298   0.332  10.467  0.0937 -0.3665  0.1450
13161TIP3   OH260973   4.755   5.299  16.682 -0.2435 -0.3156  0.2576
13161TIP3    H160974   4.738   5.264  16.770  1.2214  0.0615  0.7124
13161TIP3    H260975   4.845   5.275  16.663 -0.3885  0.0493 -0.9473
13162TIP3   OH260976   0.701   6.098   4.816 -0.2339  0.8102 -0.1389
13162TIP3    H160977   0.625   6.156   4.814  0.4080  1.8043  1.5143
13162TIP3    H260978   0.700   6.061   4.904 -0.5213 -1.6265 -1.1005
13163TIP3   OH260979   0.867   0.148  16.083  0.2193  0.1704  0.2758
13163TIP3    H160980   0.963   0.150  16.081  0.2759  0.2853  2.0007
13163TIP3    H260981   0.844   0.055  16.080  0.3013  0.1599 -1.3001
13164TIP3   OH260982   6.633   0.723  16.890 -0.3953 -0.2341 -0.3395
13164TIP3    H160983   6.704   0.671  16.929  0.6556  0.6361 -1.0320
13164TIP3    H260984   6.645   0.713  16.796 -3.2277 -2.7430 -0.5853
13165TIP3   OH260985   0.288   0.445  15.260 -0.2008 -0.1729  0.2878
13165TIP3    H160986   0.217   0.395  15.220 -0.9779  0.1733  1.1943
13165TIP3    H260987   0.247   0.528  15.286  0.8721  0.6159 -0.4466
13166TIP3   OH260988   0.250   5.505   3.838 -0.2464 -0.3051 -0.1701
13166TIP3    H160989   0.252   5.445   3.763 -1.0033 -0.3575 -0.1528
13166TIP3    H260990   0.273   5.451   3.913 -0.3778 -0.4486 -0.2344
13167TIP3   OH260991   3.427   6.402   0.324  0.1418  0.3550 -0.6547
13167TIP3    H160992   3.506   6.434   0.369  1.0622  0.0873 -2.0270
13167TIP3    H260993   3.355   6.444   0.371  0.9309 -1.1009  2.0446
13168TIP3   OH260994   5.314   4.071  13.414 -0.8681 -0.6190  0.0198
13168TIP3    H160995   5.400   4.112  13.425 -0.3174 -1.6309 -0.4344
13168TIP3    H260996   5.260   4.139  13.373  0.0993 -0.4269 -0.9748
13169TIP3   OH260997   4.857   2.532  16.214  0.6199  0.1091  0.3930
13169TIP3    H160998   4.903   2.574  16.287 -0.8264  2.9221 -0.1508
13169TIP3    H260999   4.807   2.462  16.255  0.3964  1.1606  2.0489
13170TIP3   OH261000   4.291   0.845   3.504 -0.1317  0.3551 -0.1701
13170TIP3    H161001   4.218   0.844   3.442  0.0078  0.3512 -0.3352
13170TIP3    H261002   4.306   0.753   3.526 -0.3464  0.3781  0.0629
13171TIP3   OH261003   1.610   0.175  13.298 -0.2587 -0.4933  0.0864
13171TIP3    H161004   1.684   0.220  13.258  0.8307 -2.2668  0.0033
13171TIP3    H261005   1.586   0.230  13.373  0.3884  0.6874 -0.5375
13172TIP3   OH261006   3.436   1.098   2.615 -0.1629 -0.2714  0.2403
13172TIP3    H161007   3.531   1.105   2.613 -0.2057  0.4567  0.3261
13172TIP3    H261008   3.405   1.178   2.572 -0.7313 -0.7285 -0.2207
13173TIP3   OH261009   0.763   2.430   0.124  0.6054 -0.4278 -0.1420
13173TIP3    H161010   0.716   2.360   0.079  2.4467 -0.4306 -2.2308
13173TIP3    H261011   0.697   2.499   0.135 -1.0460 -2.1195  1.2826
13174TIP3   OH261012   3.617   2.949   4.985 -0.0961  0.0459 -0.0179
13174TIP3    H161013   3.641   2.858   4.965  0.6582  0.0862  0.6417
13174TIP3    H261014   3.592   2.946   5.077 -1.7139  0.2025 -0.4259
13175TIP3   OH261015   1.086   2.328   5.113  0.2611  0.4402  0.2377
13175TIP3    H161016   1.065   2.408   5.066  1.4178  0.5210 -0.1665
13175TIP3    H261017   1.151   2.355   5.178  0.3014 -0.0769  0.4173
13176TIP3   OH261018   5.031   5.297  12.874 -0.3272 -0.6910  0.1635
13176TIP3    H161019   5.008   5.357  12.945 -0.1344  0.6406 -0.8834
13176TIP3    H261020   4.948   5.278  12.831 -0.1924 -0.0487 -0.3802
13177TIP3   OH261021   0.728   0.011  13.222  0.0332  0.2462 -0.0426
13177TIP3    H161022   0.811   0.043  13.256  0.2385 -0.9175  0.5781
13177TIP3    H261023   0.691   0.086  13.176  1.7304  0.6075 -0.9101
13178TIP3   OH261024   5.844   0.418   0.794 -0.1067 -0.1608  0.1803
13178TIP3    H161025   5.921   0.467   0.766  0.5338 -1.1254  0.1955
13178TIP3    H261026   5.871   0.377   0.876 -0.8994  0.1077  0.5775
13179TIP3   OH261027   0.063   3.991  15.864  0.0646  0.5058 -0.4660
13179TIP3    H161028   0.142   3.967  15.913 -0.3159  0.9419  0.3633
13179TIP3    H261029   0.004   4.028  15.929 -0.2544  1.5667 -1.3386
13180TIP3   OH261030   2.428   2.968  13.198 -0.7278 -0.3556  0.0160
13180TIP3    H161031   2.498   2.992  13.137 -2.0500  2.8355 -0.4702
13180TIP3    H261032   2.472   2.954  13.282  0.4957  3.1136  0.1088
13181TIP3   OH261033   0.838   1.036  14.195  0.7396 -0.0865  0.2077
13181TIP3    H161034   0.875   1.036  14.283  0.4710  0.6790  0.3276
13181TIP3    H261035   0.905   1.076  14.140  1.4749 -1.7833 -0.2060
13182TIP3   OH261036   2.710   6.596  12.123  0.2982  0.1783  0.2301
13182TIP3    H161037   2.702   6.669  12.184 -1.9858  1.7731 -1.7720
13182TIP3    H261038   2.802   6.596  12.096  0.3228  2.4721  0.1690
13183TIP3   OH261039   0.647   3.138  10.560 -0.2490 -0.0346  0.1651
13183TIP3    H161040   0.653   3.205  10.628  0.5776 -0.8773  0.9309
13183TIP3    H261041   0.558   3.148  10.526 -0.0539  1.6502  0.0474
13184TIP3   OH261042   2.627   6.230  10.680 -0.1642 -0.1110 -0.5418
13184TIP3    H161043   2.634   6.306  10.623 -1.5570  1.3000  1.0417
13184TIP3    H261044   2.545   6.188  10.653  0.9056 -1.4677 -1.8226
13185TIP3   OH261045   4.767   3.729  14.178 -0.5032  0.1252 -0.6721
13185TIP3    H161046   4.852   3.754  14.141  0.3019 -2.0822 -0.4556
13185TIP3    H261047   4.713   3.808  14.170  2.0436  2.1897  0.7341
13186TIP3   OH261048   4.105   6.169   2.134 -0.1817  0.0294  0.2870
13186TIP3    H161049   4.041   6.202   2.072 -0.4992  0.2356  0.7163
13186TIP3    H261050   4.112   6.238   2.200  1.5874  0.6757 -0.5228
13187TIP3   OH261051   6.484   2.087   5.997  0.3078  0.0740  0.2847
13187TIP3    H161052   6.438   2.169   5.981 -1.2197 -1.0310 -1.4469
13187TIP3    H261053   6.441   2.049   6.073 -0.1151  0.1265  0.0738
13188TIP3   OH261054   1.408   3.097   2.732 -0.2136 -0.5408 -0.5324
13188TIP3    H161055   1.384   3.063   2.818 -1.5766  0.6988 -0.3669
13188TIP3    H261056   1.502   3.084   2.725  0.4005  1.4942  2.2150
13189TIP3   OH261057   4.989   4.500  17.102  0.2129  0.7063  0.3200
13189TIP3    H161058   4.932   4.557  17.050 -0.9821 -2.2935 -1.9157
13189TIP3    H261059   5.074   4.505  17.058 -0.1274  0.1383 -0.4291
13190TIP3   OH261060   1.689   6.569  13.400  0.5011  0.4374 -0.2882
13190TIP3    H161061   1.733   6.559  13.316 -0.5405  0.3890 -0.8410
13190TIP3    H261062   1.761   6.577  13.464  1.3000  0.1124 -1.1241
13191TIP3   OH261063   3.607   5.951   1.248 -0.8581 -0.2332  0.0906
13191TIP3    H161064   3.571   6.038   1.268 -0.7357 -0.2813  0.5384
13191TIP3    H261065   3.592   5.900   1.328 -1.3685 -0.7715 -0.3441
13192TIP3   OH261066   1.035   1.778   1.706  0.2361 -0.3744  0.2940
13192TIP3    H161067   0.993   1.769   1.621  1.7802 -1.2897 -0.4088
13192TIP3    H261068   0.971   1.744   1.768 -0.0210 -1.8850 -0.7556
13193TIP3   OH261069   1.828   5.059  13.385  0.3727  0.4302  0.1681
13193TIP3    H161070   1.768   5.070  13.311 -1.6565 -0.2396  1.6108
13193TIP3    H261071   1.913   5.041  13.345 -0.6232  0.2260 -1.9936
13194TIP3   OH261072   3.449   4.543   4.544 -0.6454 -0.4302 -0.8577
13194TIP3    H161073   3.372   4.497   4.577 -0.1249 -0.8562 -0.2101
13194TIP3    H261074   3.514   4.534   4.614 -0.1258  0.2355 -1.2405
13195TIP3   OH261075   5.085   5.496   5.507 -0.2987  0.1996 -0.4581
13195TIP3    H161076   5.105   5.589   5.517 -1.8285  0.5471 -0.3317
13195TIP3    H261077   5.170   5.454   5.493  0.4506  1.5612 -0.1467
13196TIP3   OH261078   2.206   2.225   3.709  0.1402 -0.0428 -0.7205
13196TIP3    H161079   2.146   2.191   3.643 -1.1931  1.5535 -0.4268
13196TIP3    H261080   2.223   2.152   3.768 -1.9064 -0.4475 -0.5752
13197TIP3   OH261081   5.384   4.617  15.176 -0.0705 -0.5552 -0.7255
13197TIP3    H161082   5.340   4.542  15.137 -0.6137 -1.7291  1.9310
13197TIP3    H261083   5.319   4.687  15.173 -2.0051 -1.9941  2.2467
13198TIP3   OH261084   0.292   1.243  12.675  0.0198 -0.2967 -0.4349
13198TIP3    H161085   0.272   1.274  12.587 -1.9810  0.4027  0.2100
13198TIP3    H261086   0.276   1.149  12.672 -1.1865 -0.1012 -0.5532
13199TIP3   OH261087   4.107   4.565  13.849  0.9315  0.1676 -0.5767
13199TIP3    H161088   4.114   4.471  13.831 -0.0923 -0.1867  0.6973
13199TIP3    H261089   4.019   4.588  13.819  0.6892  0.4166  0.3063
13200TIP3   OH261090   2.132   3.215   3.768  0.2499 -0.0356 -0.2049
13200TIP3    H161091   2.107   3.244   3.680 -1.5792  0.7656  0.5362
13200TIP3    H261092   2.201   3.277   3.794  1.1049 -0.5289 -1.1941
13201TIP3   OH261093   2.001   5.590  13.354  0.1130  0.3412 -0.4187
13201TIP3    H161094   1.963   5.518  13.404  0.5760 -1.0984 -2.0305
13201TIP3    H261095   1.932   5.618  13.294 -0.3666  1.9024  0.8061
13202TIP3   OH261096   5.262   6.425   1.583  0.2554  0.3153 -0.5386
13202TIP3    H161097   5.348   6.382   1.591 -0.7386 -1.6351  0.2922
13202TIP3    H261098   5.268   6.475   1.502  1.8034 -0.7389 -1.1297
13203TIP3   OH261099   2.020   5.977  13.082 -0.2153  0.3708 -0.1730
13203TIP3    H161100   2.075   5.919  13.135 -0.2382  1.0946  0.6828
13203TIP3    H261101   1.944   5.994  13.138 -0.3977  0.8928 -0.5779
13204TIP3   OH261102   2.369   1.411  15.725  0.3558  0.5531  0.7651
13204TIP3    H161103   2.402   1.493  15.763  0.2308  1.2413 -0.5511
13204TIP3    H261104   2.295   1.438  15.670  0.9544 -0.3028 -0.5061
13205TIP3   OH261105   6.670   1.766  13.891  0.1675 -0.2376 -0.1615
13205TIP3    H161106   6.581   1.767  13.857  0.4603  0.5136 -0.9351
13205TIP3    H261107   6.699   1.857  13.885  0.4101 -0.1553  1.6614
13206TIP3   OH261108   3.736   3.285   5.467  0.1998 -0.2619 -0.2489
13206TIP3    H161109   3.709   3.331   5.546  0.1246  0.2324 -0.5584
13206TIP3    H261110   3.830   3.269   5.480  0.1722 -0.2531 -0.0270
13207TIP3   OH261111   3.265   1.762   2.225 -0.1528  0.0460 -0.1915
13207TIP3    H161112   3.171   1.767   2.245 -0.6173 -0.9833 -1.8781
13207TIP3    H261113   3.283   1.668   2.221  0.8963  0.2396 -0.1214
13208TIP3   OH261114   3.485   4.493   4.258  0.7802 -0.3240  0.2332
13208TIP3    H161115   3.497   4.472   4.350 -0.7946 -1.0024  0.3221
13208TIP3    H261116   3.572   4.487   4.220  1.4174 -0.2332  1.6340
13209TIP3   OH261117   0.423   0.948  16.478  0.2093 -0.0659 -0.2617
13209TIP3    H161118   0.428   0.887  16.551 -0.2456 -0.3120 -0.4294
13209TIP3    H261119   0.414   1.034  16.519 -2.6326 -0.4064  0.0126
13210TIP3   OH261120   0.871   3.425   3.269  0.1973  0.4289 -0.1920
13210TIP3    H161121   0.955   3.455   3.302 -0.9436  1.0313  2.4127
13210TIP3    H261122   0.807   3.455   3.334 -1.9136 -0.9450 -1.4925
13211TIP3   OH261123   3.780   0.539  14.017  0.0493  0.4588 -0.2954
13211TIP3    H161124   3.866   0.551  13.978 -0.8955  2.6030 -1.9499
13211TIP3    H261125   3.731   0.489  13.952 -0.2011 -0.0471  0.2718
13212TIP3   OH261126   0.556   5.552   2.082  0.0745  0.4362 -0.7501
13212TIP3    H161127   0.545   5.638   2.041 -1.1762  0.1859 -0.9535
13212TIP3    H261128   0.502   5.493   2.031  1.3987 -0.6238 -0.9888
13213TIP3   OH261129   2.189   4.891   5.076  0.0695  0.0358  0.1618
13213TIP3    H161130   2.253   4.910   5.008 -1.3110  2.3350 -0.5997
13213TIP3    H261131   2.116   4.850   5.030 -0.2443  0.2052  0.5038
13214TIP3   OH261132   5.358   0.896  13.762  0.3774 -0.4420 -0.0865
13214TIP3    H161133   5.400   0.851  13.688  0.3112 -1.8031  0.6744
13214TIP3    H261134   5.418   0.883  13.835  1.1600  2.1576 -0.1879
13215TIP3   OH261135   1.134   3.382  11.331  0.1614  0.3769  0.0258
13215TIP3    H161136   1.125   3.444  11.259 -0.5969  0.0716 -0.1478
13215TIP3    H261137   1.225   3.352  11.326  0.6376  1.7073  0.3155
13216TIP3   OH261138   1.793   2.685   1.830  0.2838  0.6753  0.2364
13216TIP3    H161139   1.762   2.769   1.862 -0.0265  0.7185 -0.1587
13216TIP3    H261140   1.782   2.624   1.903  0.2959  0.9286  0.4465
13217TIP3   OH261141   1.726   4.323   2.509  0.0747 -0.5431 -0.0920
13217TIP3    H161142   1.715   4.406   2.464 -0.5981 -0.3018  0.4958
13217TIP3    H261143   1.812   4.292   2.482  1.3104  1.4018  1.3755
13218TIP3   OH261144   3.011   4.021   1.346 -0.1667  0.0027  0.5830
13218TIP3    H161145   3.054   4.089   1.398  1.1458 -0.0265 -0.4052
13218TIP3    H261146   2.972   3.963   1.410  0.5973  0.4823  1.5171
13219TIP3   OH261147   1.738   4.823   2.301  0.1038 -0.0305 -0.0273
13219TIP3    H161148   1.730   4.899   2.357  0.0949  0.8653 -1.2054
13219TIP3    H261149   1.832   4.803   2.299 -0.0195 -0.8439  1.2723
13220TIP3   OH261150   6.133   5.953  12.013  0.0158 -0.4643 -0.3770
13220TIP3    H161151   6.217   5.932  12.054  1.0137  0.9879 -1.5599
13220TIP3    H261152   6.129   5.897  11.936  0.7224  0.6390 -1.2436
13221TIP3   OH261153   5.146   5.877   1.041 -0.4096  0.6085 -0.4491
13221TIP3    H161154   5.219   5.899   0.981  0.4097  0.4272  0.4594
13221TIP3    H261155   5.189   5.839   1.117 -1.6638 -3.1136 -1.3996
13222TIP3   OH261156   2.211   5.372   6.300  0.4937  0.1650  0.1113
13222TIP3    H161157   2.269   5.297   6.311  2.0317  1.5813  2.4597
13222TIP3    H261158   2.142   5.359   6.364  0.2336  0.2780 -0.1460
13223TIP3   OH261159   1.402   3.336  11.956 -0.2445 -0.1177 -0.2156
13223TIP3    H161160   1.337   3.377  11.897 -0.4734 -1.4978 -0.9721
13223TIP3    H261161   1.464   3.294  11.897  1.3526  1.1485  0.5080
13224TIP3   OH261162   1.583   0.876  11.495  0.4318 -0.5955 -0.0945
13224TIP3    H161163   1.528   0.953  11.480 -1.4976 -2.1439 -1.4770
13224TIP3    H261164   1.672   0.908  11.484 -0.0028  2.1505  2.7718
13225TIP3   OH261165   0.008   2.611   2.293 -0.0350 -0.4367 -0.0631
13225TIP3    H161166   0.004   2.544   2.361  2.0425  0.3603  0.9198
13225TIP3    H261167   0.077   2.582   2.234  1.6172  1.2390  0.9338
13226TIP3   OH261168   5.754   6.030  16.235  0.3114 -0.1930  0.1774
13226TIP3    H161169   5.764   6.107  16.179 -0.8428 -0.5458 -0.5739
13226TIP3    H261170   5.780   5.957  16.180  0.1938 -0.4477  0.4549
13227TIP3   OH261171   1.436   0.567  15.100 -0.4545  0.2906 -0.1319
13227TIP3    H161172   1.508   0.606  15.150 -0.6930  1.0853 -0.3862
13227TIP3    H261173   1.472   0.486  15.064  0.2530  0.5838 -0.0913
13228TIP3   OH261174   5.553   2.620  14.267  0.2804 -0.3735 -0.0981
13228TIP3    H161175   5.627   2.573  14.227 -1.2798 -2.2609 -0.9043
13228TIP3    H261176   5.522   2.562  14.337 -0.9441 -0.0109 -0.3168
13229TIP3   OH261177   1.219   2.656   4.606 -0.3995 -0.3915  0.1775
13229TIP3    H161178   1.277   2.695   4.542  1.5731 -0.0934  2.0146
13229TIP3    H261179   1.274   2.592   4.652 -1.0762  0.7672  2.8196
13230TIP3   OH261180   0.556   3.621  14.614 -0.5425 -0.1518  0.2847
13230TIP3    H161181   0.598   3.611  14.529 -0.4139 -2.5536  0.5480
13230TIP3    H261182   0.614   3.679  14.663  0.6558 -0.6608 -0.4888
13231TIP3   OH261183   1.922   4.418  13.545  1.2092  0.0623  0.9941
13231TIP3    H161184   1.879   4.500  13.520  0.4778 -0.1021  1.7017
13231TIP3    H261185   1.940   4.428  13.639  2.2900 -0.0709  0.8201
13232TIP3   OH261186   3.810   3.572   4.317 -0.0471  0.0606 -0.6282
13232TIP3    H161187   3.831   3.543   4.228 -0.6337 -1.4737 -0.2986
13232TIP3    H261188   3.741   3.637   4.306 -1.0901 -1.1196 -1.2462
13233TIP3   OH261189   6.392   4.995   5.547 -0.3507  0.0337 -0.9269
13233TIP3    H161190   6.384   5.052   5.624 -0.1102 -1.2322  0.0690
13233TIP3    H261191   6.428   4.913   5.581  0.7295 -0.2217 -2.5547
13234TIP3   OH261192   3.282   2.284  11.857 -0.0357  0.1351 -0.2565
13234TIP3    H161193   3.317   2.230  11.785  0.1905 -0.3834  0.2315
13234TIP3    H261194   3.218   2.341  11.815  1.3903  1.1168 -1.1960
13235TIP3   OH261195   0.363   3.598  14.181  0.1093  0.1681 -0.1641
13235TIP3    H161196   0.424   3.530  14.210  1.5630  1.2729 -0.4971
13235TIP3    H261197   0.327   3.633  14.262  1.6981  1.0399  0.2217
13236TIP3   OH261198   0.048   5.788   2.983 -0.5214 -0.2268 -0.2388
13236TIP3    H161199   0.122   5.775   2.924  0.0463  0.4743  0.2934
13236TIP3    H261200   0.025   5.880   2.972  0.4417  0.2786  1.5466
13237TIP3   OH261201   4.625   0.255  16.157 -0.2404  0.6323  0.2420
13237TIP3    H161202   4.585   0.328  16.112 -1.6643 -0.1205  0.2157
13237TIP3    H261203   4.632   0.283  16.248  0.6274  1.3408 -0.0323
13238TIP3   OH261204   2.292   2.612  11.140  0.3469 -0.4694 -0.0667
13238TIP3    H161205   2.377   2.568  11.137  1.2225  1.0216  1.2273
13238TIP3    H261206   2.305   2.693  11.090 -0.0249  0.1812  0.8606
13239TIP3   OH261207   2.842   0.327  11.804  0.1968 -0.1559  0.3488
13239TIP3    H161208   2.857   0.293  11.716 -0.9016 -1.1986  0.5590
13239TIP3    H261209   2.787   0.405  11.791  0.1189 -0.2519  0.1099
13240TIP3   OH261210   6.728   2.285  13.706 -0.1038  0.1330  0.0629
13240TIP3    H161211   6.710   2.210  13.763 -0.7035  0.1372 -0.1075
13240TIP3    H261212   6.681   2.265  13.625  0.9101  0.0330 -0.5076
13241TIP3   OH261213   5.211   6.192  16.017  0.3291 -0.0472  0.8446
13241TIP3    H161214   5.167   6.116  15.979 -0.3002 -0.3482  2.1096
13241TIP3    H261215   5.145   6.260  16.019  0.6321  0.2596  0.5446
13242TIP3   OH261216   5.303   0.987  15.695 -0.1122  0.1225 -0.8586
13242TIP3    H161217   5.390   0.950  15.709 -0.3231 -0.7284 -1.7068
13242TIP3    H261218   5.318   1.064  15.641  0.5795  2.7327  2.6930
13243TIP3   OH261219   4.878   1.477   0.953  0.4991  0.2649 -0.3262
13243TIP3    H161220   4.793   1.510   0.926 -0.5474 -1.5866  0.4769
13243TIP3    H261221   4.878   1.484   1.048  2.0107  1.8976 -0.3982
13244TIP3   OH261222   2.061   3.507  12.836 -0.0158  0.3080  0.0957
13244TIP3    H161223   2.021   3.520  12.922 -0.4809  0.7750 -0.1875
13244TIP3    H261224   2.151   3.538  12.847  0.2796 -0.7105  0.7238
13245TIP3   OH261225   3.265   4.001  14.184  0.2679  0.1683  0.1706
13245TIP3    H161226   3.333   3.946  14.145  0.3547 -0.4281  1.1111
13245TIP3    H261227   3.184   3.954  14.166  0.3227 -0.1823  0.8092
13246TIP3   OH261228   2.638   1.031   2.139 -0.1374  0.4587 -0.8751
13246TIP3    H161229   2.670   0.980   2.065  0.5103 -1.8165  0.8439
13246TIP3    H261230   2.550   0.997   2.156  0.3701 -0.2812  0.4027
13247TIP3   OH261231   5.857   0.078   5.378 -0.0447  0.2829 -0.5074
13247TIP3    H161232   5.920   0.115   5.440  0.5991 -0.8393 -0.4593
13247TIP3    H261233   5.782   0.053   5.433  0.4554 -0.5556 -0.1925
13248TIP3   OH261234   1.293   0.698  13.274  0.3269  0.5354 -0.3213
13248TIP3    H161235   1.271   0.749  13.353  1.5065 -0.7439  0.9019
13248TIP3    H261236   1.359   0.751  13.229 -1.1648  1.8024 -1.0883
13249TIP3   OH261237   4.013   0.535   4.418 -0.1774  0.5559  0.1337
13249TIP3    H161238   3.952   0.596   4.378 -0.7760  0.2155  0.5247
13249TIP3    H261239   3.993   0.537   4.511  0.9525  1.0542  0.3842
13250TIP3   OH261240   3.242   2.004   2.053 -0.7454  0.7334 -0.2448
13250TIP3    H161241   3.232   1.948   2.130 -3.6302 -0.9944 -1.7222
13250TIP3    H261242   3.228   2.093   2.087 -0.1287  0.2235  1.4836
13251TIP3   OH261243   5.334   6.359  13.072 -0.3897  0.2158 -0.2896
13251TIP3    H161244   5.414   6.340  13.121 -0.9410 -1.0251  0.1760
13251TIP3    H261245   5.347   6.447  13.038 -0.0244  1.1869  2.1637
13252TIP3   OH261246   3.797   5.395   0.607  0.5337  0.3682  0.1684
13252TIP3    H161247   3.892   5.398   0.596  0.6612 -0.3844  0.9918
13252TIP3    H261248   3.783   5.341   0.684 -0.5085  1.6163  0.9082
13253TIP3   OH261249   4.543   2.190   5.434  0.5879 -0.3890 -0.3990
13253TIP3    H161250   4.565   2.131   5.362  1.2522 -1.8940  0.9547
13253TIP3    H261251   4.626   2.228   5.461  0.3932 -0.0542 -0.2680
13254TIP3   OH261252   2.257   3.811   0.404 -0.2916 -0.3326  0.6398
13254TIP3    H161253   2.179   3.771   0.444 -1.7800  1.7003 -0.0730
13254TIP3    H261254   2.222   3.882   0.350  1.9624 -0.4095 -1.0445
13255TIP3   OH261255   1.417   4.550   0.404 -0.6346  0.2334 -0.4089
13255TIP3    H161256   1.401   4.517   0.493  1.3130  0.8338  0.2152
13255TIP3    H261257   1.393   4.642   0.408  1.8383  0.9396  0.3140
13256TIP3   OH261258   5.692   5.790  13.588  0.3316  0.2889  0.4403
13256TIP3    H161259   5.751   5.862  13.612 -0.6133  0.6879  1.6875
13256TIP3    H261260   5.750   5.723  13.553  1.3488  1.2675  0.1862
13257TIP3   OH261261   4.370   5.535   0.078  0.3079  0.4114  0.6040
13257TIP3    H161262   4.461   5.517   0.103  0.6615  1.0966 -0.1526
13257TIP3    H261263   4.361   5.495  -0.008 -0.9496 -2.0563  1.7671
13258TIP3   OH261264   5.952   0.603  15.889  0.1169  0.2289 -0.0616
13258TIP3    H161265   5.860   0.581  15.878  0.5229 -2.2632  0.7533
13258TIP3    H261266   5.963   0.614  15.983  0.6363  0.5605 -0.1585
13259TIP3   OH261267   0.830   5.746   2.480 -0.6564 -0.3577  0.3192
13259TIP3    H161268   0.793   5.662   2.509  0.8622 -1.6267 -1.1933
13259TIP3    H261269   0.911   5.722   2.436  0.7816  2.1017  1.4347
13260TIP3   OH261270   0.697   4.398  12.015 -0.2956 -0.2027 -0.2429
13260TIP3    H161271   0.774   4.372  12.064 -1.2321  0.3102  1.5870
13260TIP3    H261272   0.717   4.375  11.924  1.7406 -0.6228  0.2691
13261TIP3   OH261273   1.995   0.238  13.864  0.2678 -0.5111  0.5016
13261TIP3    H161274   2.028   0.277  13.945 -1.3554  1.0605  0.4406
13261TIP3    H261275   1.905   0.213  13.884  0.0569 -0.7137 -0.6440
13262TIP3   OH261276   2.963   4.650  14.945 -0.0544 -0.3740  0.3037
13262TIP3    H161277   3.031   4.690  14.891  0.1805 -1.3131 -0.1231
13262TIP3    H261278   2.963   4.558  14.918  0.3384 -0.9511  2.1875
13263TIP3   OH261279   1.628   0.471  10.889 -0.2977  0.3144 -0.1116
13263TIP3    H161280   1.624   0.386  10.932 -0.9914  0.8425  0.9307
13263TIP3    H261281   1.570   0.463  10.813 -0.0230 -0.2669 -0.2620
13264TIP3   OH261282   5.102   4.522   5.545 -0.2177  0.7188 -0.2825
13264TIP3    H161283   5.064   4.473   5.473 -1.2857 -0.3380  0.9561
13264TIP3    H261284   5.042   4.596   5.559  0.3277  1.2872 -0.8574
13265TIP3   OH261285   1.651   5.867   0.950  0.5548  0.3522 -0.2119
13265TIP3    H161286   1.642   5.782   0.907  2.8200 -0.3965  0.6062
13265TIP3    H261287   1.703   5.919   0.889 -1.6117  1.5537 -1.1324
13266TIP3   OH261288   2.395   6.000   2.426 -0.4434 -0.3200 -0.4747
13266TIP3    H161289   2.410   6.093   2.445 -1.7713 -0.2791  0.5445
13266TIP3    H261290   2.457   5.954   2.483 -0.1797 -0.0727 -0.5578
13267TIP3   OH261291   2.804   1.204  13.183 -0.1736  0.5986 -0.3350
13267TIP3    H161292   2.724   1.237  13.141 -0.0717 -0.7317 -1.6741
13267TIP3    H261293   2.865   1.278  13.179 -0.3167  0.6639 -2.2229
13268TIP3   OH261294   4.361   3.906   4.828  0.5660  0.2272 -0.1045
13268TIP3    H161295   4.366   3.918   4.923  3.1190  1.3276 -0.2979
13268TIP3    H261296   4.370   3.994   4.792 -0.6919 -0.1247 -1.4224
13269TIP3   OH261297   3.564   0.017   3.421  0.6512 -0.0635  0.1239
13269TIP3    H161298   3.570   0.045   3.512 -0.5576 -2.9272  1.1656
13269TIP3    H261299   3.533   0.095   3.375 -0.2485  1.0231  2.4044
13270TIP3   OH261300   6.365   0.676  11.279  0.2624  0.4181  0.6230
13270TIP3    H161301   6.276   0.655  11.307 -1.1489  2.3253 -1.9264
13270TIP3    H261302   6.362   0.667  11.183  2.9282  0.2434  0.4934
13271TIP3   OH261303   3.322   2.749   0.651 -0.5511  0.4381  0.1303
13271TIP3    H161304   3.291   2.671   0.697  0.1195 -0.4332 -0.8310
13271TIP3    H261305   3.242   2.794   0.624 -0.9694 -0.3823 -0.0478
13272TIP3   OH261306   0.392   5.635   4.197  0.2012  0.1484 -0.3836
13272TIP3    H161307   0.335   5.557   4.199 -0.4803  0.6389 -0.2263
13272TIP3    H261308   0.396   5.660   4.105 -0.6868  0.7113 -0.2815
13273TIP3   OH261309   2.870   3.739   0.436 -0.1573 -0.3691 -0.4258
13273TIP3    H161310   2.821   3.753   0.355 -2.3990 -0.2346  0.8817
13273TIP3    H261311   2.869   3.644   0.448  0.2935 -0.4003 -0.5863
13274TIP3   OH261312   2.467   5.425   0.295  0.1301  0.2390 -0.2268
13274TIP3    H161313   2.388   5.459   0.336  0.6375  0.2486  0.7709
13274TIP3    H261314   2.518   5.389   0.367  1.0415  0.2411 -0.8520
13275TIP3   OH261315   1.672   2.004  13.988 -0.4292  0.1961 -0.6813
13275TIP3    H161316   1.690   2.014  13.895 -0.4208 -1.1382 -0.8402
13275TIP3    H261317   1.601   1.940  13.992  0.0620 -0.3152  0.2442
13276TIP3   OH261318   6.176   6.407  13.196  0.1733 -0.5719  0.0277
13276TIP3    H161319   6.222   6.403  13.279 -0.0390 -1.0652  0.1269
13276TIP3    H261320   6.190   6.321  13.156  1.2560  0.0423 -0.9862
13277TIP3   OH261321   5.447   5.926  14.745 -0.2843 -0.5240  0.1087
13277TIP3    H161322   5.421   5.997  14.686 -0.4589 -1.7393 -1.3443
13277TIP3    H261323   5.473   5.855  14.687  2.6139 -0.7430  1.4917
13278TIP3   OH261324   6.224   6.365  15.965  0.3766 -0.2420 -0.4728
13278TIP3    H161325   6.292   6.384  16.029  0.2789  1.4293 -0.8287
13278TIP3    H261326   6.158   6.433  15.978  0.9973  1.0255 -3.2462
13279TIP3   OH261327   6.741   3.470  14.743  0.3437 -0.4427  0.0196
13279TIP3    H161328   6.818   3.521  14.717 -0.1630  0.3014 -0.0332
13279TIP3    H261329   6.776   3.382  14.761  1.2547 -0.0457  0.2682
13280TIP3   OH261330   6.752   3.452   1.539  0.6165 -0.1065  0.1167
13280TIP3    H161331   6.747   3.391   1.464  0.3314  1.5671 -1.2811
13280TIP3    H261332   6.711   3.404   1.611 -0.0082 -1.4089 -1.0407
13281TIP3   OH261333   3.781   4.044  12.799 -0.4320 -0.1757 -0.0717
13281TIP3    H161334   3.754   4.117  12.854 -0.1040  0.8279 -1.1926
13281TIP3    H261335   3.727   3.970  12.828 -2.8003  1.1806 -0.7378
13282TIP3   OH261336   4.547   4.254  12.592  0.6364  0.4821  0.2778
13282TIP3    H161337   4.540   4.239  12.686 -1.1718  0.7228  0.2167
13282TIP3    H261338   4.499   4.182  12.552 -0.1796  1.3576 -0.3756
13283TIP3   OH261339   5.117   4.174   1.988 -0.0508  0.0850  0.1132
13283TIP3    H161340   5.098   4.267   2.003 -1.7286 -0.4785  1.8480
13283TIP3    H261341   5.079   4.129   2.063 -0.0943 -2.1035 -1.1305
13284TIP3   OH261342   0.854   1.017   3.704  0.0315  0.4889  0.5373
13284TIP3    H161343   0.865   1.053   3.792 -0.3021 -1.7547  1.5584
13284TIP3    H261344   0.766   0.980   3.704  0.8933 -1.7092  0.1462
13285TIP3   OH261345   1.824   1.321   1.918  0.1733 -0.1938 -0.1494
13285TIP3    H161346   1.804   1.230   1.939  0.6820  0.1141  1.8885
13285TIP3    H261347   1.745   1.370   1.944 -0.0081 -0.0114 -1.0106
13286TIP3   OH261348   0.435   6.444   5.520  0.2652 -0.6201  0.4340
13286TIP3    H161349   0.454   6.358   5.482 -1.8022 -0.4100 -1.2161
13286TIP3    H261350   0.388   6.424   5.601  1.3692 -1.0252  0.9999
13287TIP3   OH261351   2.292   4.459   1.895  0.2596 -0.1336  0.1797
13287TIP3    H161352   2.285   4.491   1.985  0.7046  2.5062 -0.6271
13287TIP3    H261353   2.382   4.428   1.887  0.1618 -0.5629  0.6754
13288TIP3   OH261354   6.788   2.812  14.502 -0.3803 -0.0017  0.0426
13288TIP3    H161355   6.777   2.728  14.547  0.1902  0.3462  0.8548
13288TIP3    H261356   6.773   2.792  14.410 -0.0751 -1.0323  0.2057
13289TIP3   OH261357   2.432   2.564   2.111  0.2555  0.2336  0.3417
13289TIP3    H161358   2.413   2.551   2.018 -1.0249 -0.6742  0.7001
13289TIP3    H261359   2.459   2.655   2.118 -0.3351  0.5064 -0.8128
13290TIP3   OH261360   3.807   6.503   5.637  0.4700  0.2193  0.5207
13290TIP3    H161361   3.879   6.449   5.669  1.0775 -0.7991 -2.3363
13290TIP3    H261362   3.845   6.553   5.565 -1.5937 -0.2101 -0.9402
13291TIP3   OH261363   4.745   0.847   3.503  0.3609 -0.4483 -0.5927
13291TIP3    H161364   4.730   0.887   3.417 -0.4439 -0.4814 -0.4738
13291TIP3    H261365   4.765   0.921   3.560  1.5648 -0.4889 -0.9403
13292TIP3   OH261366   6.160   5.877   4.602  0.3602 -0.0668  0.6820
13292TIP3    H161367   6.233   5.883   4.664  2.3240  0.3434 -1.5308
13292TIP3    H261368   6.200   5.844   4.521 -1.5961  1.6598 -1.0939
13293TIP3   OH261369   0.240   4.966  13.399  0.5384  0.2371 -0.1854
13293TIP3    H161370   0.286   5.042  13.364 -0.9439  0.5392 -1.5706
13293TIP3    H261371   0.222   4.911  13.323  0.2667 -0.7801  0.5908
13294TIP3   OH261372   5.191   5.996  11.576  0.3264  0.4650  0.3526
13294TIP3    H161373   5.204   5.942  11.498 -2.1652  1.3026 -0.7549
13294TIP3    H261374   5.207   5.937  11.650 -1.0596 -1.4530 -0.8012
13295TIP3   OH261375   5.888   4.782   5.130 -0.3663 -0.1337  0.1161
13295TIP3    H161376   5.869   4.701   5.176  0.2525  0.6791  1.8716
13295TIP3    H261377   5.825   4.783   5.057  0.3612 -2.6899 -0.6536
13296TIP3   OH261378   1.328   1.587   5.257  0.2210 -0.0307 -0.1258
13296TIP3    H161379   1.385   1.620   5.188 -0.2414 -0.8822 -0.9474
13296TIP3    H261380   1.387   1.545   5.319  0.6509  0.8187  0.0544
13297TIP3   OH261381   1.569   5.111  11.639  0.7045  0.1296  0.0134
13297TIP3    H161382   1.500   5.147  11.695 -2.3348 -3.8769 -0.7424
13297TIP3    H261383   1.558   5.157  11.555  1.2732  1.8558  0.8366
13298TIP3   OH261384   1.399   1.246   4.553  0.1796  0.3481  0.1449
13298TIP3    H161385   1.429   1.236   4.463 -1.2874  0.8128 -0.4177
13298TIP3    H261386   1.382   1.156   4.583  1.1949  0.1499  0.1711
13299TIP3   OH261387   5.564   5.669   4.753 -0.1555  0.4501  0.0542
13299TIP3    H161388   5.544   5.661   4.846  1.0783  1.0931  0.4064
13299TIP3    H261389   5.614   5.750   4.747  2.0896 -0.8986 -0.7286
13300TIP3   OH261390   5.203   3.502  16.476  0.1112  0.3968  0.0083
13300TIP3    H161391   5.121   3.541  16.444  0.7572  1.0348 -0.9299
13300TIP3    H261392   5.270   3.537  16.418  1.0079 -0.4337  0.5132
13301TIP3   OH261393   6.060   5.926   1.817 -0.3532  0.5615  0.1336
13301TIP3    H161394   6.015   5.940   1.901  1.9903  0.9188  1.4326
13301TIP3    H261395   6.071   6.013   1.780  0.0724  0.5714  0.2798
13302TIP3   OH261396   0.366   3.479   2.628  0.3063 -0.4151  0.2993
13302TIP3    H161397   0.408   3.459   2.544  1.1367 -2.3898  1.1228
13302TIP3    H261398   0.274   3.489   2.607  0.8874  2.5790 -1.3441
13303TIP3   OH261399   5.171   4.718   2.317  0.5279  0.1433 -0.5781
13303TIP3    H161400   5.139   4.695   2.404  1.9683  2.0583  0.5156
13303TIP3    H261401   5.198   4.809   2.324  1.0131  0.2492 -2.9496
13304TIP3   OH261402   6.636   1.595  12.703  0.4873 -0.3964 -0.1102
13304TIP3    H161403   6.573   1.570  12.771 -0.3437 -1.9272 -1.3817
13304TIP3    H261404   6.680   1.514  12.680  2.2992  0.4867  0.0729
13305TIP3   OH261405   5.369   0.879   2.211  0.5224 -0.1611  0.6151
13305TIP3    H161406   5.331   0.858   2.126  2.4399  0.8811 -0.5554
13305TIP3    H261407   5.294   0.906   2.265 -0.5440  0.7350 -1.2398
13306TIP3   OH261408   3.320   2.437   2.622 -0.8625 -0.2395 -0.4341
13306TIP3    H161409   3.291   2.412   2.710 -1.8258  0.4604 -0.5396
13306TIP3    H261410   3.322   2.354   2.574 -0.1653 -0.6566  0.2658
13307TIP3   OH261411   2.629   5.029  16.047 -0.1446 -0.2381  0.4934
13307TIP3    H161412   2.665   4.944  16.021  0.4303 -0.1691  1.0411
13307TIP3    H261413   2.605   5.071  15.964 -0.0519 -0.7653  0.1949
13308TIP3   OH261414   3.378   5.432  10.961 -0.0449 -0.1434  0.5597
13308TIP3    H161415   3.343   5.419  11.049 -1.1197 -0.5161  0.0957
13308TIP3    H261416   3.448   5.367  10.952 -1.1217 -1.3261  0.5188
13309TIP3   OH261417   3.833   3.711   0.204 -0.6352  0.1474 -0.3738
13309TIP3    H161418   3.851   3.683   0.293 -1.5871  0.3157 -0.1152
13309TIP3    H261419   3.767   3.650   0.172 -2.4352  1.7600  0.0547
13310TIP3   OH261420   0.212   0.207  14.599  0.3124 -0.0004  0.2405
13310TIP3    H161421   0.208   0.300  14.577  1.6236 -0.3173 -1.6152
13310TIP3    H261422   0.179   0.162  14.521  0.2170 -1.1105  0.8963
13311TIP3   OH261423   5.402   6.522   1.326 -0.5322  0.2147  0.5007
13311TIP3    H161424   5.363   6.507   1.240  0.8802 -1.0038  0.0357
13311TIP3    H261425   5.454   6.602   1.315 -1.2618  0.7215  0.5835
13312TIP3   OH261426   2.305   0.953   5.381  0.2299  0.1902  0.0331
13312TIP3    H161427   2.276   0.929   5.469 -2.5920  0.6651 -0.6614
13312TIP3    H261428   2.357   0.878   5.352  0.8702 -0.1541  1.9323
13313TIP3   OH261429   6.339   3.504   6.191  0.2095 -0.1802  0.2149
13313TIP3    H161430   6.320   3.470   6.104  2.5986 -3.0934  0.7007
13313TIP3    H261431   6.311   3.435   6.251 -1.5315  1.8174  1.9129
13314TIP3   OH261432   5.493   1.613  14.616  0.0547 -1.0797 -0.1061
13314TIP3    H161433   5.559   1.665  14.663  0.6722 -2.1362  0.2242
13314TIP3    H261434   5.543   1.543  14.575 -0.8938 -2.0348  0.3412
13315TIP3   OH261435   2.941   4.075  14.863  0.3047 -0.5610 -0.0187
13315TIP3    H161436   3.026   4.035  14.877 -0.6001 -2.0207  1.7039
13315TIP3    H261437   2.886   4.004  14.830 -0.5297  0.0638 -0.0276
13316TIP3   OH261438   1.935   2.660   3.536 -0.0064  0.2799 -0.6327
13316TIP3    H161439   2.015   2.696   3.574 -0.7839  1.8779 -0.4347
13316TIP3    H261440   1.917   2.581   3.587  1.6445 -0.3374 -0.9417
13317TIP3   OH261441   4.589   0.478  11.433 -0.8860  0.2514 -0.3153
13317TIP3    H161442   4.620   0.547  11.374 -1.0659 -0.4539 -1.2577
13317TIP3    H261443   4.514   0.518  11.478 -0.1244  1.1395  0.1870
13318TIP3   OH261444   3.050   6.519   3.139  0.0178  0.2174 -0.6820
13318TIP3    H161445   2.992   6.447   3.164 -0.1634  0.4393 -0.4573
13318TIP3    H261446   3.134   6.498   3.181 -0.2168  0.4649 -0.0823
13319TIP3   OH261447   4.715   4.146   2.005  0.2788  0.1291  0.5476
13319TIP3    H161448   4.686   4.211   2.068  0.2188  1.5216 -0.8652
13319TIP3    H261449   4.674   4.172   1.923 -1.4767 -2.8839  0.3014
13320TIP3   OH261450   6.021   5.562   4.631 -0.3801 -0.0358  0.4038
13320TIP3    H161451   5.985   5.628   4.571 -0.7481 -0.2378  0.3949
13320TIP3    H261452   5.961   5.564   4.706  1.1273  1.5432  1.6318
13321TIP3   OH261453   5.910   2.390   3.819  0.8423  0.5497  0.3520
13321TIP3    H161454   5.871   2.320   3.873 -0.6365 -0.2492 -1.6256
13321TIP3    H261455   5.953   2.343   3.748  1.0125  1.6175 -0.2633
13322TIP3   OH261456   5.184   2.465   5.226  0.0500 -0.3369 -0.2631
13322TIP3    H161457   5.187   2.449   5.320 -1.7768  0.5073 -0.0207
13322TIP3    H261458   5.237   2.395   5.188  2.5927  0.4974  1.4747
13323TIP3   OH261459   2.726   6.447  11.192 -0.6078 -0.1536  0.0359
13323TIP3    H161460   2.719   6.406  11.106  1.2665 -1.7214  0.5431
13323TIP3    H261461   2.649   6.417  11.240  0.6303 -3.1269  0.3463
13324TIP3   OH261462   6.687   4.130   2.489  0.2702  0.0666  0.3131
13324TIP3    H161463   6.596   4.162   2.483 -0.7123 -2.4104  0.7038
13324TIP3    H261464   6.734   4.183   2.424 -1.8797  0.1244 -1.3422
13325TIP3   OH261465   3.106   4.297  17.240  0.2617  0.2718 -0.3560
13325TIP3    H161466   3.188   4.335  17.210  0.5579 -0.6724 -0.7794
13325TIP3    H261467   3.056   4.280  17.160  0.3141 -0.6053 -0.2146
13326TIP3   OH261468   1.977   1.898   4.703  0.6247 -0.3997  0.4487
13326TIP3    H161469   2.006   1.886   4.793 -0.6530  1.8101  1.2255
13326TIP3    H261470   2.006   1.986   4.680  1.8470 -1.3030 -1.7097
13327TIP3   OH261471   2.490   6.427   2.941  0.5024  0.0421 -0.8227
13327TIP3    H161472   2.464   6.335   2.932  0.7038  0.0001 -0.9734
13327TIP3    H261473   2.585   6.427   2.930  0.4676  0.3112 -1.1488
13328TIP3   OH261474   1.968   2.179  11.757 -0.2358 -0.6092 -0.1166
13328TIP3    H161475   1.884   2.162  11.714  0.6462 -1.2869 -1.6638
13328TIP3    H261476   2.021   2.101  11.738  1.2239  0.4111 -0.4497
13329TIP3   OH261477   3.916   4.249   4.598  0.0648 -0.1254  0.2834
13329TIP3    H161478   3.943   4.242   4.690  1.1406  0.7147  0.0533
13329TIP3    H261479   3.870   4.333   4.593  1.1843  0.4846 -0.1954
13330TIP3   OH261480   0.607   5.579   5.694  0.1129 -0.4259  0.6417
13330TIP3    H161481   0.649   5.495   5.712  0.1733 -0.0976  2.2213
13330TIP3    H261482   0.680   5.639   5.677  0.0560 -0.7373 -0.7965
13331TIP3   OH261483   4.061   6.821   6.194  0.2744 -0.1022 -0.3698
13331TIP3    H161484   4.115   6.834   6.272  0.8741  1.0565 -0.9498
13331TIP3    H261485   4.068   6.904   6.146 -1.2492 -0.2688 -0.9399
13332TIP3   OH261486   2.851   1.843   0.822  0.2738 -0.1938  0.0748
13332TIP3    H161487   2.833   1.915   0.881  2.8794 -1.6972  2.9956
13332TIP3    H261488   2.776   1.784   0.832  0.5316 -0.2801  1.7314
13333TIP3   OH261489   6.057   4.942  14.251  0.1288  0.1358  0.0403
13333TIP3    H161490   6.101   4.880  14.193  0.0084  1.2404 -1.2895
13333TIP3    H261491   6.110   4.943  14.331  1.6804  0.3686 -0.9657
13334TIP3   OH261492   4.608   5.433   0.904  0.0061 -0.1841 -0.0053
13334TIP3    H161493   4.609   5.375   0.981 -0.8660 -0.2526 -0.0269
13334TIP3    H261494   4.614   5.374   0.829  0.0819 -0.1730 -0.0084
13335TIP3   OH261495   0.932   3.851   4.232 -0.0804  0.5046  0.5933
13335TIP3    H161496   0.851   3.831   4.279  1.0592 -1.9012  1.7340
13335TIP3    H261497   0.919   3.816   4.144  0.0025 -0.7356  1.0494
13336TIP3   OH261498   1.361   2.861   1.812 -0.0673  0.1848  0.1693
13336TIP3    H161499   1.391   2.795   1.749  0.2866 -0.6890  1.2211
13336TIP3    H261500   1.414   2.938   1.792 -0.1046 -0.0082 -0.7359
13337TIP3   OH261501   3.071   4.451   0.539  0.4211 -0.0814  0.2276
13337TIP3    H161502   3.071   4.371   0.592  0.2944 -0.1618  0.1054
13337TIP3    H261503   3.075   4.522   0.604 -1.1923 -0.1281  0.4219
13338TIP3   OH261504   3.579   6.478  16.334  0.3953 -0.8097 -0.4882
13338TIP3    H161505   3.651   6.444  16.281  0.5015  2.4239 -2.6911
13338TIP3    H261506   3.622   6.530  16.402  0.2444  0.9653 -1.6883
13339TIP3   OH261507   1.906   0.115   0.838 -0.2297  0.2186  0.1857
13339TIP3    H161508   1.970   0.056   0.799  0.2187  0.2337  0.8775
13339TIP3    H261509   1.880   0.173   0.767  1.5411  1.0974  0.1935
13340TIP3   OH261510   1.703   1.433   0.780 -0.1120  0.1513 -0.6857
13340TIP3    H161511   1.704   1.421   0.685  0.9967  1.8175 -0.9384
13340TIP3    H261512   1.796   1.440   0.803 -0.2787 -1.6693  0.7671
13341TIP3   OH261513   1.999   4.952  12.022  0.2526 -0.0410  0.0388
13341TIP3    H161514   1.993   4.951  11.927  0.1892 -1.8851  0.0245
13341TIP3    H261515   1.931   4.891  12.051 -1.2216  2.0747  1.4099
13342TIP3   OH261516   4.256   6.275  15.551 -0.0883  0.0879 -0.1199
13342TIP3    H161517   4.180   6.242  15.502 -0.2832  0.1854  0.1115
13342TIP3    H261518   4.241   6.369  15.558 -0.9756 -0.1398  1.6447
13343TIP3   OH261519   2.120   5.211  13.058 -0.6464  0.2599  0.1852
13343TIP3    H161520   2.147   5.302  13.050 -1.5395  0.5812  0.5989
13343TIP3    H261521   2.166   5.165  12.988  1.5535  0.5986  1.3128
13344TIP3   OH261522   0.494   2.272  12.222  0.5449  0.2318  0.2615
13344TIP3    H161523   0.468   2.358  12.254 -0.4183 -0.5701  1.7322
13344TIP3    H261524   0.416   2.218  12.231  1.3881 -1.0439  0.2689
13345TIP3   OH261525   2.716   0.670  16.605 -0.1906 -0.4833 -0.1287
13345TIP3    H161526   2.654   0.647  16.537 -0.9883  0.0528  0.3973
13345TIP3    H261527   2.670   0.653  16.687 -0.5522  2.1122  0.2991
13346TIP3   OH261528   2.651   0.367  14.398  0.7566 -0.4965 -0.6391
13346TIP3    H161529   2.739   0.354  14.433  1.1707  2.2689 -0.4709
13346TIP3    H261530   2.592   0.343  14.470  1.5359  2.1399  1.0164
13347TIP3   OH261531   3.918   4.398  16.481  0.2354  0.6733  0.2887
13347TIP3    H161532   3.907   4.466  16.416  1.7728  1.5140  0.8468
13347TIP3    H261533   3.995   4.349  16.452  0.6641  0.7736  1.2074
13348TIP3   OH261534   1.721   0.823   2.546 -0.5724  0.1983  0.2417
13348TIP3    H161535   1.768   0.799   2.466  2.1332  0.4872  1.6253
13348TIP3    H261536   1.653   0.756   2.555  1.4829 -2.0871 -0.3363
13349TIP3   OH261537   1.356   4.555   2.182  0.0405 -0.5865 -0.2700
13349TIP3    H161538   1.276   4.599   2.209  0.2080 -0.0532 -0.6293
13349TIP3    H261539   1.331   4.501   2.108  0.4556  1.4559 -2.0115
13350TIP3   OH261540   3.863   0.052   4.284 -0.5978 -0.2347 -0.3899
13350TIP3    H161541   3.787   0.084   4.235 -1.2178 -0.8850  0.1103
13350TIP3    H261542   3.921   0.127   4.291 -0.9518  0.1362 -1.2440
13351TIP3   OH261543   0.057   0.803  14.886  0.2687  0.0200 -0.1025
13351TIP3    H161544   0.142   0.762  14.896 -0.1283 -0.4579  1.7765
13351TIP3    H261545  -0.001   0.732  14.858  0.3898  0.2330 -0.8962
13352TIP3   OH261546   4.734   2.985  13.939  0.2432 -0.0285 -0.2984
13352TIP3    H161547   4.737   3.080  13.923 -1.1520  0.2819  1.1023
13352TIP3    H261548   4.813   2.952  13.896  1.2485  1.8903 -0.0545
13353TIP3   OH261549   6.073   3.551   3.094  0.1349  0.1955  0.1128
13353TIP3    H161550   5.989   3.572   3.135 -0.3900 -0.5431 -0.5577
13353TIP3    H261551   6.127   3.629   3.109 -1.0051  1.1023 -0.3476
13354TIP3   OH261552   1.793   1.581   2.255  0.6004  0.1728 -0.1917
13354TIP3    H161553   1.806   1.641   2.181 -0.5713  0.3983 -0.2252
13354TIP3    H261554   1.801   1.494   2.216 -3.2017  0.1673 -1.3352
13355TIP3   OH261555   2.984   6.616  15.162  0.2863 -0.4121 -0.0870
13355TIP3    H161556   2.908   6.648  15.209 -0.7153 -2.0998 -0.4466
13355TIP3    H261557   3.042   6.691  15.156 -2.5056  1.8083 -2.2484
13356TIP3   OH261558   0.741   3.546  14.413 -0.6404 -0.2348  0.0851
13356TIP3    H161559   0.791   3.626  14.426 -1.2893 -0.0372  1.6426
13356TIP3    H261560   0.805   3.481  14.385 -0.0873  0.7924 -1.0751
13357TIP3   OH261561   5.170   0.370  11.009  0.3197 -0.1791  0.7699
13357TIP3    H161562   5.238   0.370  10.942 -0.4267 -0.7979 -0.0140
13357TIP3    H261563   5.209   0.415  11.084  1.5167 -0.3743  0.2732
13358TIP3   OH261564   3.310   4.626   1.545  0.0109 -0.2196 -0.3479
13358TIP3    H161565   3.391   4.630   1.495 -0.2405 -1.9021 -0.9504
13358TIP3    H261566   3.244   4.594   1.482 -0.1620 -3.0912  1.1220
13359TIP3   OH261567   2.170   2.751  11.362 -0.2066  0.1190 -0.1222
13359TIP3    H161568   2.250   2.756  11.414  0.2791  1.5654 -0.9573
13359TIP3    H261569   2.192   2.692  11.290  0.1073  0.4626 -0.3149
13360TIP3   OH261570   4.192   2.299  16.826  0.6110 -0.0200 -0.4384
13360TIP3    H161571   4.273   2.249  16.812 -0.5307 -2.2291  0.3728
13360TIP3    H261572   4.172   2.336  16.740  1.9973 -0.2027 -0.8673
13361TIP3   OH261573   4.975   1.895   3.731 -0.3787 -0.0946 -0.1785
13361TIP3    H161574   5.066   1.912   3.708 -0.4641  0.3207 -0.2142
13361TIP3    H261575   4.933   1.873   3.648 -0.1494 -1.0490 -0.0562
13362TIP3   OH261576   4.672   3.468  16.676 -0.3540 -0.8130  0.4896
13362TIP3    H161577   4.749   3.509  16.635  0.7525 -0.2343  2.9377
13362TIP3    H261578   4.626   3.540  16.717 -0.3652 -1.5582  1.8257
13363TIP3   OH261579   3.482   2.354   4.487  0.3904  0.6059 -0.1564
13363TIP3    H161580   3.535   2.313   4.555  0.7787  1.7199  0.2428
13363TIP3    H261581   3.500   2.448   4.496  3.0274  0.7110 -3.7890
13364TIP3   OH261582   4.241   4.116  13.529  0.0029  0.0645 -0.2456
13364TIP3    H161583   4.242   4.022  13.544  4.5996  0.1261  1.3001
13364TIP3    H261584   4.251   4.126  13.434 -0.5522 -0.9333 -0.4221
13365TIP3   OH261585   2.325   4.420   4.627 -0.1257  0.0240 -0.0925
13365TIP3    H161586   2.292   4.505   4.659  0.3870  1.0423 -2.1079
13365TIP3    H261587   2.325   4.428   4.532  0.6873 -1.9770 -0.3177
13366TIP3   OH261588   1.665   5.327  16.205  0.5117 -0.4372  0.1943
13366TIP3    H161589   1.658   5.254  16.143  1.8889  1.2829 -2.2012
13366TIP3    H261590   1.637   5.404  16.155  0.3683  0.8919  2.1886
13367TIP3   OH261591   1.840   2.039  10.718  0.0389 -0.5975  0.2174
13367TIP3    H161592   1.781   1.983  10.667 -0.1389  0.5969 -0.9430
13367TIP3    H261593   1.815   2.128  10.694  1.0563 -0.0308  1.1807
13368TIP3   OH261594   4.700   3.230  15.241  0.0533  0.2956 -0.5071
13368TIP3    H161595   4.706   3.277  15.324  3.4180 -0.8800  0.0565
13368TIP3    H261596   4.764   3.273  15.184  1.8085 -2.2588 -0.6080
13369TIP3   OH261597   4.603   5.591   1.679  0.5049  0.2181 -0.1876
13369TIP3    H161598   4.565   5.591   1.591 -0.1236 -1.7790  0.0317
13369TIP3    H261599   4.527   5.596   1.738  0.9060  1.2532  0.2637
13370TIP3   OH261600   6.263   3.729  12.372  0.3476  0.3566 -0.4012
13370TIP3    H161601   6.203   3.728  12.297 -0.4285 -1.3951  0.2002
13370TIP3    H261602   6.347   3.757  12.335 -0.3373  0.8359 -1.6508
13371TIP3   OH261603   3.083   3.609   3.829  0.3612  0.3079 -0.5307
13371TIP3    H161604   3.021   3.603   3.756  0.3247 -0.3373 -0.4528
13371TIP3    H261605   3.031   3.645   3.901 -0.4652 -2.0213  0.1098
13372TIP3   OH261606   1.565   0.215   2.802  0.0273  0.2006  0.2985
13372TIP3    H161607   1.583   0.225   2.895  2.8780  0.8654 -0.2425
13372TIP3    H261608   1.489   0.156   2.799 -0.9017  1.0926  3.0115
13373TIP3   OH261609   0.654   4.383  14.562  0.0976  0.0650  0.9735
13373TIP3    H161610   0.610   4.303  14.533  0.6973 -0.2345  0.8812
13373TIP3    H261611   0.588   4.429  14.613 -0.3239 -0.3812  0.8389
13374TIP3   OH261612   2.328   3.826  16.539 -0.1300  0.7326 -0.1357
13374TIP3    H161613   2.245   3.852  16.498 -2.2739 -1.7954  2.1829
13374TIP3    H261614   2.375   3.779  16.470 -1.9295 -0.2016 -0.8023
13375TIP3   OH261615   4.981   2.636  13.957  0.1660  0.0577  0.5236
13375TIP3    H161616   5.025   2.566  14.005 -0.4908 -0.1923  0.7732
13375TIP3    H261617   5.019   2.716  13.992 -0.1877 -0.1276  1.3614
13376TIP3   OH261618   2.089   0.240  14.317  0.3499 -0.3458 -0.5420
13376TIP3    H161619   2.070   0.147  14.308  0.2866 -0.4047  0.1727
13376TIP3    H261620   2.015   0.275  14.367  0.2816  0.1266 -0.9617
13377TIP3   OH261621   5.763   0.536   5.783  0.4017 -0.4520  0.1874
13377TIP3    H161622   5.791   0.445   5.772 -1.9054 -1.2521  0.3198
13377TIP3    H261623   5.757   0.548   5.878  0.0372 -0.3887  0.1564
13378TIP3   OH261624   5.889   4.285  16.615  0.5270 -0.1140  0.5751
13378TIP3    H161625   5.894   4.202  16.568 -0.0237  0.4822 -0.5982
13378TIP3    H261626   5.806   4.281  16.663 -0.5255  0.5287 -1.0998
13379TIP3   OH261627   2.945   3.967  16.589 -0.5563 -0.4114  0.5159
13379TIP3    H161628   2.991   3.934  16.666  0.8346 -0.5861 -0.3572
13379TIP3    H261629   2.959   4.062  16.591 -0.1561 -0.4626  0.2593
13380TIP3   OH261630   2.971   3.311  15.745 -0.5227  0.0952 -0.4339
13380TIP3    H161631   3.048   3.365  15.727 -0.3557 -0.2408 -0.7204
13380TIP3    H261632   2.980   3.236  15.687 -0.1789 -0.8033  0.7579
13381TIP3   OH261633   4.412   0.216   0.181  0.2421 -1.0910  0.2133
13381TIP3    H161634   4.434   0.134   0.224  1.2328 -1.2876 -0.6232
13381TIP3    H261635   4.359   0.189   0.105  2.2052 -1.2067 -1.2140
13382TIP3   OH261636   0.946   1.692  16.910  0.2331 -0.0416  0.8650
13382TIP3    H161637   1.024   1.644  16.884  0.5325 -0.3554  2.2876
13382TIP3    H261638   0.884   1.676  16.839  0.6650 -1.7249  0.8248
13383TIP3   OH261639   1.477   0.322  16.822 -0.1205  0.2683  0.0440
13383TIP3    H161640   1.442   0.410  16.812 -2.1422 -0.2017  2.1765
13383TIP3    H261641   1.571   0.335  16.834  0.1657  1.8044 -2.8932
13384TIP3   OH261642   0.354   2.850   2.235  0.0716 -0.3202 -0.0149
13384TIP3    H161643   0.331   2.763   2.200  0.8192 -0.1493 -0.9605
13384TIP3    H261644   0.369   2.835   2.328 -2.5124 -0.6910  0.4321
13385TIP3   OH261645   6.757   4.910  16.470  0.2279  0.0024  0.3900
13385TIP3    H161646   6.689   4.846  16.491  0.0338 -0.4075 -1.3563
13385TIP3    H261647   6.826   4.859  16.428 -0.1435  0.9587 -1.5046
13386TIP3   OH261648   6.242   3.182  15.128 -0.6134  0.3555 -0.7597
13386TIP3    H161649   6.184   3.244  15.084  1.1889  0.4704 -3.1668
13386TIP3    H261650   6.208   3.096  15.104 -0.9143  0.4072 -0.5286
13387TIP3   OH261651   4.343   3.150   5.507 -0.5674  0.3009 -0.5197
13387TIP3    H161652   4.369   3.061   5.529  1.1825  0.6968 -0.8169
13387TIP3    H261653   4.254   3.142   5.474 -1.1694 -1.0621  1.2621
13388TIP3   OH261654   4.944   6.489   4.746 -0.4178 -0.3014 -0.0482
13388TIP3    H161655   4.939   6.395   4.760  0.7105 -0.0851  2.3771
13388TIP3    H261656   5.037   6.508   4.740 -0.5206  0.7954  1.1561
13389TIP3   OH261657   0.627   3.560  12.920 -0.3792  0.0145  0.0878
13389TIP3    H161658   0.544   3.520  12.945 -0.9157  1.2243  0.3623
13389TIP3    H261659   0.655   3.512  12.843 -1.3861 -0.3620 -0.0614
13390TIP3   OH261660   2.338   0.500   1.705 -0.2158  0.0479  0.4240
13390TIP3    H161661   2.324   0.585   1.747  0.7343  0.3063  0.2531
13390TIP3    H261662   2.382   0.447   1.771 -1.7712 -0.6916  0.9023
13391TIP3   OH261663   1.581   3.337   3.597 -0.5064  0.1214  0.2008
13391TIP3    H161664   1.605   3.391   3.672 -0.4668  1.5737 -0.8040
13391TIP3    H261665   1.633   3.372   3.524 -1.3823 -0.4888 -0.7579
13392TIP3   OH261666   2.406   5.883  13.084 -0.7073 -0.1961 -0.2200
13392TIP3    H161667   2.384   5.967  13.043  0.7039 -0.6924 -2.1087
13392TIP3    H261668   2.489   5.899  13.128  0.4665 -0.9867 -2.0494
13393TIP3   OH261669   4.243   3.185  14.640  0.1603  0.0104  0.0076
13393TIP3    H161670   4.255   3.111  14.580  1.1832  1.3078 -1.4653
13393TIP3    H261671   4.245   3.145  14.727  0.5781 -1.7124 -0.7465
13394TIP3   OH261672   5.591   0.613   4.410 -0.3037 -0.0253 -0.3235
13394TIP3    H161673   5.564   0.613   4.502 -2.3436  1.0305 -0.8571
13394TIP3    H261674   5.554   0.532   4.374 -1.1788  0.5012 -0.6314
13395TIP3   OH261675   4.612   1.469   5.787 -0.1977  0.0653 -0.6444
13395TIP3    H161676   4.654   1.478   5.701 -0.2211  2.0813 -0.4939
13395TIP3    H261677   4.661   1.399   5.830 -0.3581 -1.1858 -2.3751
13396TIP3   OH261678   4.937   2.562  11.425 -0.2999 -0.2395  0.0532
13396TIP3    H161679   4.933   2.592  11.334  0.2141  1.2080  0.4815
13396TIP3    H261680   4.852   2.520  11.440  0.1348 -1.7830 -1.4988
13397TIP3   OH261681   3.463   1.621  16.996 -0.2464  0.2650 -0.5041
13397TIP3    H161682   3.525   1.619  16.923 -0.4412  2.9927 -0.8533
13397TIP3    H261683   3.396   1.557  16.972  0.9099 -0.5962 -1.5415
13398TIP3   OH261684   0.136   2.769  16.407 -0.0908  0.8080 -0.1097
13398TIP3    H161685   0.202   2.830  16.375  0.3795  0.9506  1.0712
13398TIP3    H261686   0.152   2.688  16.358  1.9649  0.3547  1.1975
13399TIP3   OH261687   5.166   1.107   1.370  0.3769  0.2370 -0.4753
13399TIP3    H161688   5.153   1.175   1.304 -0.6142  0.6362  0.1109
13399TIP3    H261689   5.086   1.109   1.423  0.9633 -0.3679  0.4670
13400TIP3   OH261690   2.247   1.452   5.797 -0.1514  0.1632 -0.3773
13400TIP3    H161691   2.307   1.510   5.749 -1.5972  0.4884 -1.8529
13400TIP3    H261692   2.160   1.479   5.769 -1.1486  0.6761  2.8029
13401TIP3   OH261693   3.257   1.921  16.746 -0.1185 -0.6952 -0.2444
13401TIP3    H161694   3.257   1.828  16.772 -0.7389 -0.9391 -1.0881
13401TIP3    H261695   3.348   1.939  16.722  0.6633 -0.2827  2.6015
13402TIP3   OH261696   5.042   3.624   2.789  0.0869  0.1375  0.0612
13402TIP3    H161697   5.092   3.592   2.714 -0.8163  1.3065 -1.0769
13402TIP3    H261698   5.059   3.719   2.791  0.2025  0.1161  1.4377
13403TIP3   OH261699   4.938   3.023  16.456 -0.7401 -0.4865 -0.0890
13403TIP3    H161700   4.995   3.094  16.486 -1.5173  0.0485  0.1620
13403TIP3    H261701   4.961   3.012  16.364 -1.0650  0.5659 -0.3191
13404TIP3   OH261702   0.558   6.578  12.246  0.3623 -0.2921  0.0997
13404TIP3    H161703   0.546   6.487  12.218  0.1818 -0.3185  0.2583
13404TIP3    H261704   0.470   6.616  12.239 -0.1409 -0.8326  2.5102
13405TIP3   OH261705   0.207   4.133   2.584 -0.6577 -0.1417  0.2888
13405TIP3    H161706   0.263   4.100   2.654 -1.7497 -0.5089  1.0137
13405TIP3    H261707   0.212   4.228   2.593 -0.6886 -0.1844  0.7819
13406TIP3   OH261708   1.593   4.413  12.098 -0.1486 -0.2039 -0.0845
13406TIP3    H161709   1.613   4.338  12.042  1.2941  0.0248  0.0933
13406TIP3    H261710   1.674   4.430  12.145 -0.4695  1.4580 -0.0907
13407TIP3   OH261711   6.695   1.554   3.892  0.1889 -0.3196 -0.3089
13407TIP3    H161712   6.641   1.624   3.856 -1.3604 -0.3759  1.7223
13407TIP3    H261713   6.634   1.500   3.942  1.3510 -3.0943 -1.7114
13408TIP3   OH261714   6.099   5.553  11.983 -0.3294 -0.3217 -0.9602
13408TIP3    H161715   6.028   5.502  11.944  0.7355 -1.0053 -2.1013
13408TIP3    H261716   6.104   5.632  11.929 -2.2407  1.3036  1.0485
13409TIP3   OH261717   4.819   2.785   5.592  0.2457 -0.5469 -0.0106
13409TIP3    H161718   4.748   2.721   5.597 -0.0921 -0.2065 -0.3283
13409TIP3    H261719   4.781   2.866   5.625  1.3047 -0.9855  2.4883
13410TIP3   OH261720   2.798   6.318  12.382 -0.5990  0.4237 -0.2375
13410TIP3    H161721   2.731   6.381  12.354 -1.3304  0.0126  0.5349
13410TIP3    H261722   2.878   6.370  12.389 -1.2790  1.4057  0.8200
13411TIP3   OH261723   6.198   6.529   1.143  0.5603 -0.4330 -0.1899
13411TIP3    H161724   6.181   6.597   1.208  0.4330 -0.6305 -0.0157
13411TIP3    H261725   6.192   6.447   1.192  0.2911 -0.5920 -0.4886
13412TIP3   OH261726   5.934   2.488   1.628  0.0821  0.0365 -0.3935
13412TIP3    H161727   5.888   2.531   1.555  0.8297 -0.7671 -1.3752
13412TIP3    H261728   5.887   2.406   1.640 -1.5549  1.1651  1.7042
13413TIP3   OH261729   5.060   3.312  15.068 -0.1772  0.1383 -0.0516
13413TIP3    H161730   5.019   3.269  15.143 -1.0975 -0.3484 -0.8069
13413TIP3    H261731   5.098   3.240  15.017 -0.8745  0.2956 -0.8222
13414TIP3   OH261732   1.416   2.124   0.640  0.3209 -0.3701 -0.0990
13414TIP3    H161733   1.380   2.208   0.669 -1.3410 -0.6763 -1.1526
13414TIP3    H261734   1.427   2.074   0.721 -2.5622 -0.5884  0.2381
13415TIP3   OH261735   1.465   4.788  12.959  0.5002  0.3851  0.2178
13415TIP3    H161736   1.497   4.793  12.868 -0.9175  0.5704 -0.2942
13415TIP3    H261737   1.441   4.878  12.981 -1.0273  0.0389  0.0545
13416TIP3   OH261738   2.001   1.031  14.002 -0.4424 -0.3516  0.6521
13416TIP3    H161739   1.923   1.039  13.947  0.8172  2.1177 -0.9653
13416TIP3    H261740   1.970   1.052  14.090 -1.4511  1.9355 -0.1633
13417TIP3   OH261741   4.751   0.810   2.660  0.3866 -0.5341  0.1523
13417TIP3    H161742   4.784   0.784   2.574  0.1507  2.2870 -0.9071
13417TIP3    H261743   4.668   0.763   2.669  0.4616 -0.9516 -1.1503
13418TIP3   OH261744   3.588   5.720   0.792  0.0225 -0.0047 -0.2085
13418TIP3    H161745   3.564   5.639   0.749 -0.8241 -0.2493  0.6881
13418TIP3    H261746   3.668   5.749   0.747  0.1821 -1.1839 -0.7063
13419TIP3   OH261747   0.764   3.129  14.740  0.1959 -0.3026 -0.2085
13419TIP3    H161748   0.699   3.089  14.799  1.0972  0.2010  1.1823
13419TIP3    H261749   0.728   3.215  14.719  0.5188  0.0908  0.7943
13420TIP3   OH261750   6.640   4.244  15.919 -0.7960  0.1122  0.0043
13420TIP3    H161751   6.683   4.250  16.004  0.6079  2.2014 -0.7924
13420TIP3    H261752   6.614   4.333  15.898  0.4467 -0.0269 -2.5089
13421TIP3   OH261753   4.717   3.520   1.637 -0.1528  0.5168  0.4429
13421TIP3    H161754   4.739   3.456   1.569  0.6251 -0.4531  1.5445
13421TIP3    H261755   4.627   3.545   1.619 -1.1422 -2.3026  0.9916
13422TIP3   OH261756   1.331   0.875   2.230  0.5882 -0.1753 -0.0179
13422TIP3    H161757   1.251   0.869   2.178  1.1223 -2.5330 -0.6605
13422TIP3    H261758   1.358   0.785   2.243  2.4161  0.5208  1.3670
13423TIP3   OH261759   2.126   3.845  14.522  0.5457  0.5396 -0.4462
13423TIP3    H161760   2.037   3.838  14.556  0.4247 -0.9995 -0.9936
13423TIP3    H261761   2.162   3.757  14.530  2.3763  1.3086  0.6256
13424TIP3   OH261762   5.963   1.539  11.437 -0.3002  0.1789  0.1442
13424TIP3    H161763   5.887   1.596  11.447  1.0314  1.9654  0.5538
13424TIP3    H261764   5.992   1.554  11.347 -0.3197 -0.3651  0.0443
13425TIP3   OH261765   1.580   5.794  15.609  0.0426  0.4565  0.0391
13425TIP3    H161766   1.651   5.741  15.572  0.2606  0.4939  0.3959
13425TIP3    H261767   1.500   5.750  15.581  0.1977  0.6947 -0.7850
13426TIP3   OH261768   6.084   1.602  15.291  0.4650 -1.1706 -0.3343
13426TIP3    H161769   6.051   1.666  15.353 -1.7554  0.6645 -3.1298
13426TIP3    H261770   6.011   1.542  15.276  1.0287 -1.7232 -0.9627
13427TIP3   OH261771   2.840   3.606   2.183  0.3823 -0.2658  0.0007
13427TIP3    H161772   2.854   3.693   2.145  0.8157 -0.4907 -0.3791
13427TIP3    H261773   2.753   3.610   2.222 -1.0093 -0.6242 -2.8036
13428TIP3   OH261774   4.073   1.061   2.453  0.1378 -0.6470 -0.0877
13428TIP3    H161775   4.160   1.024   2.435 -0.3391 -2.0526  0.3643
13428TIP3    H261776   4.065   1.057   2.548 -0.3354 -0.3232 -0.1113
13429TIP3   OH261777   0.634   4.190   0.864  0.2456  0.2569  0.1153
13429TIP3    H161778   0.690   4.258   0.901 -0.6548  0.3808  1.3403
13429TIP3    H261779   0.583   4.234   0.796  0.0954  0.6729  0.4922
13430TIP3   OH261780   6.484   0.336   3.077 -0.8918  0.2180 -0.2823
13430TIP3    H161781   6.544   0.287   3.133 -0.5779  1.2812  0.3445
13430TIP3    H261782   6.398   0.325   3.118 -0.9930 -0.5981 -0.6972
13431TIP3   OH261783   0.016   0.858   4.696  0.0484  0.2993 -0.2386
13431TIP3    H161784   0.035   0.824   4.609 -1.4428 -1.5847  0.0937
13431TIP3    H261785   0.079   0.929   4.709 -0.8291  1.9164 -3.5537
13432TIP3   OH261786   0.220   4.328  13.037  0.5172  0.8268 -0.0116
13432TIP3    H161787   0.279   4.341  13.112  0.3379  2.4093 -0.1115
13432TIP3    H261788   0.187   4.415  13.017  0.0541  0.3335 -1.5389
13433TIP3   OH261789   5.163   3.707  15.039  0.1264 -0.3781  0.2134
13433TIP3    H161790   5.228   3.702  14.969 -0.3721  0.1981 -0.2971
13433TIP3    H261791   5.146   3.615  15.062  0.6005 -0.5562 -0.1271
13434TIP3   OH261792   5.982   4.423   3.719 -0.2331 -0.2330 -0.2868
13434TIP3    H161793   5.998   4.330   3.702  1.0572  0.0348 -0.6962
13434TIP3    H261794   6.024   4.440   3.803 -1.3881 -0.2375  0.3072
13435TIP3   OH261795   2.603   4.180  15.240  0.1109 -0.4464  0.3164
13435TIP3    H161796   2.565   4.259  15.201  1.3113  0.7668  1.4867
13435TIP3    H261797   2.557   4.171  15.324  0.1595 -0.8594  0.2997
13436TIP3   OH261798   0.930   5.480   1.307  0.5252  0.4623  0.5524
13436TIP3    H161799   0.990   5.429   1.360 -0.5524 -2.4226 -0.8175
13436TIP3    H261800   0.980   5.501   1.228  0.5176  0.2563  0.4930
13437TIP3   OH261801   2.399   1.213   2.330  1.0050  0.2246 -0.2204
13437TIP3    H161802   2.426   1.290   2.280  3.2718 -0.0873  0.4101
13437TIP3    H261803   2.413   1.140   2.271  0.9944  0.1035 -0.0734
13438TIP3   OH261804   5.036   5.714   3.715 -0.5644  0.2892  0.3342
13438TIP3    H161805   4.992   5.740   3.796 -0.7300  0.6391  0.1317
13438TIP3    H261806   5.013   5.782   3.652 -0.7504 -0.1872 -0.1175
13439TIP3   OH261807   2.428   3.845   3.163  0.0840  0.4871  0.5947
13439TIP3    H161808   2.367   3.891   3.106  0.0184 -1.9414 -1.5207
13439TIP3    H261809   2.376   3.820   3.240 -0.6847  1.1906  0.3133
13440TIP3   OH261810   1.887   6.143   2.557 -0.1787  0.2320 -0.4268
13440TIP3    H161811   1.943   6.162   2.633  1.3443 -1.2208 -1.1092
13440TIP3    H261812   1.946   6.150   2.482 -2.1069  3.8067 -1.8333
13441TIP3   OH261813   6.313   4.226  11.275  0.1743 -0.4297  0.2050
13441TIP3    H161814   6.383   4.258  11.219 -0.3490  0.3188 -0.0378
13441TIP3    H261815   6.234   4.270  11.243 -0.1154  0.1284  1.6061
13442TIP3   OH261816   3.126   4.413   1.615  0.4044  0.0315  0.8111
13442TIP3    H161817   3.112   4.412   1.709 -0.9014 -0.6975  0.6253
13442TIP3    H261818   3.163   4.499   1.597 -2.0376  1.3367  1.6359
13443TIP3   OH261819   3.106   5.069  14.988 -0.0799  0.1689 -0.0713
13443TIP3    H161820   3.132   5.161  14.990 -0.0570  0.1674  1.4276
13443TIP3    H261821   3.174   5.025  14.937 -1.2832  1.2752 -2.8051
13444TIP3   OH261822   3.443   4.534  10.398  0.4408  0.1246 -0.4139
13444TIP3    H161823   3.505   4.495  10.459 -0.4136  0.0539  0.4300
13444TIP3    H261824   3.491   4.541  10.316  1.3999 -0.3863  0.0931
13445TIP3   OH261825   5.043   6.181   3.717 -1.1518 -0.4697 -0.5333
13445TIP3    H161826   5.067   6.093   3.748  2.0778 -0.1594 -1.6724
13445TIP3    H261827   5.008   6.225   3.794  2.0830 -1.1957  1.5852
13446TIP3   OH261828   4.320   4.887  13.269  0.0699  0.1550 -0.4613
13446TIP3    H161829   4.260   4.861  13.199 -1.2678 -1.4383  1.2088
13446TIP3    H261830   4.341   4.805  13.314  1.8799  0.9859  0.2823
13447TIP3   OH261831   3.125   6.462   0.858  0.1589 -0.2258  0.1662
13447TIP3    H161832   3.135   6.380   0.809 -1.1298 -0.9564  1.0504
13447TIP3    H261833   3.052   6.506   0.815  0.6991  0.3654 -0.1589
13448TIP3   OH261834   5.812   1.661  12.990  0.0829  0.2366 -0.1526
13448TIP3    H161835   5.829   1.663  12.896 -0.9084  0.4879 -0.3436
13448TIP3    H261836   5.759   1.740  13.007 -1.0517 -0.5959  0.3281
13449TIP3   OH261837   6.416   5.403   2.905  0.1150 -0.0906 -0.3884
13449TIP3    H161838   6.400   5.348   2.828 -1.8612  0.9120 -0.7559
13449TIP3    H261839   6.473   5.350   2.961  2.4071 -0.5249 -2.8989
13450TIP3   OH261840   4.184   3.362   3.356  0.3343  0.2332  0.5046
13450TIP3    H161841   4.254   3.422   3.329  1.4104 -1.1540  0.1245
13450TIP3    H261842   4.213   3.276   3.326 -1.3867 -0.4320  0.6499
13451TIP3   OH261843   0.779   6.184  12.843  0.1732 -0.7227 -0.6128
13451TIP3    H161844   0.774   6.229  12.927 -0.5877 -0.7635 -0.6275
13451TIP3    H261845   0.721   6.109  12.853  0.3013 -0.8835 -1.0775
13452TIP3   OH261846   1.708   1.596  11.707  0.2943  0.2463 -0.7001
13452TIP3    H161847   1.717   1.686  11.675 -0.6524 -0.6902 -3.9462
13452TIP3    H261848   1.616   1.574  11.691  0.4385 -1.2051  0.3301
13453TIP3   OH261849   0.997   1.816   2.061  0.3439 -0.1637 -0.2679
13453TIP3    H161850   0.910   1.843   2.031 -0.0713 -0.4862  0.6241
13453TIP3    H261851   0.988   1.724   2.082  0.9536 -0.2393 -0.3194
13454TIP3   OH261852   4.572   3.482  14.893  0.1809  0.1379  0.6066
13454TIP3    H161853   4.634   3.473  14.965  1.5981  1.0470 -0.4606
13454TIP3    H261854   4.617   3.446  14.817 -1.3110 -0.8658  0.1414
13455TIP3   OH261855   6.267   4.619   4.654  0.2861 -0.3600 -0.0360
13455TIP3    H161856   6.349   4.586   4.690  1.4812  3.0588  0.7444
13455TIP3    H261857   6.214   4.643   4.730 -0.7972 -1.0051 -0.5507
13456TIP3   OH261858   4.359   0.143  10.436 -0.2522 -0.3830  0.2192
13456TIP3    H161859   4.268   0.140  10.464 -0.0711  0.1656  0.8926
13456TIP3    H261860   4.373   0.060  10.389 -1.4669  0.1117 -1.0938
13457TIP3   OH261861   1.313   2.925   4.836 -0.0931 -0.5363  0.1702
13457TIP3    H161862   1.264   2.846   4.858 -2.2842  0.5642 -0.4463
13457TIP3    H261863   1.261   2.967   4.767  0.5737  1.8145  0.9888
13458TIP3   OH261864   4.391   3.429   5.024  0.1141 -0.0590  0.1236
13458TIP3    H161865   4.418   3.474   4.944 -1.3808  0.8804  0.1081
13458TIP3    H261866   4.410   3.491   5.094 -0.4212 -0.0609  0.2761
13459TIP3   OH261867   5.659   1.393  13.029 -0.3602 -0.0642  0.0146
13459TIP3    H161868   5.592   1.431  12.972  1.9169  2.6984 -1.0497
13459TIP3    H261869   5.698   1.323  12.977  0.4090  1.1638 -1.0953
13460TIP3   OH261870   6.598   0.667  12.210 -0.0031 -0.1020  0.0955
13460TIP3    H161871   6.668   0.693  12.150  0.1742  1.8833  1.0816
13460TIP3    H261872   6.625   0.702  12.295 -2.2462  0.9041  0.4722
13461TIP3   OH261873   2.612   3.179  13.950 -0.2493 -0.4910 -0.2346
13461TIP3    H161874   2.648   3.264  13.972  1.0324 -1.1507  0.3468
13461TIP3    H261875   2.595   3.183  13.856 -2.4248  1.1628  0.1564
13462TIP3   OH261876   1.939   1.393   5.438  0.2798 -0.5167  0.0247
13462TIP3    H161877   1.923   1.415   5.346 -0.3774  0.1527  0.2953
13462TIP3    H261878   2.029   1.359   5.438  0.3467 -0.3803 -0.8333
13463TIP3   OH261879   0.217   4.216   2.877 -0.1007  0.4970  0.5022
13463TIP3    H161880   0.284   4.201   2.810 -0.9009 -1.6158  0.0963
13463TIP3    H261881   0.146   4.259   2.830  0.2941  1.2401  0.5677
13464TIP3   OH261882   4.048   3.132  12.252  0.0187 -0.4198 -0.1176
13464TIP3    H161883   3.973   3.135  12.192 -0.2965  0.0079  0.2932
13464TIP3    H261884   4.012   3.100  12.334  0.7761 -2.7193 -0.5990
13465TIP3   OH261885   3.881   3.076   5.920  0.0332  0.2307  0.0689
13465TIP3    H161886   3.973   3.097   5.931  0.9763 -2.6070 -1.5397
13465TIP3    H261887   3.839   3.107   6.001  2.3401  1.5635  0.8381
13466TIP3   OH261888   5.421   0.935  11.823 -0.1888 -0.0483 -0.6999
13466TIP3    H161889   5.402   0.866  11.759 -2.4649 -0.3369  0.1940
13466TIP3    H261890   5.388   0.900  11.906 -0.3744  1.6649 -0.0098
13467TIP3   OH261891   4.509   2.582  11.478 -0.3726 -0.4692  0.1174
13467TIP3    H161892   4.595   2.559  11.444  0.3956 -0.1881  1.7710
13467TIP3    H261893   4.481   2.657  11.426  0.8998  0.1530  0.3079
13468TIP3   OH261894   4.510   6.519  13.868 -0.0498  0.2664 -0.3104
13468TIP3    H161895   4.429   6.535  13.820 -1.1767 -0.1753  1.3380
13468TIP3    H261896   4.528   6.601  13.914  0.7380  0.5279 -1.0689
13469TIP3   OH261897   3.263   5.031  12.036  0.0382 -0.2782 -0.0419
13469TIP3    H161898   3.245   5.025  11.942 -1.9874  1.9778  0.0894
13469TIP3    H261899   3.203   4.968  12.077  0.4647 -0.8014 -0.2207
13470TIP3   OH261900   4.705   5.621   4.207  0.1103 -0.3787 -0.3939
13470TIP3    H161901   4.768   5.687   4.177  1.0877 -1.5090 -0.9276
13470TIP3    H261902   4.651   5.666   4.271  0.1973  1.1674 -1.3718
13471TIP3   OH261903   0.230   2.255  15.610  0.6662 -0.7769 -0.1492
13471TIP3    H161904   0.159   2.206  15.651  0.8254 -0.7318  0.1860
13471TIP3    H261905   0.262   2.314  15.680 -0.1359  0.4710 -0.7954
13472TIP3   OH261906   3.816   2.996  17.058 -0.1098  0.0433 -0.0153
13472TIP3    H161907   3.874   2.929  17.021 -2.0489 -2.2821  0.8925
13472TIP3    H261908   3.817   3.067  16.994 -0.2594 -2.1038 -2.5673
13473TIP3   OH261909   2.151   3.219  17.147 -0.9459  0.5054  0.2717
13473TIP3    H161910   2.190   3.305  17.129  0.6634  0.2310  2.0830
13473TIP3    H261911   2.151   3.175  17.062 -0.0615  1.6345 -0.3518
13474TIP3   OH261912   3.752   4.528  11.375  0.8381  0.2536  0.3037
13474TIP3    H161913   3.698   4.528  11.453 -0.1139  0.1910 -0.3420
13474TIP3    H261914   3.700   4.480  11.310  2.0307 -0.5721 -0.0815
13475TIP3   OH261915   6.824   0.852   1.103 -0.2541  0.1907 -0.2049
13475TIP3    H161916   6.887   0.811   1.043 -0.3041 -0.6612  0.2971
13475TIP3    H261917   6.872   0.858   1.186 -1.0594 -1.2016  0.4009
13476TIP3   OH261918   0.987   0.621   4.571 -0.4949  0.0263  0.0549
13476TIP3    H161919   1.034   0.540   4.552 -2.6382 -0.9197 -1.5742
13476TIP3    H261920   0.930   0.600   4.645  0.2128  0.6039  0.7821
13477TIP3   OH261921   2.420   4.603  16.496 -0.0005  0.2748  0.1501
13477TIP3    H161922   2.333   4.562  16.495 -0.2332  0.7298 -1.9915
13477TIP3    H261923   2.450   4.591  16.586 -1.2213 -2.0984  0.3280
13478TIP3   OH261924   4.742   0.334   4.326 -0.2351 -1.2546 -0.6063
13478TIP3    H161925   4.740   0.423   4.289 -0.7242 -0.5075  1.1026
13478TIP3    H261926   4.737   0.348   4.421  1.2839 -3.0577 -0.2015
13479TIP3   OH261927   6.527   0.071  16.901  0.3580  0.1443  0.5936
13479TIP3    H161928   6.485   0.133  16.841 -0.5805 -1.0939 -0.0872
13479TIP3    H261929   6.600   0.036  16.850  0.6802  0.4376  0.8534
13480TIP3   OH261930   6.255   0.508   5.823 -0.1310 -0.2556 -0.2326
13480TIP3    H161931   6.168   0.487   5.859 -1.5028 -0.3707 -3.2982
13480TIP3    H261932   6.239   0.522   5.730  2.7182  2.5703 -0.4542
13481TIP3   OH261933   2.309   6.672  16.214 -0.8522  0.4894  0.2496
13481TIP3    H161934   2.355   6.756  16.216 -3.8019  2.2096  1.1023
13481TIP3    H261935   2.289   6.654  16.306  2.3621 -2.8856  0.5499
13482TIP3   OH261936   6.198   0.424   4.329  0.5144  0.0426  0.3784
13482TIP3    H161937   6.200   0.483   4.405  0.2062 -0.3296  0.6793
13482TIP3    H261938   6.130   0.461   4.273 -0.1107 -0.3768  0.8556
13483TIP3   OH261939   4.919   1.063   2.256 -0.6361  0.0168 -0.5289
13483TIP3    H161940   4.850   1.055   2.322 -0.2628  3.0215  0.3952
13483TIP3    H261941   4.876   1.039   2.174 -2.1927 -0.2343  0.3149
13484TIP3   OH261942   3.294   0.765   5.403  0.1029 -0.1817 -0.4002
13484TIP3    H161943   3.304   0.840   5.345  1.5795  0.7164  0.9482
13484TIP3    H261944   3.225   0.791   5.464 -0.3657 -0.5069 -0.7811
13485TIP3   OH261945   0.283   2.946   4.332  0.2783 -0.1185 -0.1365
13485TIP3    H161946   0.294   3.004   4.256 -0.2355  0.0394 -0.0990
13485TIP3    H261947   0.370   2.911   4.349  0.4233 -0.0514 -0.7188
13486TIP3   OH261948   2.095   0.871  12.972  0.0428 -0.0583  0.0130
13486TIP3    H161949   2.063   0.937  13.034 -1.6021  2.2944 -3.0596
13486TIP3    H261950   2.159   0.918  12.919  0.0098 -1.4127 -1.2708
13487TIP3   OH261951   4.991   1.073   3.813 -0.3819  0.3415  0.1578
13487TIP3    H161952   5.033   1.018   3.879 -0.5615 -1.0850 -0.8645
13487TIP3    H261953   4.913   1.023   3.788 -1.4397  1.8381  0.3467
13488TIP3   OH261954   4.911   4.003   0.532  0.3302  0.1841 -0.2123
13488TIP3    H161955   4.941   4.094   0.535  0.0404  0.4265 -2.8339
13488TIP3    H261956   4.817   4.009   0.515  0.4291 -0.5733 -1.1295
13489TIP3   OH261957   5.534   0.912   3.987 -0.4999 -0.1466  0.8972
13489TIP3    H161958   5.482   0.980   3.944  0.2634  0.1547  0.4142
13489TIP3    H261959   5.610   0.959   4.022  0.0676 -0.7435  0.5022
13490TIP3   OH261960   2.414   5.710  12.350  0.1111 -0.0005  0.1922
13490TIP3    H161961   2.473   5.779  12.382  0.5478 -0.3185  0.0847
13490TIP3    H261962   2.425   5.638  12.412 -0.1626 -0.0627  0.1681
13491TIP3   OH261963   1.873   4.032  13.215  0.4045  0.0295  0.0258
13491TIP3    H161964   1.917   3.999  13.294 -1.9784  0.8426  1.8039
13491TIP3    H261965   1.924   4.109  13.189  1.4310 -0.4635  0.5090
13492TIP3   OH261966   2.038   0.228   0.109  0.2332  0.3503 -0.2760
13492TIP3    H161967   2.022   0.211   0.016  0.2614  0.7721 -0.3622
13492TIP3    H261968   1.968   0.288   0.135 -0.6185 -0.8703  0.3431
13493TIP3   OH261969   2.937   5.230  15.208  0.7063  0.0335 -0.0998
13493TIP3    H161970   2.938   5.171  15.283 -3.2200  0.8539  0.8317
13493TIP3    H261971   2.907   5.176  15.135 -0.9079  0.3361  0.2931
13494TIP3   OH261972   0.359   3.183   2.465  0.1115  0.1644  0.1944
13494TIP3    H161973   0.415   3.248   2.422 -1.1486  1.3113  0.1970
13494TIP3    H261974   0.298   3.155   2.397  1.7733 -2.4824 -0.3336
13495TIP3   OH261975   6.651   6.357   3.094 -0.2055 -0.5741  0.0574
13495TIP3    H161976   6.622   6.378   3.005 -1.5557  0.1309  0.6356
13495TIP3    H261977   6.632   6.263   3.104 -0.4638 -0.5555 -0.2496
13496TIP3   OH261978   4.872   2.575   0.027  0.2934 -0.0243 -0.0925
13496TIP3    H161979   4.790   2.544   0.064  0.6574 -1.1746 -0.2133
13496TIP3    H261980   4.892   2.514  -0.044  0.6014  1.0060 -0.9195
13497TIP3   OH261981   0.909   3.873   0.518 -0.2173 -0.2826  0.2501
13497TIP3    H161982   0.851   3.940   0.553 -3.1664 -1.7654 -1.3411
13497TIP3    H261983   0.912   3.805   0.586 -2.0341 -1.0313 -0.3403
13498TIP3   OH261984   2.417   2.161   2.059  0.0839 -0.0966  0.1098
13498TIP3    H161985   2.329   2.199   2.052 -0.9543 -2.2026  0.6358
13498TIP3    H261986   2.457   2.206   2.133  0.0374  1.9112 -1.0313
13499TIP3   OH261987   4.126   2.027  15.098 -0.1195  0.3986 -0.0270
13499TIP3    H161988   4.086   2.090  15.159 -1.5990  0.5688 -1.0975
13499TIP3    H261989   4.200   1.991  15.146 -1.1002  0.6527  1.8092
13500TIP3   OH261990   2.942   4.783   0.587  0.5200  0.3439 -0.5335
13500TIP3    H161991   2.933   4.875   0.561  0.0374  0.2732 -0.6231
13500TIP3    H261992   3.025   4.755   0.548  1.5605  1.2352  0.9534
13501TIP3   OH261993   4.571   5.039   5.049 -0.1759 -0.7679 -0.0640
13501TIP3    H161994   4.552   4.965   5.107 -0.9623  0.1811  0.9275
13501TIP3    H261995   4.656   5.072   5.079 -0.6510 -0.1842  0.6835
13502TIP3   OH261996   2.069   1.366  11.010  0.0919  0.1046 -0.3118
13502TIP3    H161997   2.119   1.403  10.937  0.6136  3.4846  1.5612
13502TIP3    H261998   2.134   1.320  11.063  0.4249  0.7212 -0.1707
13503TIP3   OH261999   4.577   2.149  12.687  0.1001 -0.3875  0.1932
13503TIP3    H162000   4.630   2.110  12.618  1.6883  1.0917  0.5261
13503TIP3    H262001   4.591   2.093  12.763  1.1983 -0.0303  0.2705
13504TIP3   OH262002   5.054   3.476   5.947 -0.0242  0.2606  0.6765
13504TIP3    H162003   5.020   3.532   6.017  1.8226  2.2154  0.1333
13504TIP3    H262004   5.020   3.516   5.866 -0.9747 -1.1285  0.3594
13505TIP3   OH262005   1.110   0.937   3.934 -0.3763 -0.5389 -0.0488
13505TIP3    H162006   1.054   0.990   3.877  0.3258 -0.9517 -1.1547
13505TIP3    H262007   1.152   1.001   3.991 -2.6812 -0.2920  1.5138
13506TIP3   OH262008   3.222   1.171   0.143 -0.3764 -1.0981  0.2136
13506TIP3    H162009   3.245   1.262   0.161  0.2499 -1.3664  0.7889
13506TIP3    H262010   3.285   1.142   0.077 -0.6644 -1.0776 -0.0743
13507TIP3   OH262011   2.349   0.701   1.191 -0.0926 -0.3047 -0.0232
13507TIP3    H162012   2.288   0.770   1.216  0.7793  0.0886  1.0837
13507TIP3    H262013   2.301   0.620   1.205 -0.8746  0.0338 -0.6400
13508TIP3   OH262014   5.936   2.723   0.280  0.5876 -0.0578  0.5086
13508TIP3    H162015   5.982   2.643   0.253 -0.0759 -0.6876  1.1589
13508TIP3    H262016   5.930   2.776   0.201  0.3864 -0.9936 -0.1311
13509TIP3   OH262017   3.776   3.925   5.354 -0.0820 -0.0510 -0.3901
13509TIP3    H162018   3.810   3.841   5.386  0.4034  0.4809  0.5156
13509TIP3    H262019   3.812   3.990   5.414  0.2224  0.8967 -1.5747
13510TIP3   OH262020   3.082   1.831  11.729 -0.6032 -0.2057  0.5171
13510TIP3    H162021   3.030   1.750  11.732 -2.3925  0.8796  0.1801
13510TIP3    H262022   3.146   1.816  11.659 -1.1591 -1.1899  0.2053
13511TIP3   OH262023   3.761   6.535   4.629 -0.2049 -0.0387 -0.2558
13511TIP3    H162024   3.738   6.626   4.647  1.3336  0.4787 -0.7953
13511TIP3    H262025   3.724   6.517   4.543  1.6418  0.9231 -1.3125
13512TIP3   OH262026   6.484   6.250  11.692 -0.4263  0.0230 -0.3186
13512TIP3    H162027   6.413   6.201  11.731 -1.8718  1.8418 -0.5331
13512TIP3    H262028   6.519   6.192  11.624  1.0891 -2.5527  2.4361
13513TIP3   OH262029   0.950   2.344   5.603 -0.5492  0.4979  0.2566
13513TIP3    H162030   0.955   2.428   5.558 -0.6169  0.3343 -0.0543
13513TIP3    H262031   1.024   2.294   5.568 -1.5691 -0.2332 -0.8990
13514TIP3   OH262032   6.465   0.125  14.549  0.0536  0.1667  0.0923
13514TIP3    H162033   6.440   0.049  14.498  0.9577 -0.3335  0.3782
13514TIP3    H262034   6.393   0.137  14.612 -0.3806 -0.0722 -0.3595
13515TIP3   OH262035   5.409   4.473  13.418  0.4210  0.0226  0.2322
13515TIP3    H162036   5.455   4.390  13.402 -3.1018 -2.1576  0.3512
13515TIP3    H262037   5.430   4.494  13.509  0.6107 -1.3043  0.5178
13516TIP3   OH262038   5.550   3.322  16.563  0.4457 -0.2986  0.5102
13516TIP3    H162039   5.635   3.298  16.600  0.8865 -1.9211 -1.4120
13516TIP3    H262040   5.486   3.289  16.627  1.2049 -0.1383  1.3864
13517TIP3   OH262041   1.577   3.435  17.110  0.2182 -0.1918 -0.5610
13517TIP3    H162042   1.605   3.505  17.052  1.0200  1.8407  2.1367
13517TIP3    H262043   1.653   3.377  17.116  0.4539  0.0900 -0.7710
13518TIP3   OH262044   1.916   6.824   3.644 -0.0635  0.1549  0.0495
13518TIP3    H162045   1.926   6.751   3.583  2.7991  0.9751 -0.5720
13518TIP3    H262046   1.986   6.884   3.622 -1.0694  2.1515  1.9213
13519TIP3   OH262047   5.337   2.446  11.474 -0.1422 -0.2310 -0.1319
13519TIP3    H162048   5.287   2.513  11.427 -0.5420 -0.3302  0.1433
13519TIP3    H262049   5.348   2.375  11.411  0.5406  0.2153 -0.5217
13520TIP3   OH262050   5.339   5.960   1.809  0.3018 -0.1668  0.1926
13520TIP3    H162051   5.340   5.910   1.728 -2.7757  0.2128 -0.2031
13520TIP3    H262052   5.268   5.922   1.860  1.1209  0.6453  2.0377
13521TIP3   OH262053   6.146   3.302   5.405 -0.7685 -0.2637  0.1256
13521TIP3    H162054   6.146   3.332   5.314  0.2457 -2.2395 -0.5865
13521TIP3    H262055   6.233   3.267   5.419 -1.7737 -2.6814  0.8821
13522TIP3   OH262056   2.643   2.678  13.009  0.0612  0.1555  0.1110
13522TIP3    H162057   2.616   2.648  13.095  0.6312 -0.1693  0.1811
13522TIP3    H262058   2.683   2.601  12.968  1.2000  0.6954  0.1483
13523TIP3   OH262059   5.959   5.347   0.248 -0.0465  0.4556  0.1853
13523TIP3    H162060   5.980   5.254   0.256  0.7506  0.3419 -2.3097
13523TIP3    H262061   6.018   5.390   0.310  0.6477 -0.6132  0.2911
13524TIP3   OH262062   0.224   2.019   3.441  0.6576 -0.0607 -0.0069
13524TIP3    H162063   0.226   1.957   3.368 -0.9198  1.2189 -1.1936
13524TIP3    H262064   0.157   2.082   3.417  1.2508  1.3349  1.8173
13525TIP3   OH262065   2.048   4.978   5.585 -0.0734  0.6387 -0.1515
13525TIP3    H162066   2.061   5.056   5.531 -0.8851  2.4398  2.1148
13525TIP3    H262067   1.989   5.006   5.655 -0.5412 -2.0759  0.6736
13526TIP3   OH262068   3.931   3.878   1.223 -0.6021 -0.0982 -1.2244
13526TIP3    H162069   3.917   3.790   1.187 -1.2386 -1.3433  1.7679
13526TIP3    H262070   4.022   3.878   1.251 -0.9668 -0.3243 -0.0010
13527TIP3   OH262071   2.001   4.839   4.833 -0.1976 -0.7551  0.5318
13527TIP3    H162072   1.932   4.891   4.874 -0.4115 -0.4619 -0.1801
13527TIP3    H262073   1.957   4.791   4.763  0.2259 -0.9587  0.4001
13528TIP3   OH262074   0.650   3.834   4.270  0.1314 -0.2747 -0.7795
13528TIP3    H162075   0.614   3.748   4.245 -1.0064 -0.0994  0.1882
13528TIP3    H262076   0.627   3.892   4.198 -1.3832 -0.2160 -0.2727
13529TIP3   OH262077   5.586   6.097  16.446 -0.3897 -0.2790 -0.1941
13529TIP3    H162078   5.627   6.157  16.508  0.0340 -1.3850  0.6267
13529TIP3    H262079   5.647   6.094  16.372 -1.5414  2.0966 -1.3589
13530TIP3   OH262080   1.614   6.346  12.012 -0.1233 -0.6525  0.1252
13530TIP3    H162081   1.539   6.379  12.062 -1.8140 -1.4182 -1.7090
13530TIP3    H262082   1.658   6.284  12.071  0.5388  1.5543  2.0759
13531TIP3   OH262083   0.581   6.471  15.408 -0.0012 -0.0840  0.2471
13531TIP3    H162084   0.630   6.550  15.389  0.2131 -0.2830 -0.0407
13531TIP3    H262085   0.499   6.481  15.360  0.1517 -0.1700 -0.0340
13532TIP3   OH262086   6.065   4.686  16.229 -0.3699 -0.3926 -0.1016
13532TIP3    H162087   5.978   4.646  16.226 -0.7768  0.5157 -2.2717
13532TIP3    H262088   6.097   4.681  16.139  1.2284  0.5854  0.3685
13533TIP3   OH262089   5.167   5.922  14.174 -0.1396 -0.5634  0.2586
13533TIP3    H162090   5.148   5.829  14.159  1.0828 -0.8282  0.1960
13533TIP3    H262091   5.084   5.967  14.159 -0.4760 -1.5239 -0.9016
13534TIP3   OH262092   6.246   6.125   2.374  0.1983  0.6818 -0.3637
13534TIP3    H162093   6.163   6.130   2.421 -0.9645  0.1705 -2.2868
13534TIP3    H262094   6.304   6.079   2.435 -0.8878  1.0896  1.0378
13535TIP3   OH262095   0.998   3.790   0.221 -0.2000 -0.1053 -0.0744
13535TIP3    H162096   1.084   3.748   0.233 -0.3385 -0.7313 -1.1817
13535TIP3    H262097   0.962   3.796   0.310  0.9221  0.0285  0.3846
13536TIP3   OH262098   5.928   6.514  11.612 -0.2385 -0.1262 -0.3584
13536TIP3    H162099   6.006   6.570  11.615  0.6652 -1.3715  0.3692
13536TIP3    H262100   5.883   6.539  11.531  1.4246 -0.0427 -1.2912
13537TIP3   OH262101   5.140   2.216   3.660 -0.4198  0.0253  0.8425
13537TIP3    H162102   5.152   2.127   3.626 -0.3931 -0.2615  1.5931
13537TIP3    H262103   5.088   2.260   3.593  0.7484 -0.1303 -0.2123
13538TIP3   OH262104   4.629   1.185   4.915  0.5488 -0.3385 -0.1187
13538TIP3    H162105   4.618   1.139   4.998  2.3125  1.6947  1.3504
13538TIP3    H262106   4.570   1.140   4.855 -1.1472 -1.6187  2.3268
13539TIP3   OH262107   1.461   4.887  14.290  0.0754  0.8505  0.2189
13539TIP3    H162108   1.395   4.931  14.237 -2.6221 -0.1525  2.5037
13539TIP3    H262109   1.489   4.953  14.353  1.8742  1.4721 -1.1399
13540TIP3   OH262110   0.497   6.586  16.192  0.1045 -0.0667 -0.6990
13540TIP3    H162111   0.499   6.606  16.099 -0.3754  0.2140 -0.6480
13540TIP3    H262112   0.418   6.629  16.225 -0.9489 -1.9755 -0.5706
13541TIP3   OH262113   1.660   3.021   5.936  0.0073 -0.2688 -0.0198
13541TIP3    H162114   1.668   3.018   6.032  1.0510 -1.5185 -0.1211
13541TIP3    H262115   1.699   2.939   5.906 -1.0580 -0.2760 -1.4903
13542TIP3   OH262116   2.484   4.967   1.579 -0.4214  0.7213 -0.1848
13542TIP3    H162117   2.401   4.988   1.621 -0.2160  0.6349  0.2744
13542TIP3    H262118   2.501   4.876   1.605 -1.1608  0.0337 -1.8974
13543TIP3   OH262119   1.285   2.934  13.986 -0.1808  0.0521  0.7577
13543TIP3    H162120   1.365   2.890  14.014  0.2393 -0.4617 -1.1530
13543TIP3    H262121   1.280   2.919  13.892 -2.0685  0.8327  0.6818
13544TIP3   OH262122   1.368   5.932   5.771  0.0342  0.8971 -0.1942
13544TIP3    H162123   1.374   6.020   5.735  2.0193  0.3171 -1.4400
13544TIP3    H262124   1.459   5.908   5.789 -0.4986 -0.8105  0.3802
13545TIP3   OH262125   1.020   5.193  10.774 -0.1499 -0.0471  0.1161
13545TIP3    H162126   1.110   5.215  10.796 -0.6678  0.8645  1.4316
13545TIP3    H262127   1.028   5.132  10.701  1.4766  1.0825 -0.7122
13546TIP3   OH262128   2.193   2.272   1.448 -0.4223  0.0841 -0.0124
13546TIP3    H162129   2.130   2.246   1.380 -1.7042 -2.0101  1.8472
13546TIP3    H262130   2.138   2.304   1.520  0.7871  0.3929  0.7937
13547TIP3   OH262131   4.560   3.882  14.523 -0.3507  0.3862  0.1925
13547TIP3    H162132   4.610   3.949  14.476  0.3935 -0.1753  0.1723
13547TIP3    H262133   4.622   3.846  14.587 -0.4851 -0.8517 -0.3444
13548TIP3   OH262134   6.176   5.430   2.664 -0.3358 -0.3074 -0.1876
13548TIP3    H162135   6.197   5.353   2.612  0.7547 -1.8127  2.3033
13548TIP3    H262136   6.112   5.400   2.728  0.1693  0.8085  0.8922
13549TIP3   OH262137   0.564   4.007  16.180 -0.2190 -0.1848  0.0305
13549TIP3    H162138   0.583   3.978  16.091 -0.3973  0.7799 -0.3372
13549TIP3    H262139   0.584   4.101  16.179  0.0167 -0.2092  1.0752
13550TIP3   OH262140   4.162   3.637   4.078 -0.4282  0.5391 -0.2097
13550TIP3    H162141   4.113   3.576   4.023  1.3862  0.3122 -1.6937
13550TIP3    H262142   4.254   3.619   4.057  0.2702  1.6455  1.6643
13551TIP3   OH262143   0.356   2.722   2.502 -0.8596  0.1060 -0.6257
13551TIP3    H162144   0.300   2.659   2.457  0.3999 -2.6292  1.3251
13551TIP3    H262145   0.358   2.691   2.593  0.8714  2.2710  0.1695
13552TIP3   OH262146   2.374   1.443  12.948  0.1794  0.2741  0.1338
13552TIP3    H162147   2.351   1.352  12.928 -0.4722  0.2867  0.7789
13552TIP3    H262148   2.456   1.458  12.901  0.3573 -0.6856  0.1209
13553TIP3   OH262149   5.999   5.086  15.967  0.2514 -0.6939  0.1620
13553TIP3    H162150   5.939   5.137  15.913  0.5524 -0.4743  0.0337
13553TIP3    H262151   5.947   5.060  16.043 -0.3955 -1.6412 -0.5868
13554TIP3   OH262152   1.909   3.764  13.535 -0.3141 -0.5401  0.2639
13554TIP3    H162153   1.949   3.733  13.617  0.8007 -0.9084 -0.4037
13554TIP3    H262154   1.890   3.857  13.552 -2.4715 -1.1814  1.8096
13555TIP3   OH262155   6.493   3.128  16.368 -0.3346 -0.2025  0.8221
13555TIP3    H162156   6.572   3.084  16.400 -0.6639 -0.4813  1.2607
13555TIP3    H262157   6.455   3.066  16.305  0.8814  0.7839 -0.9705
13556TIP3   OH262158   1.048   0.906  13.680 -0.1091 -0.5680  0.1517
13556TIP3    H162159   1.072   0.830  13.733  1.3018 -1.1152 -1.2281
13556TIP3    H262160   0.982   0.873  13.620 -0.9764 -0.1797  0.8532
13557TIP3   OH262161   0.714   2.945   0.492  0.4209 -0.3708 -0.1836
13557TIP3    H162162   0.783   2.979   0.549  0.9267 -1.0978 -0.3443
13557TIP3    H262163   0.753   2.868   0.451 -0.2396 -0.3650 -0.8440
13558TIP3   OH262164   1.461   6.682   3.985 -0.0761 -0.2503 -0.0994
13558TIP3    H162165   1.524   6.739   4.029 -1.8689  0.3329  1.8431
13558TIP3    H262166   1.513   6.608   3.955  1.1830 -1.1496  3.8229
13559TIP3   OH262167   0.192   0.560  15.934  0.2768 -0.1274 -0.2383
13559TIP3    H162168   0.154   0.641  15.898  0.8142  0.0110 -0.4994
13559TIP3    H262169   0.278   0.586  15.966  0.4514 -0.5943 -0.3180
13560TIP3   OH262170   0.543   0.685  11.724 -0.6322 -0.3880  0.7604
13560TIP3    H162171   0.559   0.735  11.644 -1.6853 -1.5074 -0.1950
13560TIP3    H262172   0.605   0.612  11.719 -0.7460 -0.4969  0.9361
13561TIP3   OH262173   5.458   3.543  14.439 -0.3086 -0.0522 -0.2329
13561TIP3    H162174   5.410   3.509  14.363  0.2422 -0.9243 -0.2143
13561TIP3    H262175   5.394   3.540  14.510 -0.2988 -1.0384 -0.2464
13562TIP3   OH262176   2.075   0.524   4.793  0.2540  0.3877 -0.2880
13562TIP3    H162177   2.084   0.487   4.705  1.2780  1.8858 -0.8601
13562TIP3    H262178   2.096   0.452   4.852  0.2198 -0.4567 -1.2760
13563TIP3   OH262179   4.046   3.148   6.504 -0.3520  0.0170  0.0327
13563TIP3    H162180   4.114   3.130   6.569  0.8949 -0.8551 -1.4428
13563TIP3    H262181   4.082   3.220   6.452 -1.3593  0.7429  0.3091
13564TIP3   OH262182   0.351   5.506  11.740 -0.2958  0.0830  0.3531
13564TIP3    H162183   0.309   5.496  11.654 -0.9687  1.6819  0.4605
13564TIP3    H262184   0.437   5.465  11.730 -0.6562 -0.4124 -0.8535
13565TIP3   OH262185   2.015   3.998   6.032  0.1743  0.4277  0.0917
13565TIP3    H162186   2.096   3.949   6.020 -0.1370 -0.5913  1.7815
13565TIP3    H262187   1.949   3.947   5.984 -0.3016 -1.3617  2.4857
13566TIP3   OH262188   3.935   3.253  11.351 -0.0095 -0.4388  0.5750
13566TIP3    H162189   3.893   3.236  11.266  2.1783 -0.8669 -0.4871
13566TIP3    H262190   3.873   3.309  11.397 -1.1965 -0.0390 -1.3780
13567TIP3   OH262191   2.977   3.425  14.657  0.0006  0.0310  0.4825
13567TIP3    H162192   3.070   3.444  14.663  0.5819 -2.3703  0.0111
13567TIP3    H262193   2.962   3.354  14.720 -0.9543 -1.3095 -1.1419
13568TIP3   OH262194   2.713   0.563   2.798  0.5893 -0.3436 -0.0571
13568TIP3    H162195   2.685   0.472   2.797  1.8382 -0.7373 -1.4460
13568TIP3    H262196   2.807   0.560   2.812  0.7722  0.6871 -0.9120
13569TIP3   OH262197   4.091   2.073  16.078  0.5333  0.1107  0.1411
13569TIP3    H162198   4.154   2.037  16.015  1.2788  1.2700  0.1971
13569TIP3    H262199   4.134   2.150  16.114 -1.3643  1.6616 -0.6856
13570TIP3   OH262200   4.741   0.648  13.414  0.1306 -0.2137 -0.0068
13570TIP3    H162201   4.660   0.671  13.367 -1.7459 -1.5032  2.3990
13570TIP3    H262202   4.761   0.725  13.467  0.3418  0.0004 -0.3920
13571TIP3   OH262203   2.639   0.056  11.450  0.0306  0.1406 -0.2036
13571TIP3    H162204   2.679  -0.015  11.500 -0.4007 -0.1417 -0.2526
13571TIP3    H262205   2.600   0.012  11.374 -2.5279  0.0417  1.0883
13572TIP3   OH262206   6.249   1.531  11.799  0.0063 -0.2571 -0.2535
13572TIP3    H162207   6.220   1.513  11.710 -0.0421  0.6793 -0.4396
13572TIP3    H262208   6.315   1.464  11.817 -0.2251 -0.6561 -0.8686
13573TIP3   OH262209   3.125   1.017   0.673  0.1332  0.2897  0.1095
13573TIP3    H162210   3.202   1.001   0.617  0.0249 -2.0382  0.5128
13573TIP3    H262211   3.155   0.997   0.761 -0.8169 -0.2194  0.3244
13574TIP3   OH262212   1.012   5.524   0.432  0.2763 -0.0423  0.1294
13574TIP3    H162213   1.089   5.539   0.487 -0.6804  0.6538  1.3263
13574TIP3    H262214   1.036   5.560   0.347  1.8481 -1.2976 -0.0102
13575TIP3   OH262215   4.468   1.231   5.732 -0.2627  0.3376 -0.1143
13575TIP3    H162216   4.375   1.214   5.749  0.2603 -1.1935  1.4636
13575TIP3    H262217   4.473   1.327   5.727 -1.7573  0.5300  1.0227
13576TIP3   OH262218   5.454   6.182   1.619  0.0804 -0.2032 -0.0562
13576TIP3    H162219   5.523   6.163   1.682  0.8971 -0.2640 -0.9530
13576TIP3    H262220   5.389   6.113   1.633  0.4764 -0.4912  0.3858
13577TIP3   OH262221   6.592   2.372   2.276  0.3091  0.4781  0.0422
13577TIP3    H162222   6.631   2.457   2.254  0.9504  0.2845  0.3960
13577TIP3    H262223   6.644   2.340   2.350  0.9356 -0.8281 -0.9268
13578TIP3   OH262224   0.949   2.281   1.784 -0.5983  0.2641  0.5434
13578TIP3    H162225   1.001   2.292   1.704 -0.2427  0.4861  0.8019
13578TIP3    H262226   0.954   2.366   1.828 -1.1448  0.2750  0.5964
13579TIP3   OH262227   0.228   1.569  15.801 -0.2108  0.1701 -0.2306
13579TIP3    H162228   0.321   1.588  15.819 -0.3196 -0.1516  0.7354
13579TIP3    H262229   0.218   1.585  15.707  1.0053 -0.5380 -0.5073
13580TIP3   OH262230   6.555   6.660  12.516  0.4708  0.2360  0.2961
13580TIP3    H162231   6.562   6.565  12.524  1.6825  0.3196  0.3317
13580TIP3    H262232   6.485   6.673  12.452 -0.0774 -0.6603  0.6942
13581TIP3   OH262233   4.582   6.604   4.924  0.0976 -0.7201  0.0582
13581TIP3    H162234   4.536   6.553   4.991 -1.4815 -2.8061 -2.4189
13581TIP3    H262235   4.531   6.685   4.917  0.9778  0.0810  2.0873
13582TIP3   OH262236   4.326   1.398   5.365  0.1778  0.6061 -0.2144
13582TIP3    H162237   4.341   1.462   5.435 -0.1121  1.2064 -0.6933
13582TIP3    H262238   4.411   1.389   5.322  0.1279  0.9773 -0.3966
13583TIP3   OH262239   4.046   6.672  15.599 -0.4922 -0.2531  0.2854
13583TIP3    H162240   4.021   6.723  15.676 -2.1876 -0.0914 -0.3139
13583TIP3    H262241   4.030   6.581  15.625 -0.5561 -0.2356  0.3101
13584TIP3   OH262242   3.910   0.697  11.615  0.1345 -0.2261  0.0533
13584TIP3    H162243   3.953   0.621  11.577 -0.9332 -0.4553 -0.7450
13584TIP3    H262244   3.981   0.752  11.647  1.0046 -0.6948 -1.0297
13585TIP3   OH262245   2.308   0.302   1.936  0.1405  0.2329  0.2218
13585TIP3    H162246   2.244   0.238   1.964 -1.5496  0.3700 -2.8705
13585TIP3    H262247   2.383   0.250   1.906  0.7373 -0.0098  2.0302
13586TIP3   OH262248   3.369   4.799  16.213  0.2082 -0.1419 -0.2864
13586TIP3    H162249   3.327   4.885  16.209  1.1947  0.3406 -0.5272
13586TIP3    H262250   3.379   4.773  16.122 -1.6753 -1.3444 -0.2248
13587TIP3   OH262251   4.419   1.137   3.326 -0.1916 -0.1522  0.6347
13587TIP3    H162252   4.403   1.080   3.251 -2.8083  0.7754  0.3950
13587TIP3    H262253   4.503   1.179   3.307 -0.0848 -1.0479 -1.0203
13588TIP3   OH262254   5.585   3.965   4.365  0.1546 -0.1015  0.0159
13588TIP3    H162255   5.573   4.041   4.422 -1.2148  0.5177 -1.0210
13588TIP3    H262256   5.610   4.002   4.280  3.2060 -1.0623  0.3741
13589TIP3   OH262257   2.475   3.457   2.610 -0.3040  0.3169 -0.2444
13589TIP3    H162258   2.397   3.443   2.664  0.9018  2.7953  2.4454
13589TIP3    H262259   2.545   3.412   2.657  0.2079 -0.6329 -1.8377
13590TIP3   OH262260   5.907   0.854  14.153  0.0060 -0.3444 -0.2736
13590TIP3    H162261   5.916   0.945  14.126 -2.0078 -0.2976 -0.9963
13590TIP3    H262262   5.828   0.854  14.208 -0.8971 -1.8720 -1.4969
13591TIP3   OH262263   3.100   4.364  11.575 -0.1371  0.0353 -0.3205
13591TIP3    H162264   3.051   4.439  11.610  1.6032  1.7866 -1.4456
13591TIP3    H262265   3.043   4.329  11.506 -1.0622  0.1708  0.3572
13592TIP3   OH262266   6.021   1.379   5.410  0.1251  0.6316  0.2707
13592TIP3    H162267   5.973   1.461   5.423 -0.8335  0.0885  0.2693
13592TIP3    H262268   6.015   1.334   5.494 -1.1937 -0.3602 -0.3096
13593TIP3   OH262269   4.817   2.094  15.401  0.3257 -0.3603  0.1546
13593TIP3    H162270   4.780   2.182  15.392  0.4909 -0.4242 -1.5127
13593TIP3    H262271   4.805   2.054  15.315  1.9493 -1.2919  0.3123
13594TIP3   OH262272   3.887   3.859  11.615  0.1512  0.9466  0.5441
13594TIP3    H162273   3.928   3.854  11.702  0.0649 -0.0897  0.5341
13594TIP3    H262274   3.926   3.937  11.575  3.1884 -0.6984  0.0116
13595TIP3   OH262275   1.614   4.250   1.052 -0.3187  0.5506 -0.1547
13595TIP3    H162276   1.684   4.185   1.064 -2.5226 -2.9816 -3.7531
13595TIP3    H262277   1.545   4.222   1.112 -0.2597  1.3923  0.3208
13596TIP3   OH262278   0.023   3.301  12.970 -0.4590 -0.1900  0.1367
13596TIP3    H162279   0.041   3.300  12.876  0.3807 -1.0738  0.2928
13596TIP3    H262280   0.099   3.257  13.010 -1.2850 -0.7578  1.1373
13597TIP3   OH262281   0.917   4.398   4.033  0.0414 -0.5233 -0.5177
13597TIP3    H162282   0.946   4.470   4.089 -1.0129 -1.1128  0.8374
13597TIP3    H262283   0.981   4.328   4.050 -0.2999 -0.7149 -0.0100
13598TIP3   OH262284   3.568   4.945   1.389  0.5847 -0.2854 -0.3840
13598TIP3    H162285   3.657   4.933   1.356  0.4742 -0.4068 -0.6334
13598TIP3    H262286   3.514   4.888   1.335 -0.0034  1.5801 -1.8549
13599TIP3   OH262287   5.720   3.892  11.394 -0.3874  0.0412 -0.1907
13599TIP3    H162288   5.716   3.806  11.436 -0.6067  0.2039  0.1251
13599TIP3    H262289   5.768   3.947  11.456 -1.5536  0.5368  0.3098
13600TIP3   OH262290   2.239   4.167   2.364 -0.1048  0.1828 -0.0255
13600TIP3    H162291   2.303   4.137   2.428 -1.7243 -0.1357  1.5216
13600TIP3    H262292   2.253   4.110   2.288  1.2030 -0.0941  0.4076
13601TIP3   OH262293   5.763   4.361  13.266 -0.1680 -0.4415  0.0529
13601TIP3    H162294   5.777   4.306  13.189 -0.1069  0.2458 -0.4312
13601TIP3    H262295   5.850   4.374  13.303 -0.1224 -0.2568 -0.1196
13602TIP3   OH262296   0.049   5.197   0.829 -0.1086  0.3201 -0.1969
13602TIP3    H162297   0.076   5.271   0.774 -0.4890  0.0899 -0.6981
13602TIP3    H262298  -0.046   5.198   0.825 -0.2107  1.0568  1.4703
13603TIP3   OH262299   5.316   5.095   3.388  0.2358 -0.8891 -0.1860
13603TIP3    H162300   5.306   5.188   3.408 -2.1550 -1.4871  1.8915
13603TIP3    H262301   5.262   5.081   3.311  1.3607 -0.4398 -1.0911
13604TIP3   OH262302   5.345   6.688   1.850  0.0874 -0.4231 -0.0060
13604TIP3    H162303   5.396   6.613   1.820  0.9106 -0.3552  1.1174
13604TIP3    H262304   5.296   6.656   1.925  1.0736  0.3136  1.0045
13605TIP3   OH262305   6.637   5.853   1.921  0.1335 -0.0508 -0.4199
13605TIP3    H162306   6.592   5.771   1.945  0.6154 -0.8915 -2.2175
13605TIP3    H262307   6.719   5.851   1.970 -0.2196 -0.2483  0.1672
13606TIP3   OH262308   0.532   0.085  16.664  0.3814  0.1286 -0.9272
13606TIP3    H162309   0.437   0.074  16.653  0.2187  2.1108 -2.0128
13606TIP3    H262310   0.571   0.018  16.609 -0.4208  0.5674 -2.0516
13607TIP3   OH262311   4.936   0.829   0.550  0.0407 -0.4791  0.3258
13607TIP3    H162312   4.985   0.749   0.573 -0.1191 -0.4307  0.8643
13607TIP3    H262313   4.875   0.841   0.623 -0.5058 -0.3169 -0.1497
13608TIP3   OH262314   1.600   0.896   0.552 -0.1714  0.0815 -0.1828
13608TIP3    H162315   1.585   0.899   0.646 -0.1872  0.7279 -0.1985
13608TIP3    H262316   1.535   0.956   0.516 -0.1180 -0.1096 -0.6019
13609TIP3   OH262317   5.441   1.768  15.939  0.5348 -0.5807  0.1078
13609TIP3    H162318   5.463   1.675  15.944  0.8995 -0.6038 -1.4782
13609TIP3    H262319   5.512   1.812  15.986  0.8645 -1.0430  0.0519
13610TIP3   OH262320   0.540   4.360   5.001  0.0904  0.2878  0.3609
13610TIP3    H162321   0.607   4.399   5.058  2.3438  0.0492 -1.9558
13610TIP3    H262322   0.589   4.303   4.942 -2.3385 -0.7960 -0.7237
13611TIP3   OH262323   1.194   0.840  12.220  0.3885  0.4415 -0.4399
13611TIP3    H162324   1.168   0.854  12.311  0.9278  2.9822 -0.5993
13611TIP3    H262325   1.289   0.831  12.223  0.2616 -1.3222 -0.6147
13612TIP3   OH262326   6.516   5.868  11.760  0.1129  0.4018 -0.7082
13612TIP3    H162327   6.554   5.893  11.844  0.8378 -2.1568 -0.1683
13612TIP3    H262328   6.564   5.918  11.695  0.9726  0.8924  0.2828
13613TIP3   OH262329   4.179   1.110  13.452  0.4715  0.1061  0.7102
13613TIP3    H162330   4.086   1.132  13.450  0.3426 -0.2563  2.2105
13613TIP3    H262331   4.185   1.031  13.505  1.4102 -1.1961 -1.2060
13614TIP3   OH262332   2.436   3.383  13.428  0.0935  0.3506  0.3800
13614TIP3    H162333   2.353   3.341  13.407 -1.0194  2.9325 -0.7799
13614TIP3    H262334   2.490   3.369  13.349  0.4651 -0.5420  0.7773
13615TIP3   OH262335   5.353   0.617   5.007  0.5718  0.0082  0.4709
13615TIP3    H162336   5.412   0.557   4.962  0.5197  0.6282 -0.4640
13615TIP3    H262337   5.276   0.564   5.028  0.4478 -0.2236 -0.5156
13616TIP3   OH262338   2.957   2.543   5.433 -0.1623 -0.2012 -0.8111
13616TIP3    H162339   2.991   2.584   5.353 -2.3988  1.0225 -1.2106
13616TIP3    H262340   3.002   2.589   5.504  0.2888  0.1831 -1.3332
13617TIP3   OH262341   0.608   0.366  12.175  0.0765 -0.0330  0.6011
13617TIP3    H162342   0.636   0.385  12.265 -0.1662  0.6484  0.5361
13617TIP3    H262343   0.514   0.349  12.181 -0.4002  2.1279  0.2060
13618TIP3   OH262344   2.326   2.288   0.145 -0.0902 -0.6495 -0.0134
13618TIP3    H162345   2.351   2.203   0.181 -0.6283 -0.3971  1.0130
13618TIP3    H262346   2.373   2.351   0.200 -0.1773 -0.2731 -0.3691
13619TIP3   OH262347   4.616   1.495   0.252  0.4198 -0.5622 -0.6454
13619TIP3    H162348   4.555   1.427   0.280 -1.2682  0.5536 -1.4377
13619TIP3    H262349   4.627   1.479   0.158 -2.5617  2.0036 -1.6118
13620TIP3   OH262350   1.210   0.272   4.049 -0.0500 -0.0100 -0.2622
13620TIP3    H162351   1.161   0.231   4.121  1.2599  0.2060  0.7846
13620TIP3    H262352   1.290   0.221   4.041  0.5276  0.9017 -0.5164
13621TIP3   OH262353   0.072   4.391  11.955  0.4900 -0.0960 -0.1016
13621TIP3    H162354   0.017   4.467  11.976  0.2292 -0.0877 -0.7769
13621TIP3    H262355   0.152   4.404  12.005  0.3971  0.5689 -0.1193
13622TIP3   OH262356   6.146   3.175  16.354 -0.2103  0.5391  0.1263
13622TIP3    H162357   6.203   3.209  16.286  0.7280  0.8312  1.0240
13622TIP3    H262358   6.171   3.083  16.363  0.7513  0.8666  1.0924
13623TIP3   OH262359   5.798   2.933   1.652  0.6071 -0.6374 -0.3086
13623TIP3    H162360   5.852   2.870   1.700 -0.9657 -0.7159  1.4203
13623TIP3    H262361   5.819   3.017   1.691 -1.7638 -0.8709  1.6742
13624TIP3   OH262362   1.224   2.293  16.317 -0.2044 -0.1092 -0.0365
13624TIP3    H162363   1.281   2.235  16.266  0.6006 -0.8229  1.6093
13624TIP3    H262364   1.154   2.236  16.349  1.3850 -0.6478  2.8385
13625TIP3   OH262365   2.569   2.529   3.951 -0.1094  0.4900  0.3744
13625TIP3    H162366   2.594   2.559   4.039 -2.4941 -0.8999  1.6530
13625TIP3    H262367   2.528   2.443   3.967 -0.9877  0.3966 -2.0507
13626TIP3   OH262368   6.204   5.174   6.454 -0.1684 -0.2723  0.3034
13626TIP3    H162369   6.170   5.215   6.534 -1.8424 -1.0267 -0.0001
13626TIP3    H262370   6.282   5.226   6.433 -1.1998  1.6526  0.9245
13627TIP3   OH262371   0.870   6.432  17.116 -0.3180  0.9420  0.3575
13627TIP3    H162372   0.842   6.484  17.041  0.9407  1.0151 -0.0658
13627TIP3    H262373   0.796   6.437  17.177 -1.1345  1.3258 -0.6335
13628TIP3   OH262374   3.793   5.476  11.762 -0.6327 -0.1951  0.1600
13628TIP3    H162375   3.771   5.561  11.724  0.4046  0.2135  0.4177
13628TIP3    H262376   3.729   5.463  11.831 -0.3311  0.7640  0.6437
13629TIP3   OH262377   3.993   4.097   2.579  0.1499  0.1655  0.3763
13629TIP3    H162378   4.009   4.140   2.495 -1.3186  1.2242  0.6009
13629TIP3    H262379   3.920   4.038   2.562  0.1907 -0.0040  0.7837
13630TIP3   OH262380   2.891   0.778  14.105  0.3270  0.0308 -0.2068
13630TIP3    H162381   2.874   0.690  14.071  0.9169  0.0274 -0.5042
13630TIP3    H262382   2.818   0.831  14.073 -0.3158 -0.4542  0.4151
13631TIP3   OH262383   2.364   5.590   0.713  0.0183 -0.3716 -0.4165
13631TIP3    H162384   2.340   5.610   0.622  1.1076  0.1020 -0.6119
13631TIP3    H262385   2.378   5.676   0.753  1.3318 -0.6237 -0.3093
13632TIP3   OH262386   0.568   5.853   0.304 -0.2754 -0.4166 -0.2110
13632TIP3    H162387   0.532   5.840   0.392  0.9364 -0.9982  0.2230
13632TIP3    H262388   0.554   5.770   0.260  0.0194 -0.4602 -0.2243
13633TIP3   OH262389   2.536   2.833   2.220 -0.2730 -0.8057  0.3803
13633TIP3    H162390   2.548   2.928   2.227 -1.1337 -0.5253 -1.4321
13633TIP3    H262391   2.588   2.809   2.143 -3.2346 -1.1075 -1.6644
13634TIP3   OH262392   5.252   4.200   1.148 -0.3222  0.0579  0.1051
13634TIP3    H162393   5.227   4.205   1.056 -1.5802 -0.7438  0.3889
13634TIP3    H262394   5.304   4.279   1.163 -0.5784  0.4763 -1.1403
13635TIP3   OH262395   3.305   6.800  16.679 -0.2851 -0.0204 -0.0528
13635TIP3    H162396   3.316   6.856  16.756  0.0481 -0.2436  0.0653
13635TIP3    H262397   3.390   6.758  16.668  0.0100  0.8412 -1.2185
13636TIP3   OH262398   1.465   4.252   5.503  0.7580  0.0267 -0.0590
13636TIP3    H162399   1.501   4.252   5.415  0.4919  1.9556 -0.2151
13636TIP3    H262400   1.475   4.162   5.533  1.3264 -0.5500 -1.8520
13637TIP3   OH262401   0.294   3.766   6.662 -0.2027 -0.7022  0.0106
13637TIP3    H162402   0.307   3.693   6.601 -1.6366 -0.3395 -0.7697
13637TIP3    H262403   0.200   3.771   6.673 -0.0296  0.0365  1.3203
13638TIP3   OH262404   0.748   3.029  13.196  0.1613  0.1088 -0.2569
13638TIP3    H162405   0.799   3.017  13.117 -1.9342 -0.1633 -1.6491
13638TIP3    H262406   0.804   2.996  13.267  1.3443 -1.4692 -1.8489
13639TIP3   OH262407   3.715   4.268  14.363 -0.1204 -0.0477 -0.5269
13639TIP3    H162408   3.810   4.260  14.350  0.0282 -1.3012  0.9811
13639TIP3    H262409   3.677   4.201  14.306  0.0307 -0.6767  0.0993
13640TIP3   OH262410   4.010   3.012  11.509  0.1050  0.3758 -0.0498
13640TIP3    H162411   3.944   2.985  11.573  0.5606 -1.5934 -0.3378
13640TIP3    H262412   4.010   3.107  11.513  0.1563  0.3316  2.9213
13641TIP3   OH262413   6.206   4.054  17.031  0.3488  0.0466  0.1452
13641TIP3    H162414   6.289   4.026  16.991 -0.6966 -2.0992 -0.6844
13641TIP3    H262415   6.196   3.997  17.107 -1.6664 -1.7398 -1.3632
13642TIP3   OH262416   5.581   5.457   1.571 -0.0713 -0.6668  0.2312
13642TIP3    H162417   5.588   5.482   1.663 -0.6484 -0.2851  0.1790
13642TIP3    H262418   5.600   5.363   1.569 -0.3919 -0.7435  0.7808
13643TIP3   OH262419   3.312   2.515  11.543  0.2527 -0.4169  0.2024
13643TIP3    H162420   3.256   2.478  11.611  0.9597  0.0957  1.0894
13643TIP3    H262421   3.350   2.439  11.499  0.5829 -0.7614  1.0652
13644TIP3   OH262422   5.229   3.614  16.715  0.1420 -0.2332 -0.1993
13644TIP3    H162423   5.311   3.575  16.746  0.8323  0.1763 -1.4529
13644TIP3    H262424   5.208   3.565  16.635 -0.3500  0.2798 -0.3898
13645TIP3   OH262425   4.356   4.398   1.710  0.5716  0.5865 -0.1819
13645TIP3    H162426   4.344   4.432   1.621 -0.0741 -2.2156 -1.2719
13645TIP3    H262427   4.335   4.305   1.703  2.1333 -0.0833  2.5787
13646TIP3   OH262428   5.533   5.824  16.175 -0.3507 -0.4990 -0.1340
13646TIP3    H162429   5.602   5.890  16.182  1.4029 -2.0212 -1.7223
13646TIP3    H262430   5.550   5.764  16.248 -1.6567  0.4693  1.0271
13647TIP3   OH262431   3.215   4.719   4.953  0.6961  0.0118 -0.8212
13647TIP3    H162432   3.168   4.677   4.880  1.1757 -1.6827 -0.2067
13647TIP3    H262433   3.231   4.648   5.015  0.8976  1.2882  0.6444
13648TIP3   OH262434   4.245   1.730  16.665 -0.1624  0.1945 -0.2291
13648TIP3    H162435   4.329   1.717  16.708  0.2904  2.1511 -0.4265
13648TIP3    H262436   4.224   1.822  16.681 -3.3897 -0.7292  1.7644
13649TIP3   OH262437   5.205   6.016   4.072  0.6021  0.5569  0.7024
13649TIP3    H162438   5.251   5.951   4.124  1.2060  0.6595  0.3102
13649TIP3    H262439   5.272   6.051   4.012 -0.2252 -0.0989 -0.6547
13650TIP3   OH262440   5.342   1.139  12.412 -0.1285 -0.4593  0.0768
13650TIP3    H162441   5.392   1.067  12.450 -0.1849 -0.2920  0.4645
13650TIP3    H262442   5.341   1.120  12.318  1.1994 -0.1368 -0.0234
13651TIP3   OH262443   1.765   0.840   3.098 -0.3696  0.0973 -0.2818
13651TIP3    H162444   1.744   0.899   3.171 -0.8906 -1.0931  0.5695
13651TIP3    H262445   1.687   0.785   3.089  0.7415 -1.6128  0.1096
13652TIP3   OH262446   0.929   0.743   6.017 -0.0338  0.2833 -0.5755
13652TIP3    H162447   1.002   0.759   5.957  0.9575  1.5187  0.8518
13652TIP3    H262448   0.964   0.681   6.081 -0.6667 -0.0954 -0.5894
13653TIP3   OH262449   2.218   6.296  13.667 -0.8839  0.6813  0.5951
13653TIP3    H162450   2.236   6.292  13.761 -1.9413  1.5526  0.8625
13653TIP3    H262451   2.167   6.217  13.650  0.4681 -0.1902  0.4537
13654TIP3   OH262452   4.338   1.127  16.876 -0.3807 -0.4680 -0.4369
13654TIP3    H162453   4.406   1.089  16.932  0.4750 -1.9580 -2.3623
13654TIP3    H262454   4.256   1.090  16.910  0.2116 -2.1804 -0.7464
13655TIP3   OH262455   4.906   2.600   0.494  0.2434 -0.7476 -0.0613
13655TIP3    H162456   4.916   2.657   0.418 -0.5505 -0.4934  0.0124
13655TIP3    H262457   4.989   2.554   0.501  0.8493  0.3027 -0.2001
13656TIP3   OH262458   0.717   5.562   1.046  0.4049  0.2444  0.3097
13656TIP3    H162459   0.790   5.623   1.059  0.8596 -0.4608  1.2147
13656TIP3    H262460   0.661   5.576   1.123  0.8666 -0.9430  0.8831
13657TIP3   OH262461   0.326   1.686  13.603  0.1265  0.5634  0.0537
13657TIP3    H162462   0.321   1.741  13.525  0.1542  1.0738  0.4060
13657TIP3    H262463   0.248   1.709  13.654  0.3492  0.5765  0.3947
13658TIP3   OH262464   3.589   0.920   0.677  0.0217  0.0817  0.4908
13658TIP3    H162465   3.626   0.837   0.649  1.0010  0.1796  1.4286
13658TIP3    H262466   3.660   0.965   0.722 -1.5081 -0.3153  3.6104
13659TIP3   OH262467   0.407   0.709  14.642 -0.0280  0.0351  0.1782
13659TIP3    H162468   0.470   0.734  14.574 -1.2414 -1.3553 -1.5570
13659TIP3    H262469   0.360   0.635  14.605 -2.0499  0.4055  1.8105
13660TIP3   OH262470   2.790   3.265   3.784  0.5878  0.0752 -0.2997
13660TIP3    H162471   2.786   3.291   3.876 -1.1859  1.4206 -0.7045
13660TIP3    H262472   2.703   3.285   3.750  0.8934 -1.3520 -2.0375
13661TIP3   OH262473   0.498   4.265  14.134 -0.3007 -0.3546 -0.0851
13661TIP3    H162474   0.500   4.344  14.080 -0.9070 -0.9240 -0.9866
13661TIP3    H262475   0.588   4.253  14.164  0.0977 -0.1248 -1.1518
13662TIP3   OH262476   6.031   3.089  17.106  0.7558  0.1986  0.1181
13662TIP3    H162477   6.031   3.038  17.187 -0.6439  0.5612  0.3677
13662TIP3    H262478   6.021   3.180  17.135  2.1255  0.5420 -0.3833
13663TIP3   OH262479   1.789   0.232   4.930 -0.0187 -0.4816  0.3822
13663TIP3    H162480   1.722   0.163   4.932 -2.0110  1.3350  0.3426
13663TIP3    H262481   1.791   0.266   5.020  0.7846 -0.4147  0.3467
13664TIP3   OH262482   6.074   1.365  15.093 -0.0244 -0.4829 -0.2690
13664TIP3    H162483   6.136   1.436  15.077 -0.3243 -0.6313 -2.2789
13664TIP3    H262484   6.101   1.296  15.033 -1.9694 -0.6345 -1.0263
13665TIP3   OH262485   2.976   2.485   3.762  0.2368  0.5016  0.1255
13665TIP3    H162486   2.940   2.566   3.797  0.4781  0.1027  1.3501
13665TIP3    H262487   3.014   2.510   3.678 -1.2577  1.2856 -0.3510
13666TIP3   OH262488   6.247   3.181   3.550 -0.8016 -0.5251 -0.2209
13666TIP3    H162489   6.193   3.231   3.611  0.5462 -0.4784  0.9851
13666TIP3    H262490   6.313   3.243   3.519 -1.4682 -0.5382 -1.7955
13667TIP3   OH262491   0.677   6.173   5.315  0.1522 -0.5606  0.0676
13667TIP3    H162492   0.594   6.156   5.360  0.2329 -1.2934 -0.0397
13667TIP3    H262493   0.677   6.267   5.297 -0.9604 -0.6727 -0.5434
13668TIP3   OH262494   3.005   1.124   4.898 -0.9929 -0.2911  0.2131
13668TIP3    H162495   2.935   1.138   4.963 -0.1045 -0.0534  1.1494
13668TIP3    H262496   2.961   1.080   4.825 -2.3188  0.7213  0.3607
13669TIP3   OH262497   1.383   5.309   3.524  0.1226 -0.0118 -0.2155
13669TIP3    H162498   1.360   5.349   3.608  1.5556  0.0563  0.1622
13669TIP3    H262499   1.401   5.383   3.466 -0.8235 -0.0594 -0.6003
13670TIP3   OH262500   0.362   6.356   0.888  0.4087  0.1579 -0.2508
13670TIP3    H162501   0.385   6.277   0.839 -0.4409 -0.7289  0.7120
13670TIP3    H262502   0.275   6.380   0.856  0.7885  0.8739 -0.7449
13671TIP3   OH262503   2.922   2.962   3.313 -0.2304  0.2515 -0.1513
13671TIP3    H162504   2.977   2.968   3.391 -1.2735  1.8819  0.5364
13671TIP3    H262505   2.833   2.955   3.348 -0.6868  0.6694 -1.1983
13672TIP3   OH262506   2.691   1.256   5.890 -0.6138 -0.3463  0.1272
13672TIP3    H162507   2.684   1.316   5.964 -1.2019 -1.5296  1.0522
13672TIP3    H262508   2.602   1.226   5.875 -0.6463  0.4800 -1.6106
13673TIP3   OH262509   0.673   6.051   3.506 -0.6261  0.5066  0.1423
13673TIP3    H162510   0.690   5.963   3.539 -0.9016  0.8797  1.3092
13673TIP3    H262511   0.578   6.059   3.508 -0.6558  0.5047 -0.8596
13674TIP3   OH262512   1.291   0.200   2.141  0.0942 -0.0396  0.0063
13674TIP3    H162513   1.226   0.210   2.211 -0.0757 -0.9382 -0.0137
13674TIP3    H262514   1.244   0.225   2.061 -0.0402 -0.0896  0.0699
13675TIP3   OH262515   3.052   3.950   4.321  0.9666  0.4166  0.0786
13675TIP3    H162516   3.003   4.013   4.374  1.1552  1.0651 -0.5051
13675TIP3    H262517   2.989   3.881   4.301  1.0693 -0.2182  1.7263
13676TIP3   OH262518   1.181   0.690   3.841  0.2591  0.5467 -0.1093
13676TIP3    H162519   1.159   0.782   3.859  0.9474  0.6690  0.1509
13676TIP3    H262520   1.143   0.641   3.913 -0.2934  0.6005 -0.3597
13677TIP3   OH262521   4.722   5.202  11.574 -0.6674  0.5381 -0.0476
13677TIP3    H162522   4.797   5.205  11.632 -0.7659  0.4936  0.0812
13677TIP3    H262523   4.657   5.150  11.621 -1.0440  1.1747  0.1464
13678TIP3   OH262524   5.859   3.839   5.496  0.2809 -0.5621 -0.2057
13678TIP3    H162525   5.800   3.903   5.536  0.1895 -0.8972  0.2043
13678TIP3    H262526   5.834   3.756   5.536  0.6538 -0.7944 -0.4542
13679TIP3   OH262527   2.800   6.335   6.328 -0.4986 -0.5799  0.1220
13679TIP3    H162528   2.724   6.280   6.308  0.1344 -1.3683 -0.1358
13679TIP3    H262529   2.875   6.276   6.323 -0.0117 -0.1854  1.9763
13680TIP3   OH262530   6.777   4.000   2.721 -0.6253  0.2823  0.2966
13680TIP3    H162531   6.778   4.001   2.626  0.5388  0.1598  0.2996
13680TIP3    H262532   6.853   3.948   2.746  0.0061  1.6331  1.3044
13681TIP3   OH262533   4.431   0.553  13.876 -0.3361 -0.1400 -0.5244
13681TIP3    H162534   4.445   0.465  13.842 -1.1179 -0.4072 -0.1594
13681TIP3    H262535   4.470   0.551  13.964  1.2856  0.4240 -1.1784
13682TIP3   OH262536   4.699   2.480   4.112 -0.3769 -0.2432 -0.0553
13682TIP3    H162537   4.670   2.408   4.055  1.1436 -0.4541 -0.6095
13682TIP3    H262538   4.678   2.451   4.200 -0.1677 -1.1889 -0.3038
13683TIP3   OH262539   0.526   4.062  13.059 -0.6453 -0.0821  0.2174
13683TIP3    H162540   0.606   4.073  13.111  0.5086  2.6783 -1.8724
13683TIP3    H262541   0.530   4.131  12.994 -3.7080 -1.2253 -1.4059
13684TIP3   OH262542   5.855   4.697   2.405  0.1647 -0.3686 -0.0209
13684TIP3    H162543   5.874   4.707   2.498 -2.1904 -0.4284  0.5520
13684TIP3    H262544   5.833   4.785   2.375  1.3959 -0.2672 -0.6704
13685TIP3   OH262545   3.032   6.794  12.404  0.3054  0.3722 -0.4548
13685TIP3    H162546   3.054   6.727  12.339  0.1531 -0.5560  0.4188
13685TIP3    H262547   3.008   6.871  12.352  1.6523  0.1419 -1.4653
13686TIP3   OH262548   5.654   4.984   0.817  0.1748  0.0265 -1.0367
13686TIP3    H162549   5.626   5.073   0.794 -0.4779  0.0959 -0.0475
13686TIP3    H262550   5.605   4.927   0.758 -0.9182  0.2344 -0.3592
13687TIP3   OH262551   0.665   6.161  16.900  0.3462 -0.1066 -0.6043
13687TIP3    H162552   0.755   6.192  16.895 -0.0987  1.8168  1.7065
13687TIP3    H262553   0.650   6.146  16.993 -1.4771 -1.2790 -1.0280
13688TIP3   OH262554   1.780   3.432   2.941 -0.0703 -0.0821  0.6947
13688TIP3    H162555   1.806   3.510   2.892  1.5886 -0.2101  1.3180
13688TIP3    H262556   1.837   3.363   2.907 -1.8694 -1.1886 -0.2214
13689TIP3   OH262557   5.878   5.678  15.078 -0.0535  0.2042  0.1497
13689TIP3    H162558   5.918   5.735  15.011  0.6868  0.0679  0.4704
13689TIP3    H262559   5.805   5.636  15.032  1.7554 -1.5802 -1.2484
13690TIP3   OH262560   0.709   2.857  11.314 -0.5714 -0.6909 -0.3238
13690TIP3    H162561   0.626   2.818  11.339  0.5243 -1.3518  2.6257
13690TIP3    H262562   0.749   2.793  11.255 -1.4751 -1.0498 -0.5610
13691TIP3   OH262563   4.567   2.964   4.383  0.2705  0.3644 -0.7143
13691TIP3    H162564   4.579   2.880   4.338 -1.8592  1.2043 -3.0982
13691TIP3    H262565   4.512   2.944   4.458 -0.8853 -0.3174 -1.7030
13692TIP3   OH262566   3.673   6.594  15.477 -0.9920  0.1116 -0.0231
13692TIP3    H162567   3.703   6.601  15.568  0.6084 -3.0187 -0.1455
13692TIP3    H262568   3.607   6.524  15.479 -0.1295 -0.7982 -1.3421
13693TIP3   OH262569   6.486   2.373  16.811 -0.2339  0.0477 -0.5081
13693TIP3    H162570   6.491   2.325  16.728 -0.2437  1.8684 -1.6020
13693TIP3    H262571   6.577   2.384  16.837 -0.2385 -0.7257 -0.1345
13694TIP3   OH262572   5.237   3.860   4.788 -0.1074  0.1182  0.6556
13694TIP3    H162573   5.211   3.935   4.734  1.0830  0.6849  0.8221
13694TIP3    H262574   5.262   3.899   4.872 -0.3266 -0.5705  1.0424
13695TIP3   OH262575   5.263   5.738  16.154  0.0308 -0.1609 -0.6943
13695TIP3    H162576   5.353   5.768  16.160  0.2900 -0.8865 -0.8651
13695TIP3    H262577   5.221   5.799  16.094 -0.3141  1.8191  1.4224
13696TIP3   OH262578   1.895   5.014  13.636 -0.0061  0.3251  0.0075
13696TIP3    H162579   1.985   5.048  13.629 -0.2487  0.7720 -1.1654
13696TIP3    H262580   1.860   5.022  13.548 -0.7419 -1.1716  0.1411
13697TIP3   OH262581   2.066   6.735   0.277  0.4508 -0.4434  0.1397
13697TIP3    H162582   2.008   6.737   0.201 -0.3264 -1.3419  0.6932
13697TIP3    H262583   2.041   6.811   0.329  1.1365  0.3057 -0.5884
13698TIP3   OH262584   0.981   0.143  13.333 -0.2835  0.6144 -0.3044
13698TIP3    H162585   1.063   0.173  13.295  0.1926  2.1842  1.7499
13698TIP3    H262586   1.003   0.063  13.379 -0.5552 -0.4912 -2.0182
13699TIP3   OH262587   0.313   0.438  12.555  0.0294  0.0720  0.3227
13699TIP3    H162588   0.407   0.446  12.573  0.0164  1.1106 -0.0032
13699TIP3    H262589   0.281   0.377  12.621  0.9951 -0.5757  0.2114
13700TIP3   OH262590   4.138   3.763  13.219  0.1129  0.6446  0.5652
13700TIP3    H162591   4.143   3.824  13.293 -0.9577  1.1547  0.2256
13700TIP3    H262592   4.226   3.766  13.181  0.3731  1.1772  1.1772
13701TIP3   OH262593   0.553   3.107  13.781 -0.7877  0.8324 -0.1988
13701TIP3    H162594   0.479   3.118  13.840 -0.3241  1.0248  0.3615
13701TIP3    H262595   0.613   3.050  13.829 -1.1704 -0.4586 -1.2112
13702TIP3   OH262596   5.574   6.444   5.651  0.6966 -0.7567 -0.1817
13702TIP3    H162597   5.636   6.507   5.614 -0.6173 -0.5651 -2.2027
13702TIP3    H262598   5.502   6.497   5.684  1.0381 -1.0523  1.1080
13703TIP3   OH262599   1.053   6.183   3.943 -0.5162  0.4157 -0.1584
13703TIP3    H162600   1.054   6.116   3.875 -0.4298  0.0209  0.2300
13703TIP3    H262601   0.993   6.149   4.009 -0.8182  0.9251 -0.1607
13704TIP3   OH262602   3.747   4.511   4.188 -0.6788 -0.3754  0.0524
13704TIP3    H162603   3.819   4.571   4.207 -0.3518 -1.1353  1.3469
13704TIP3    H262604   3.762   4.482   4.098  0.2067  0.0265  0.0658
13705TIP3   OH262605   5.395   4.565  11.606 -0.4997  0.3629  0.4147
13705TIP3    H162606   5.489   4.548  11.592 -0.3822  0.5660  0.9479
13705TIP3    H262607   5.392   4.650  11.648 -0.9273  0.3400  0.4362
13706TIP3   OH262608   3.743   1.093   3.193 -0.0274 -0.2322 -0.2584
13706TIP3    H162609   3.689   1.104   3.115 -0.0904  1.6428  0.0057
13706TIP3    H262610   3.699   1.023   3.243 -0.4351 -0.8883 -1.4913
13707TIP3   OH262611   6.700   5.087  16.822  0.5559 -1.0304  0.2673
13707TIP3    H162612   6.721   5.180  16.827  0.2784 -0.8564 -1.2939
13707TIP3    H262613   6.606   5.086  16.802  1.0194 -1.5408 -2.2102
13708TIP3   OH262614   4.107   5.955   2.974 -0.1935  0.4293 -0.3356
13708TIP3    H162615   4.025   5.913   2.999 -0.2927  0.6327 -0.3165
13708TIP3    H262616   4.080   6.034   2.928 -0.0145  1.1670  0.7956
13709TIP3   OH262617   5.565   4.516  16.628 -0.5201  0.4487 -0.1836
13709TIP3    H162618   5.541   4.513  16.535  0.1960  1.1896 -0.4016
13709TIP3    H262619   5.576   4.424  16.652 -2.0214  0.1719 -0.4708
13710TIP3   OH262620   1.115   2.405   1.282  0.1456  0.1509 -0.4336
13710TIP3    H162621   1.044   2.343   1.266 -0.1697  0.7534 -1.5127
13710TIP3    H262622   1.071   2.483   1.318  0.2622  0.4868 -1.0026
13711TIP3   OH262623   3.575   4.586  11.867  0.2009  0.0525 -0.6224
13711TIP3    H162624   3.669   4.577  11.886  0.1888 -0.1875 -0.6766
13711TIP3    H262625   3.563   4.680  11.850  0.5040  0.0210 -1.0195
13712TIP3   OH262626   5.440   4.213   4.831 -0.3016  0.6378  0.0559
13712TIP3    H162627   5.395   4.146   4.883 -1.1972 -0.7417 -2.2804
13712TIP3    H262628   5.376   4.283   4.822 -1.0961 -0.1884 -1.1093
13713TIP3   OH262629   1.537   1.495  11.339 -0.6949 -0.4057  0.0291
13713TIP3    H162630   1.561   1.544  11.260  1.1747 -0.5994  0.4471
13713TIP3    H262631   1.603   1.426  11.346 -2.5782 -2.2886  0.1231
13714TIP3   OH262632   3.288   4.872   2.647 -0.0302  0.4049  0.9752
13714TIP3    H162633   3.197   4.891   2.670 -1.0827 -1.1677 -1.4690
13714TIP3    H262634   3.340   4.924   2.709 -2.5599  1.3216  2.4759
13715TIP3   OH262635   4.047   0.249   4.402 -0.0361  0.0182  0.1872
13715TIP3    H162636   4.102   0.233   4.479  2.1912  1.4311 -1.0137
13715TIP3    H262637   4.048   0.344   4.390 -0.5209 -0.1431 -1.4692
13716TIP3   OH262638   6.823   3.329   5.022 -0.0144 -0.5072  0.0174
13716TIP3    H162639   6.845   3.421   5.006  2.5079 -1.1614 -0.7611
13716TIP3    H262640   6.786   3.298   4.939  0.5928 -0.5627 -0.2382
13717TIP3   OH262641   6.629   2.321   5.046  0.2834  0.3673  0.3207
13717TIP3    H162642   6.603   2.403   5.005 -1.3994 -1.0516 -1.6617
13717TIP3    H262643   6.720   2.335   5.073 -0.1791  3.0613  0.6851
13718TIP3   OH262644   2.216   5.612   2.235  0.0221  0.1023 -0.2498
13718TIP3    H162645   2.256   5.603   2.322  0.9899  0.1682 -0.6732
13718TIP3    H262646   2.148   5.678   2.247 -0.0431 -0.0865  0.5181
13719TIP3   OH262647   6.398   5.228  12.587 -0.1921  0.1164  0.0181
13719TIP3    H162648   6.401   5.252  12.495  2.0973 -1.2055 -0.3243
13719TIP3    H262649   6.320   5.173  12.596  0.0438 -0.4768 -1.3470
13720TIP3   OH262650   1.086   1.933   6.201  0.6146 -0.5593 -0.1860
13720TIP3    H162651   1.003   1.971   6.172  0.5671 -0.5712 -0.0672
13720TIP3    H262652   1.068   1.902   6.290  0.0225 -2.7350 -0.9829
13721TIP3   OH262653   2.828   0.728  16.034  0.4052 -0.0419 -0.1159
13721TIP3    H162654   2.909   0.739  16.084  0.2752 -1.4737  0.4393
13721TIP3    H262655   2.853   0.748  15.943  1.1965  0.2690  0.1626
13722TIP3   OH262656   0.938   5.087  17.161 -0.3125 -0.4387 -0.1564
13722TIP3    H162657   0.958   5.076  17.068 -1.8825 -1.1653 -0.4310
13722TIP3    H262658   1.009   5.041  17.206 -0.5017 -1.6708 -1.0547
13723TIP3   OH262659   6.646   0.022   1.627 -0.5523 -0.2180 -0.2643
13723TIP3    H162660   6.604  -0.057   1.662 -1.5760  1.2079  2.0021
13723TIP3    H262661   6.669   0.073   1.705  1.6149  0.9977 -1.6018
13724TIP3   OH262662   3.705   0.480   1.145  0.1646 -0.2489 -0.5718
13724TIP3    H162663   3.619   0.440   1.153 -0.5098  1.1316 -0.6698
13724TIP3    H262664   3.691   0.557   1.090  1.2540  0.5980  0.2818
13725TIP3   OH262665   3.602   2.788   6.544 -0.2187  0.4022 -0.1289
13725TIP3    H162666   3.681   2.780   6.490 -0.0148  0.1481  0.2005
13725TIP3    H262667   3.591   2.701   6.583 -0.4984  0.5183  0.0555
13726TIP3   OH262668   1.731   3.325  12.616 -0.3551  0.2422 -0.1852
13726TIP3    H162669   1.707   3.232  12.605  0.3595  0.0458 -0.1462
13726TIP3    H262670   1.705   3.366  12.533 -2.6807  0.4750  0.5814
13727TIP3   OH262671   2.877   5.083  13.271 -0.2204  0.4169  0.1724
13727TIP3    H162672   2.800   5.027  13.265 -1.6774  2.4017 -0.5953
13727TIP3    H262673   2.912   5.086  13.182 -0.2414  0.8313  0.1735
13728TIP3   OH262674   3.336   4.514  14.029  0.2609  0.5561 -0.1942
13728TIP3    H162675   3.300   4.456  13.962  0.2131  0.2498  0.0932
13728TIP3    H262676   3.418   4.473  14.055  0.6029  1.0173 -0.5265
13729TIP3   OH262677   6.168   4.069   0.660  0.4345 -0.3078  0.0999
13729TIP3    H162678   6.119   3.989   0.641  1.4794 -1.1449  0.8256
13729TIP3    H262679   6.181   4.066   0.755 -0.4550  1.2916  0.3063
13730TIP3   OH262680   1.111   3.940   2.555 -0.4262  0.0952 -0.9163
13730TIP3    H162681   1.097   4.023   2.600  1.5526  0.1586 -0.3133
13730TIP3    H262682   1.143   3.964   2.468  3.5700  0.1410  0.3683
13731TIP3   OH262683   4.791   0.866  13.548  0.0478 -0.2689 -0.0617
13731TIP3    H162684   4.809   0.909  13.632 -2.6668 -0.4889  0.7226
13731TIP3    H262685   4.847   0.911  13.485  0.9525  1.0036  1.5702
13732TIP3   OH262686   2.870   0.898   2.832  0.3194 -0.1517  0.2218
13732TIP3    H162687   2.903   0.919   2.919 -0.1239 -0.8308  0.5569
13732TIP3    H262688   2.787   0.852   2.847 -0.6497  1.2266 -0.5929
13733TIP3   OH262689   3.871   0.273  16.930  0.2398  0.1578 -0.7117
13733TIP3    H162690   3.894   0.301  16.841 -1.2366 -2.2522 -1.9533
13733TIP3    H262691   3.926   0.197  16.946  0.0347  0.1916  0.1999
13734TIP3   OH262692   0.440   0.482   2.907 -0.0231  0.5918  0.1764
13734TIP3    H162693   0.445   0.468   2.812 -0.6236  0.5064  0.1524
13734TIP3    H262694   0.494   0.560   2.923  1.5858 -0.4529  0.0220
13735TIP3   OH262695   1.484   5.699   4.670 -0.0152  0.2481  0.0196
13735TIP3    H162696   1.500   5.665   4.582  0.9212 -0.4317  0.4341
13735TIP3    H262697   1.451   5.788   4.656 -0.2482  0.0027 -1.0234
13736TIP3   OH262698   3.939   5.946   5.090  0.0665 -0.3275 -0.5894
13736TIP3    H162699   3.877   6.006   5.132 -0.2260 -0.2869 -1.0728
13736TIP3    H262700   3.896   5.919   5.010  0.6322 -0.3876 -0.8798
13737TIP3   OH262701   1.042   4.497  16.891 -0.6895 -0.0891 -0.1179
13737TIP3    H162702   1.030   4.591  16.900 -0.3640  0.0161 -0.7215
13737TIP3    H262703   1.052   4.465  16.981  1.5077  0.7779  0.0042
13738TIP3   OH262704   5.193   0.821   3.067 -0.0618 -0.0924  0.4291
13738TIP3    H162705   5.222   0.730   3.066 -0.0838 -0.1934  3.0298
13738TIP3    H262706   5.098   0.815   3.073  0.0372 -0.0316  3.2183
13739TIP3   OH262707   1.911   1.427  12.753  0.3399 -0.3900  0.5170
13739TIP3    H162708   1.922   1.356  12.817 -0.9506  0.3288  1.5997
13739TIP3    H262709   1.826   1.409  12.713  0.1678  0.3390  0.5510
13740TIP3   OH262710   4.635   4.321  11.954 -0.4503 -0.4030  0.3104
13740TIP3    H162711   4.718   4.357  11.922  0.2669 -0.3724  2.0509
13740TIP3    H262712   4.581   4.398  11.972 -2.1535 -0.4384 -3.7234
13741TIP3   OH262713   2.756   5.301   1.843  0.2432 -0.6418 -0.1317
13741TIP3    H162714   2.851   5.289   1.840  0.3745  0.4639 -1.8933
13741TIP3    H262715   2.729   5.305   1.752 -1.0190  2.3487  0.2565
13742TIP3   OH262716   5.740   3.554  16.608 -0.2111 -0.8078 -0.0423
13742TIP3    H162717   5.797   3.624  16.642  1.7679 -0.8391 -2.9357
13742TIP3    H262718   5.665   3.601  16.570 -1.1164 -0.6318  1.8194
13743TIP3   OH262719   4.589   6.358   4.142  0.2157  0.2682 -0.0643
13743TIP3    H162720   4.623   6.440   4.178  0.1798  1.0345 -1.6952
13743TIP3    H262721   4.494   6.366   4.149  0.2235  0.1923  0.1327
13744TIP3   OH262722   3.925   3.664  11.314 -0.0353  0.3514  0.4963
13744TIP3    H162723   3.850   3.700  11.266 -0.7160 -0.6773  0.7538
13744TIP3    H262724   3.920   3.703  11.401 -0.0251  0.6111  0.3790
13745TIP3   OH262725   0.492   1.030  15.273  0.2658 -0.3890  0.0420
13745TIP3    H162726   0.557   1.009  15.206 -0.0989  0.5413 -0.6222
13745TIP3    H262727   0.414   1.056  15.224 -0.2323 -0.3530  0.8275
13746TIP3   OH262728   6.481   6.123  12.695  0.0155 -0.1234  0.3981
13746TIP3    H162729   6.461   6.078  12.613  2.0188  1.2336 -0.9236
13746TIP3    H262730   6.516   6.055  12.752  1.5777 -0.5966 -1.0270
13747TIP3   OH262731   1.450   4.099   2.199  0.3554 -0.3152 -0.3105
13747TIP3    H162732   1.516   4.167   2.187  0.8328 -0.5503  0.8400
13747TIP3    H262733   1.500   4.022   2.227 -0.3866 -0.5425  0.4289
13748TIP3   OH262734   4.509   0.342  16.392  0.1456 -0.1215  0.0719
13748TIP3    H162735   4.469   0.353  16.478  0.6073  0.3595  0.2338
13748TIP3    H262736   4.479   0.418  16.342 -0.7950 -0.8269 -0.4683
13749TIP3   OH262737   0.895   2.707  16.320  0.1239 -0.0310 -0.0259
13749TIP3    H162738   0.893   2.680  16.412  1.1996  0.7035  0.2415
13749TIP3    H262739   0.934   2.632  16.274 -0.8752 -0.5939  0.0298
13750TIP3   OH262740   3.769   6.429  13.754 -0.1822  0.1685 -0.1934
13750TIP3    H162741   3.836   6.497  13.761  0.0281 -0.1429  0.8336
13750TIP3    H262742   3.728   6.427  13.840 -1.3675  0.1974 -0.7434
13751TIP3   OH262743   3.550   3.406   0.701 -0.1758  0.1012  0.2066
13751TIP3    H162744   3.554   3.344   0.774 -0.0727 -1.3961 -1.0188
13751TIP3    H262745   3.590   3.359   0.628 -0.6299  1.4092 -0.9194
13752TIP3   OH262746   1.907   1.438   4.451 -1.0018  0.2937  0.1712
13752TIP3    H162747   1.988   1.458   4.405 -2.1642  2.4685 -1.1327
13752TIP3    H262748   1.899   1.507   4.517 -0.6591 -1.2835  1.9350
13753TIP3   OH262749   5.494   3.522   3.041 -0.1690  0.2021  0.1859
13753TIP3    H162750   5.460   3.532   3.130  0.7297  0.3960  0.5204
13753TIP3    H262751   5.453   3.592   2.991 -3.4747 -1.9857 -0.4588
13754TIP3   OH262752   3.352   1.605  12.723 -0.7875  0.4925  0.7553
13754TIP3    H162753   3.355   1.561  12.638 -0.2725  0.7706  0.6252
13754TIP3    H262754   3.427   1.664  12.722  0.2978 -0.7660  2.1001
13755TIP3   OH262755   0.721   2.317  12.982  0.3912  0.3066 -0.1929
13755TIP3    H162756   0.650   2.283  13.038  0.4909 -1.0628 -0.8457
13755TIP3    H262757   0.698   2.408  12.966 -0.5441  0.2376  0.6735
13756TIP3   OH262758   4.139   4.558  12.595  0.5835  0.1734  0.1928
13756TIP3    H162759   4.125   4.644  12.636 -0.4350  0.3086 -0.4181
13756TIP3    H262760   4.070   4.502  12.631 -0.6758  0.4377 -1.6891
13757TIP3   OH262761   2.900   4.346   4.039  0.0940 -0.0208  0.3015
13757TIP3    H162762   2.951   4.270   4.011  0.0028  0.0596 -0.0898
13757TIP3    H262763   2.864   4.320   4.124  1.0376  0.0446  0.7335
13758TIP3   OH262764   2.325   3.227  13.695 -0.0263  0.6641  0.0666
13758TIP3    H162765   2.406   3.277  13.684 -0.3808  0.7949 -2.9110
13758TIP3    H262766   2.349   3.137  13.672 -0.6910  0.7443 -1.0668
13759TIP3   OH262767   4.011   1.068   2.705 -0.2590 -0.8154  0.3613
13759TIP3    H162768   4.038   1.061   2.797  0.4985  0.8966  0.3159
13759TIP3    H262769   3.928   1.019   2.700 -0.7810 -0.1989  2.1718
13760TIP3   OH262770   1.814   1.141  12.429  0.1554  0.4138  0.5298
13760TIP3    H162771   1.772   1.109  12.349  0.8439  0.7922  0.0111
13760TIP3    H262772   1.764   1.219  12.453  0.0186  0.3623  0.4125
13761TIP3   OH262773   5.365   0.364  16.689  0.1409  0.4461 -0.3390
13761TIP3    H162774   5.426   0.319  16.749  0.6839 -1.7788 -2.4093
13761TIP3    H262775   5.357   0.452  16.726  3.4809  0.4088  0.8560
13762TIP3   OH262776   3.685   1.710  15.940  0.5251 -0.1147  0.4319
13762TIP3    H162777   3.721   1.697  15.852  0.4457 -0.5246  0.4592
13762TIP3    H262778   3.640   1.628  15.960  0.7730 -0.1267  0.9662
13763TIP3   OH262779   6.120   0.379   3.521  0.1574 -0.1502  0.7691
13763TIP3    H162780   6.180   0.365   3.594  0.8976 -0.1601  0.1708
13763TIP3    H262781   6.135   0.470   3.494  0.7078 -0.4739 -0.0744
13764TIP3   OH262782   0.649   3.183  12.636 -0.2194  0.2279  0.2215
13764TIP3    H162783   0.653   3.276  12.655  0.4602  0.5349 -1.3201
13764TIP3    H262784   0.601   3.177  12.553  1.1713 -0.6447 -0.5539
13765TIP3   OH262785   6.106   6.615  15.987 -0.2135  0.3368 -0.3099
13765TIP3    H162786   6.186   6.667  15.988 -0.7731  1.2173 -0.0511
13765TIP3    H262787   6.049   6.660  15.924 -0.9690  0.4520  0.4459
13766TIP3   OH262788   5.312   3.559  14.657  0.3509  0.2125 -0.4361
13766TIP3    H162789   5.283   3.488  14.714 -0.2600 -0.9169 -2.0833
13766TIP3    H262790   5.342   3.627  14.717 -2.2654 -0.0245  1.3250
13767TIP3   OH262791   3.373   5.827  15.943  0.3107 -0.7640 -0.1842
13767TIP3    H162792   3.376   5.733  15.959 -0.9190 -0.7926 -0.0055
13767TIP3    H262793   3.301   5.839  15.881 -0.6557  0.2005  1.0511
13768TIP3   OH262794   1.399   6.150  13.181  0.8047 -0.5885  0.1085
13768TIP3    H162795   1.472   6.138  13.242  1.9245  1.5708 -0.7009
13768TIP3    H262796   1.418   6.088  13.110  2.4515  0.5816 -0.5526
13769TIP3   OH262797   2.530   0.573   3.392  0.4285 -0.4159 -0.2151
13769TIP3    H162798   2.477   0.600   3.467  2.4629  0.9991  0.8071
13769TIP3    H262799   2.521   0.644   3.329 -0.9998 -1.4442 -1.2367
13770TIP3   OH262800   6.443   0.860  16.603 -0.7011 -0.4743 -0.0392
13770TIP3    H162801   6.404   0.781  16.639 -0.2539 -0.2733  0.9567
13770TIP3    H262802   6.460   0.840  16.511 -2.5385 -0.7716 -0.3372
13771TIP3   OH262803   0.126   1.043  14.761  0.4058  0.4087 -0.0035
13771TIP3    H162804   0.213   1.020  14.729 -0.4258 -1.4910 -1.0223
13771TIP3    H262805   0.093   0.963  14.801 -1.2265  0.8364 -0.4214
13772TIP3   OH262806   3.192   5.332   5.357  0.2722 -0.2428  0.0290
13772TIP3    H162807   3.119   5.363   5.410 -0.1504  0.5970 -1.0059
13772TIP3    H262808   3.268   5.334   5.416 -0.0869  1.1232  0.4768
13773TIP3   OH262809   3.481   2.447   0.221  0.5325 -0.3488  0.2078
13773TIP3    H162810   3.515   2.378   0.165  1.7269  1.2823 -1.1656
13773TIP3    H262811   3.524   2.434   0.306  1.9175 -0.4155 -0.4846
13774TIP3   OH262812   3.166   1.795  12.382 -0.0091 -0.0374 -0.3193
13774TIP3    H162813   3.159   1.701  12.366 -1.8310  0.0502 -0.3245
13774TIP3    H262814   3.121   1.835  12.307 -0.4973  0.7574  0.3757
13775TIP3   OH262815   1.758   1.439   3.690 -0.6435  0.2124  0.7090
13775TIP3    H162816   1.674   1.420   3.649  0.2537 -0.3828 -0.9834
13775TIP3    H262817   1.746   1.524   3.731 -2.3044 -0.2427  1.2506
13776TIP3   OH262818   4.761   1.071  14.135  0.0145 -0.4688 -0.2140
13776TIP3    H162819   4.849   1.032  14.138 -0.0376 -0.6737 -0.9677
13776TIP3    H262820   4.703   0.999  14.161 -0.3889 -2.0341 -4.5526
13777TIP3   OH262821   2.302   1.280  11.136 -0.4053  0.5052  0.6087
13777TIP3    H162822   2.329   1.220  11.067 -2.8590  0.7345 -0.6592
13777TIP3    H262823   2.384   1.311  11.175  0.9692 -1.9003 -0.1944
13778TIP3   OH262824   1.129   0.237   0.411  0.3604 -0.1008 -0.0492
13778TIP3    H162825   1.100   0.273   0.495  0.2527 -0.3751  0.0316
13778TIP3    H262826   1.142   0.314   0.355  2.2714  0.2287  0.7807
13779TIP3   OH262827   4.750   2.038   5.268 -0.1113  0.8529 -0.4387
13779TIP3    H162828   4.808   2.056   5.342  1.2512  1.0653 -1.5101
13779TIP3    H262829   4.795   2.078   5.193 -0.7830 -0.5121 -1.6004
13780TIP3   OH262830   4.226   3.967   2.456 -0.2598  0.0826  0.9962
13780TIP3    H162831   4.270   3.888   2.488 -0.7561 -0.9533 -0.7711
13780TIP3    H262832   4.196   4.011   2.536  1.8069 -0.4078  2.1464
13781TIP3   OH262833   5.960   3.192   6.496 -0.4317  0.1174  0.6576
13781TIP3    H162834   5.907   3.118   6.528 -0.1821 -0.3489  0.0220
13781TIP3    H262835   6.028   3.203   6.562  0.8591 -1.6749 -0.2707
13782TIP3   OH262836   0.285   4.545   4.946 -0.1455 -0.5135 -0.9161
13782TIP3    H162837   0.352   4.477   4.934  1.0288  0.4348 -0.0552
13782TIP3    H262838   0.334   4.627   4.943 -1.4688  0.2912 -1.4713
13783TIP3   OH262839   2.089   6.466  14.653  0.9090  0.1632 -0.1362
13783TIP3    H162840   2.125   6.507  14.574  2.9471 -1.8624 -0.3728
13783TIP3    H262841   2.165   6.445  14.707 -0.0455 -2.2453  0.4330
13784TIP3   OH262842   2.439   3.490   4.532  0.3583 -0.2358  0.4111
13784TIP3    H162843   2.506   3.428   4.560  0.4943 -0.1762  0.2157
13784TIP3    H262844   2.361   3.464   4.581  0.1749 -1.1158 -0.3254
13785TIP3   OH262845   6.544   4.702   4.513  0.1954  0.2504 -0.4551
13785TIP3    H162846   6.534   4.631   4.576  0.9622  0.5742  0.0452
13785TIP3    H262847   6.616   4.675   4.456  0.9771  0.9175  0.1788
13786TIP3   OH262848   1.291   6.328   4.006 -0.1283  0.1184 -0.4069
13786TIP3    H162849   1.312   6.306   4.097 -2.5273  0.0850  0.1978
13786TIP3    H262850   1.215   6.274   3.985 -1.6725  2.4692 -1.2901
13787TIP3   OH262851   0.963   4.034  14.075  0.1451  0.5638  0.2236
13787TIP3    H162852   0.935   4.087  14.149  1.1901  1.1412  0.2181
13787TIP3    H262853   1.052   4.063  14.057  0.2156 -0.1884 -0.7005
13788TIP3   OH262854   0.842   3.136  15.948  0.2412  0.2397 -0.1683
13788TIP3    H162855   0.832   3.208  15.886  1.2285  1.1391  0.6866
13788TIP3    H262856   0.863   3.178  16.032  1.6286 -1.0470  0.1820
13789TIP3   OH262857   6.196   2.232  12.563 -0.2953 -0.1742 -0.5106
13789TIP3    H162858   6.164   2.174  12.631 -0.5737  0.6807  0.0998
13789TIP3    H262859   6.118   2.259  12.516 -0.3103  0.7106  0.0152
13790TIP3   OH262860   1.846   6.191  10.248  0.5019 -0.7299  0.8400
13790TIP3    H162861   1.875   6.105  10.220  1.6358 -0.4657  1.1549
13790TIP3    H262862   1.777   6.215  10.186  0.0197 -1.9471  0.8860
13791TIP3   OH262863   3.300   6.537  10.838  0.0906  0.0145 -0.5031
13791TIP3    H162864   3.283   6.455  10.886  0.2811  1.0229  1.3952
13791TIP3    H262865   3.215   6.565  10.806  0.0579 -1.0323 -1.3747
13792TIP3   OH262866   1.519   3.080  17.005  0.1327 -0.1926  0.2755
13792TIP3    H162867   1.534   2.985  17.014 -1.5883 -0.4154  1.1642
13792TIP3    H262868   1.483   3.090  16.917 -0.5726 -0.5136  0.5151
13793TIP3   OH262869   6.239   6.070  14.551 -0.3131  0.3671 -0.8788
13793TIP3    H162870   6.163   6.059  14.607  0.5710 -0.0607  0.2732
13793TIP3    H262871   6.233   5.998  14.488 -0.2301 -0.3951 -0.0339
13794TIP3   OH262872   1.517   3.266   4.915 -0.8723  0.1229  0.4350
13794TIP3    H162873   1.445   3.264   4.978 -1.1580  0.1206  0.1095
13794TIP3    H262874   1.576   3.334   4.947 -0.4186 -0.6705  1.3558
13795TIP3   OH262875   3.879   0.546  16.754 -0.2024 -0.0463  0.1466
13795TIP3    H162876   3.887   0.630  16.709  2.1396 -0.7969 -1.0507
13795TIP3    H262877   3.829   0.565  16.833  0.0497  2.4207 -0.2040
13796TIP3   OH262878   6.021   1.621  16.264 -0.0127 -0.2999  0.0902
13796TIP3    H162879   6.040   1.714  16.278  1.5590 -0.5252 -0.3526
13796TIP3    H262880   5.931   1.620  16.231 -0.7043  0.8922  1.8207
13797TIP3   OH262881   6.674   1.251  11.933 -0.0527 -0.1707  0.2777
13797TIP3    H162882   6.740   1.253  11.865 -1.1532 -1.7421 -0.9078
13797TIP3    H262883   6.654   1.343  11.951  0.0239  0.2784 -1.7853
13798TIP3   OH262884   1.786   1.362  16.594  0.2326 -0.2157  0.0470
13798TIP3    H162885   1.818   1.365  16.503 -0.8093 -1.5238 -0.3995
13798TIP3    H262886   1.777   1.268  16.613  0.7301  0.0328  1.6260
13799TIP3   OH262887   6.580   4.334   2.920  1.1110 -0.1759 -0.3149
13799TIP3    H162888   6.538   4.259   2.878 -2.3813 -0.1712  2.6284
13799TIP3    H262889   6.641   4.295   2.983  2.3415 -0.3071 -1.5255
13800TIP3   OH262890   1.266   2.606   4.235  0.0782  0.1006 -0.0138
13800TIP3    H162891   1.279   2.598   4.140 -0.0304  0.6414 -0.0775
13800TIP3    H262892   1.300   2.524   4.270  1.9042  0.6631 -0.3580
13801TIP3   OH262893   2.627   1.167   1.050  0.1735  0.3455  0.5154
13801TIP3    H162894   2.531   1.159   1.057 -0.0306  0.4285 -1.6195
13801TIP3    H262895   2.661   1.099   1.108 -1.2219 -0.8981 -0.0565
13802TIP3   OH262896   5.785   5.451   4.115 -0.4144  0.5776  0.8325
13802TIP3    H162897   5.801   5.450   4.210 -1.2216  2.8602  1.0479
13802TIP3    H262898   5.837   5.523   4.082 -0.6327  0.2025 -0.3782
13803TIP3   OH262899   4.456   5.482  11.149  0.3201  0.2208  0.1824
13803TIP3    H162900   4.424   5.558  11.198  0.0070  0.4058 -0.2978
13803TIP3    H262901   4.385   5.419  11.154 -0.5848  1.0115 -1.7364
13804TIP3   OH262902   5.593   0.099   3.649 -0.3309  0.1431  0.5965
13804TIP3    H162903   5.522   0.035   3.652  0.1459 -0.5455 -1.1459
13804TIP3    H262904   5.645   0.081   3.728 -0.2622 -1.5920  0.2055
13805TIP3   OH262905   0.455   2.618   0.555  0.1689 -0.2189 -0.1934
13805TIP3    H162906   0.427   2.527   0.555  0.7660 -0.4254  1.2919
13805TIP3    H262907   0.433   2.650   0.467 -0.0030 -1.7919 -0.7510
13806TIP3   OH262908   0.154   2.528  14.477 -0.2374  0.0627  0.3755
13806TIP3    H162909   0.159   2.567  14.564 -0.8218 -0.1649  0.5113
13806TIP3    H262910   0.150   2.433  14.493 -0.3087  0.0181  0.0966
13807TIP3   OH262911   0.340   0.631  16.274 -0.4229  0.7606  0.3420
13807TIP3    H162912   0.254   0.589  16.283 -0.6133  0.8772 -0.7963
13807TIP3    H262913   0.345   0.656  16.182  0.8144  0.8100  0.4074
13808TIP3   OH262914   0.034   3.688   3.082  0.1120 -0.0474  0.0040
13808TIP3    H162915  -0.030   3.627   3.117 -2.6619  1.5981 -1.8055
13808TIP3    H262916   0.038   3.667   2.989  0.4453  1.3551 -0.3174
13809TIP3   OH262917   0.812   1.905  11.983 -0.1545  0.7885  0.0750
13809TIP3    H162918   0.827   1.870  11.895  3.4065  1.8086  0.1020
13809TIP3    H262919   0.812   1.828  12.040  0.7725  0.3119 -0.5391
13810TIP3   OH262920   0.646   1.190  13.604  0.4558 -0.0526 -0.5489
13810TIP3    H162921   0.628   1.156  13.691  2.0112  0.7733  0.1515
13810TIP3    H262922   0.594   1.270  13.598  0.1228 -0.2646 -0.4916
13811TIP3   OH262923   5.814   1.320   4.307 -0.7098  0.2758 -0.0805
13811TIP3    H162924   5.825   1.241   4.360 -1.0125  0.6696  0.5873
13811TIP3    H262925   5.739   1.365   4.347 -0.7168  0.7572 -0.6296
13812TIP3   OH262926   5.231   2.000   6.551  0.3500 -0.5261 -1.0733
13812TIP3    H162927   5.169   1.927   6.560  1.7887 -1.7743 -0.7942
13812TIP3    H262928   5.317   1.957   6.542  1.5958  1.1451  1.7295
13813TIP3   OH262929   1.165   2.398  12.340 -0.2641 -0.9741  0.7555
13813TIP3    H162930   1.108   2.390  12.264  1.2217  0.8416 -0.6245
13813TIP3    H262931   1.223   2.471  12.320  0.2556 -0.4760  3.6149
13814TIP3   OH262932   1.904   5.648  12.931  0.0322 -0.4130 -0.2492
13814TIP3    H162933   1.965   5.683  12.996 -3.2553  3.7560  1.0653
13814TIP3    H262934   1.936   5.680  12.847  0.5910  0.2870  0.2221
13815TIP3   OH262935   5.716   0.653   3.286  0.1023  0.0165 -0.4512
13815TIP3    H162936   5.772   0.682   3.358  3.0003 -1.0027 -2.1372
13815TIP3    H262937   5.705   0.730   3.231  0.3554  0.0834 -0.4091
13816TIP3   OH262938   1.230   6.296  13.366  0.0209  0.3080 -0.2339
13816TIP3    H162939   1.279   6.244  13.302  0.5889 -0.3449  0.6911
13816TIP3    H262940   1.293   6.361  13.397  0.2477 -0.3413  0.7373
13817TIP3   OH262941   1.200   0.962  11.714 -0.6001  0.0497 -0.4868
13817TIP3    H162942   1.268   0.899  11.737  1.1911  1.9756 -0.1491
13817TIP3    H262943   1.190   0.954  11.619  1.9523  1.3533 -0.9559
13818TIP3   OH262944   0.361   2.621  15.253 -0.2336  0.1502  0.3948
13818TIP3    H162945   0.351   2.531  15.284 -0.2055 -0.0616 -0.2010
13818TIP3    H262946   0.309   2.673  15.315 -2.3261 -0.5521 -0.6701
13819TIP3   OH262947   0.235   0.477  14.523  0.0700 -0.2432  0.1602
13819TIP3    H162948   0.261   0.505  14.435 -0.2095 -2.1859 -0.5984
13819TIP3    H262949   0.146   0.511  14.533  0.1522  0.1062 -0.2591
13820TIP3   OH262950   2.456   1.511  16.451 -0.5127  0.0893 -0.4566
13820TIP3    H162951   2.367   1.542  16.472 -0.6492 -0.3679 -0.3529
13820TIP3    H262952   2.513   1.573  16.496 -0.7958 -0.2622  0.4120
13821TIP3   OH262953   5.616   4.610  12.137  0.1315  0.0221 -0.1692
13821TIP3    H162954   5.703   4.646  12.120 -1.1984  2.0589 -3.6055
13821TIP3    H262955   5.620   4.520  12.105  1.5031 -0.7633  1.9294
13822TIP3   OH262956   1.714   4.576   2.393  0.5723  0.0355 -0.1479
13822TIP3    H162957   1.722   4.671   2.407  0.0918  0.0881 -0.1902
13822TIP3    H262958   1.620   4.559   2.404  0.7415 -0.5339  0.4566
13823TIP3   OH262959   5.274   0.596  14.942 -0.4208 -0.2072 -0.4923
13823TIP3    H162960   5.202   0.654  14.917 -0.5714 -0.6514 -1.1212
13823TIP3    H262961   5.340   0.654  14.980 -1.8606 -0.0006  1.9086
13824TIP3   OH262962   4.114   5.628   1.433  0.2541  0.0868 -0.2173
13824TIP3    H162963   4.086   5.652   1.521  0.4873  1.0525 -0.3896
13824TIP3    H262964   4.110   5.710   1.383 -0.8776 -0.6262 -1.3786
13825TIP3   OH262965   3.147   1.062  10.985 -0.6752 -0.3756 -0.2010
13825TIP3    H162966   3.079   0.994  10.987  0.1047 -1.1464  0.7037
13825TIP3    H262967   3.154   1.092  11.075  0.9894 -1.1366 -0.0415
13826TIP3   OH262968   3.965   1.948  14.057 -0.1887 -0.2872 -0.4822
13826TIP3    H162969   3.930   2.036  14.042 -1.0123 -0.6971 -1.0162
13826TIP3    H262970   3.900   1.889  14.020 -0.0224 -1.1678  0.5514
13827TIP3   OH262971   5.086   0.563   0.052 -0.0350 -0.2916 -0.0758
13827TIP3    H162972   5.105   0.610  -0.030 -4.3441 -0.4890 -1.4010
13827TIP3    H262973   5.055   0.630   0.112 -0.9723 -0.6905 -0.1009
13828TIP3   OH262974   6.727   5.340  15.088 -0.2371 -0.0645 -0.7859
13828TIP3    H162975   6.729   5.428  15.052 -2.1570  0.0081 -0.8436
13828TIP3    H262976   6.637   5.310  15.072 -1.3019 -0.0827  3.7102
13829TIP3   OH262977   0.457   4.543   2.521 -0.6785 -0.0897  0.1982
13829TIP3    H162978   0.513   4.592   2.581 -0.4623  0.2295 -0.2618
13829TIP3    H262979   0.516   4.513   2.452 -1.2202  1.0403 -0.7879
13830TIP3   OH262980   5.195   1.640  16.162  0.0764  0.0121 -0.0645
13830TIP3    H162981   5.119   1.670  16.211 -0.2801 -1.2832  0.2186
13830TIP3    H262982   5.268   1.689  16.198 -0.1450 -1.0107  1.9097
13831TIP3   OH262983   2.823   1.375  16.743 -0.0203 -0.0052  0.0047
13831TIP3    H162984   2.900   1.418  16.704 -0.8884  0.4589 -1.2667
13831TIP3    H262985   2.859   1.297  16.785  1.1932  0.3573 -0.2953
13832TIP3   OH262986   2.724   3.289   2.063 -0.1949 -0.5051 -0.0026
13832TIP3    H162987   2.707   3.333   2.146  0.8478  0.2460 -0.1554
13832TIP3    H262988   2.819   3.273   2.064  0.0263  0.5106 -1.4823
13833TIP3   OH262989   4.101   1.652  16.886 -0.2253  0.4795 -0.1999
13833TIP3    H162990   4.145   1.674  16.804  0.2493 -0.6320 -0.2687
13833TIP3    H262991   4.164   1.596  16.932 -0.9723  0.0946  0.3672
13834TIP3   OH262992   5.132   4.965  11.254 -0.3305  0.1585  0.0067
13834TIP3    H162993   5.144   4.982  11.161 -0.3676 -0.8508 -0.1903
13834TIP3    H262994   5.207   4.911  11.278 -1.0280 -0.7054  0.2546
13835TIP3   OH262995   0.884   1.691   5.814  0.1026 -0.2481 -0.1308
13835TIP3    H162996   0.846   1.605   5.795 -0.9071 -0.1654  1.4127
13835TIP3    H262997   0.911   1.686   5.906  0.5126  0.9255 -0.1736
13836TIP3   OH262998   2.103   6.300  16.442 -0.3133 -0.7365  0.0111
13836TIP3    H162999   2.017   6.278  16.476  0.7916 -1.9790  2.2557
13836TIP3    H263000   2.139   6.362  16.506  0.8292 -1.0339 -0.3188
13837TIP3   OH263001   3.294   3.708   2.647 -0.2100  0.0564  0.2436
13837TIP3    H163002   3.224   3.688   2.709  1.1576 -1.2211  1.4751
13837TIP3    H263003   3.288   3.640   2.580  0.0765 -0.2834  0.5598
13838TIP3   OH263004   4.363   1.226  11.933 -0.3534 -0.0085  0.2456
13838TIP3    H163005   4.347   1.155  11.872  0.5801 -1.2468  1.3666
13838TIP3    H263006   4.429   1.280  11.891  0.9345 -1.3315  0.4568
13839TIP3   OH263007   5.963   5.959   6.158 -0.3240 -0.3204 -0.0009
13839TIP3    H163008   5.956   6.043   6.204  0.8180 -0.6410  0.8160
13839TIP3    H263009   5.927   5.976   6.071  0.5307  1.2214 -0.0907
13840TIP3   OH263010   3.265   4.310  12.968  0.5372 -0.0578 -0.0930
13840TIP3    H163011   3.351   4.347  12.989  0.7624  0.4760 -1.8139
13840TIP3    H263012   3.274   4.217  12.987  1.1991  0.1431  0.6187
13841TIP3   OH263013   2.722   6.487   4.508 -0.3980  0.3136  0.2589
13841TIP3    H163014   2.674   6.556   4.553 -1.5495 -2.4781  3.7301
13841TIP3    H263015   2.806   6.528   4.485 -1.0262  2.8834  2.0499
13842TIP3   OH263016   5.511   0.206  16.853  0.1283 -0.3876 -0.3780
13842TIP3    H163017   5.513   0.215  16.948 -0.8547  0.5391 -0.4228
13842TIP3    H263018   5.424   0.169  16.834  0.2856 -0.4903 -0.9247
13843TIP3   OH263019   0.338   2.896  14.836  0.0946  0.6833 -0.5238
13843TIP3    H163020   0.246   2.903  14.814 -0.8236 -1.0176  2.1822
13843TIP3    H263021   0.350   2.805  14.862  2.1979  1.1687  0.4917
13844TIP3   OH263022   5.547   1.848   2.804 -0.0220 -0.0265 -0.1206
13844TIP3    H163023   5.522   1.801   2.883 -3.5233  1.2243 -0.3030
13844TIP3    H263024   5.507   1.799   2.732  2.5735 -0.7951 -1.1479
13845TIP3   OH263025   0.747   4.180   4.942  0.5187 -0.0097 -0.1992
13845TIP3    H163026   0.803   4.147   5.012  1.0692 -0.3193 -0.7760
13845TIP3    H263027   0.744   4.108   4.878 -1.2387 -0.3460  0.2086
13846TIP3   OH263028   0.084   5.515  15.682 -0.1434  0.0725 -0.3687
13846TIP3    H163029   0.080   5.611  15.680 -0.5610  0.0692 -0.0005
13846TIP3    H263030   0.025   5.490  15.754  2.4720 -0.3250  1.8298
13847TIP3   OH263031   5.550   5.064   4.049 -0.0276 -0.6405 -0.8226
13847TIP3    H163032   5.638   5.054   4.014  0.0856 -1.7917 -0.2669
13847TIP3    H263033   5.541   4.991   4.111 -0.7059  0.5238  0.4989
13848TIP3   OH263034   2.995   4.029   3.173 -1.0841  0.1540 -0.1944
13848TIP3    H163035   3.025   3.994   3.257  0.8215 -0.7120 -1.1692
13848TIP3    H263036   2.952   3.955   3.130  1.2060 -0.5661 -1.4365
13849TIP3   OH263037   0.544   2.096  11.480 -0.5824  0.3104  0.2608
13849TIP3    H163038   0.610   2.158  11.447 -0.7765 -0.2456 -1.2477
13849TIP3    H263039   0.532   2.121  11.571  0.3119  1.6556  0.0479
13850TIP3   OH263040   0.130   5.452   1.920 -0.6061 -0.4151 -0.3035
13850TIP3    H163041   0.096   5.448   2.009  1.8547 -1.6123  0.7027
13850TIP3    H263042   0.141   5.545   1.902 -2.3814 -0.0966  0.0717
13851TIP3   OH263043   6.601   2.036   3.582 -0.2408 -0.5330 -0.4436
13851TIP3    H163044   6.554   2.120   3.577  1.5432  0.6289  0.9393
13851TIP3    H263045   6.583   1.993   3.498 -0.3046  1.7379 -1.6656
13852TIP3   OH263046   4.259   2.768   2.295  0.0253  0.1532  0.2775
13852TIP3    H163047   4.183   2.787   2.350  0.2057  0.8763  0.2938
13852TIP3    H263048   4.322   2.836   2.318  1.0570 -0.9821  0.9546
13853TIP3   OH263049   3.142   2.225   3.381 -0.7960  0.1231 -0.5500
13853TIP3    H163050   3.211   2.179   3.332  0.1179  2.2642 -1.3857
13853TIP3    H263051   3.190   2.274   3.449 -1.4528  1.7339 -1.2144
13854TIP3   OH263052   1.504   5.037  12.038  0.3316  0.1607 -0.2431
13854TIP3    H163053   1.446   4.991  11.978 -0.9388  1.2354  0.1261
13854TIP3    H263054   1.470   5.017  12.125 -0.0945  1.5475 -0.0665
13855TIP3   OH263055   4.916   4.395   4.042  0.4119 -0.1250 -0.3403
13855TIP3    H163056   4.916   4.418   4.135  0.1021  0.2830 -0.4362
13855TIP3    H263057   4.879   4.307   4.040  0.9727 -0.3709 -0.0249
13856TIP3   OH263058   2.330   6.292  15.824  0.2530  0.0044  0.2886
13856TIP3    H163059   2.310   6.381  15.794 -0.3759  0.3729  1.7118
13856TIP3    H263060   2.424   6.291  15.836 -0.0111  1.5617  3.3581
13857TIP3   OH263061   1.351   2.087   4.063 -0.1494 -0.5547  0.2478
13857TIP3    H163062   1.388   2.167   4.025 -0.2272 -1.0696 -0.9378
13857TIP3    H263063   1.331   2.031   3.988  0.1323 -1.8004  1.0777
13858TIP3   OH263064   5.011   0.239  13.723 -0.2695  0.4222  0.3701
13858TIP3    H163065   4.944   0.260  13.788 -1.8602 -1.9035 -0.4039
13858TIP3    H263066   4.970   0.262  13.639  0.6471  0.7115 -0.0078
13859TIP3   OH263067   5.272   2.434  11.744 -0.6303  0.7083 -0.5897
13859TIP3    H163068   5.266   2.528  11.762  0.7482  0.8974 -1.0413
13859TIP3    H263069   5.289   2.429  11.650  3.7626  0.2781  0.0189
13860TIP3   OH263070   3.182   3.447   2.505 -0.5641 -0.0603  0.2264
13860TIP3    H163071   3.244   3.382   2.538 -0.7530 -0.2341  0.2363
13860TIP3    H263072   3.096   3.407   2.517 -0.6889  0.2378  0.3467
13861TIP3   OH263073   0.751   5.352   4.230  0.2227  0.0121 -0.6070
13861TIP3    H163074   0.788   5.432   4.266 -1.5738 -0.2230  1.9534
13861TIP3    H263075   0.809   5.282   4.261 -0.5785 -0.0565  0.7904
13862TIP3   OH263076   2.513   4.073   1.931 -0.4007  0.1720  0.3878
13862TIP3    H163077   2.592   4.021   1.947 -0.6401 -0.3841 -0.2001
13862TIP3    H263078   2.545   4.155   1.894 -0.0644  0.1918  0.7158
13863TIP3   OH263079   1.445   3.238   1.466 -0.0736  0.4584 -0.3227
13863TIP3    H163080   1.534   3.271   1.455  0.1009  0.1755  0.1938
13863TIP3    H263081   1.389   3.314   1.450  0.3504  1.2912  1.8018
13864TIP3   OH263082   2.143   5.708   3.319  0.4036  0.1897  0.1080
13864TIP3    H163083   2.119   5.744   3.404 -0.6465  0.5023 -0.3001
13864TIP3    H263084   2.073   5.737   3.260  2.3219  2.0357 -1.4028
13865TIP3   OH263085   1.826   6.777  15.957  0.5007  0.8736 -0.1580
13865TIP3    H163086   1.796   6.854  16.004  0.6949  0.3386  0.8716
13865TIP3    H263087   1.899   6.744  16.009  0.1996 -0.2058 -0.3849
13866TIP3   OH263088   4.770   5.249  15.487 -0.1781 -0.6219  0.2118
13866TIP3    H163089   4.692   5.250  15.543 -0.0336 -1.6918  0.4563
13866TIP3    H263090   4.824   5.178  15.523  0.3480 -0.7015 -0.7102
13867TIP3   OH263091   6.415   5.945   6.601  0.1880  0.0340  0.3616
13867TIP3    H163092   6.493   5.922   6.551 -0.3477 -0.5571 -0.2273
13867TIP3    H263093   6.448   5.997   6.675  1.0490  0.4971 -0.3219
13868TIP3   OH263094   5.921   6.819   4.257 -0.7441  0.0275 -0.2689
13868TIP3    H163095   5.892   6.903   4.223  1.0895  0.1587 -1.6608
13868TIP3    H263096   5.957   6.773   4.182  1.0834 -0.7407  0.9992
13869TIP3   OH263097   2.666   6.663   2.397  0.7232  0.7119  0.5588
13869TIP3    H163098   2.715   6.735   2.356  1.2936  0.2224  0.3480
13869TIP3    H263099   2.719   6.639   2.473 -0.0606  1.2654  1.2876
13870TIP3   OH263100   0.254   5.528   4.786  0.0850  0.6984 -0.0032
13870TIP3    H163101   0.306   5.607   4.774 -0.2943  0.7698 -1.2855
13870TIP3    H263102   0.175   5.558   4.831  1.6776  0.3707  3.3109
13871TIP3   OH263103   1.257   1.005  13.189 -0.1116 -0.7056  0.1152
13871TIP3    H163104   1.201   0.947  13.241 -0.5528 -0.1860  0.2190
13871TIP3    H263105   1.216   1.091  13.194  1.4902  0.0540  1.4381
13872TIP3   OH263106   3.030   0.437  14.297  0.5968  0.1863  0.3265
13872TIP3    H163107   3.095   0.476  14.239  0.7765  0.7046  0.8632
13872TIP3    H263108   3.048   0.343  14.294  0.7962  0.2393 -0.2139
13873TIP3   OH263109   3.153   1.720  16.100  0.3882 -0.3563 -1.1169
13873TIP3    H163110   3.065   1.734  16.065  0.4188  1.4023 -0.5969
13873TIP3    H263111   3.208   1.780  16.049  0.5215  1.9176  1.4560
13874TIP3   OH263112   3.605   5.366  13.680 -0.3519  0.1409  0.1446
13874TIP3    H163113   3.692   5.328  13.696 -0.4923  0.2909  1.4174
13874TIP3    H263114   3.617   5.460  13.696 -1.1342 -0.0657  2.3031
13875TIP3   OH263115   0.168   3.312   4.697  0.0724  0.3763  0.3012
13875TIP3    H163116   0.077   3.290   4.719 -0.0601  0.5459 -0.0702
13875TIP3    H263117   0.170   3.408   4.698  0.5472  0.3701  1.5068
13876TIP3   OH263118   1.041   6.018  13.070 -0.3858 -0.2911 -0.3927
13876TIP3    H163119   1.066   6.109  13.084 -0.7820 -0.4718  1.8076
13876TIP3    H263120   0.950   6.012  13.099 -1.1079 -0.9718 -2.5508
13877TIP3   OH263121   5.526   5.810  15.616  0.0269  0.3171  0.3619
13877TIP3    H163122   5.581   5.779  15.545 -0.1678  1.7512 -0.4486
13877TIP3    H263123   5.466   5.737  15.633  0.9851 -0.5699  0.0404
13878TIP3   OH263124   0.905   2.262  13.940 -0.0189 -0.8394  0.1941
13878TIP3    H163125   0.862   2.341  13.973  0.7922 -0.6043  0.6862
13878TIP3    H263126   0.968   2.294  13.875 -0.0608 -1.1274  0.0081
13879TIP3   OH263127   6.364   5.223   3.823  0.6959  0.8319  0.7569
13879TIP3    H163128   6.387   5.153   3.762  0.3809  1.4285 -0.0824
13879TIP3    H263129   6.310   5.181   3.890  0.3273  0.3136  0.1407
13880TIP3   OH263130   1.093   0.659  15.608 -0.2412 -0.4316 -0.4544
13880TIP3    H163131   1.037   0.719  15.658 -0.4861 -1.0524  0.0434
13880TIP3    H263132   1.171   0.710  15.588 -0.8577  0.3632 -0.9116
13881TIP3   OH263133   1.256   5.564   0.547 -0.1408  0.2726 -0.0692
13881TIP3    H163134   1.291   5.652   0.554  1.3448 -0.1641 -1.3684
13881TIP3    H263135   1.312   5.511   0.603  0.1325 -0.1368 -0.7181
13882TIP3   OH263136   0.333   5.632  14.681  0.1223  0.0661  0.2242
13882TIP3    H163137   0.316   5.686  14.759  0.2559  1.3321 -0.5975
13882TIP3    H263138   0.428   5.637  14.669  0.1154 -0.2245  0.0461
13883TIP3   OH263139   2.397   3.044  11.852 -0.4557  0.0079  0.0334
13883TIP3    H163140   2.491   3.041  11.871 -0.1776  0.7489 -1.0951
13883TIP3    H263141   2.356   2.997  11.924  0.7088  0.5198  1.0582
13884TIP3   OH263142   4.094   2.596   5.435  0.6181 -0.2144  0.4567
13884TIP3    H163143   4.069   2.526   5.374  1.5784  0.1048 -0.3130
13884TIP3    H263144   4.055   2.569   5.519 -2.1075  0.1412 -0.6072
13885TIP3   OH263145   1.686   1.753  15.542 -0.2887  0.4067  0.0096
13885TIP3    H163146   1.679   1.658  15.556 -0.2466  0.4803  0.5451
13885TIP3    H263147   1.760   1.780  15.597  0.3565  0.5920 -0.9317
13886TIP3   OH263148   2.806   2.929   5.625  0.0362  0.1607 -0.4975
13886TIP3    H163149   2.894   2.920   5.660 -0.2956  0.8050  0.5522
13886TIP3    H263150   2.818   2.966   5.538  0.8267 -0.3438 -0.6068
13887TIP3   OH263151   4.577   0.404   6.541 -0.4626  0.6036  0.1254
13887TIP3    H163152   4.599   0.474   6.480  1.1327  1.0953  1.2111
13887TIP3    H263153   4.555   0.449   6.623 -1.6115 -0.0878  0.2273
13888TIP3   OH263154   4.886   2.693   3.697 -0.0246  0.7992 -0.5415
13888TIP3    H163155   4.969   2.731   3.728 -0.1368  0.0037  0.7988
13888TIP3    H263156   4.824   2.766   3.701 -0.3371  0.5093  2.4093
13889TIP3   OH263157   3.660   1.135  15.196 -0.3941  0.0175  0.1405
13889TIP3    H163158   3.686   1.126  15.288  0.4744  3.7643  0.4473
13889TIP3    H263159   3.584   1.079  15.187  0.0956 -1.2633  2.8628
13890TIP3   OH263160   3.930   0.549   5.352 -0.4641 -0.0692 -1.0530
13890TIP3    H163161   3.922   0.638   5.320  0.2818 -0.6198 -2.8735
13890TIP3    H263162   3.880   0.496   5.291 -1.5041 -0.8551  0.4074
13891TIP3   OH263163   3.871   5.935  16.904 -0.5376  0.1861  0.3201
13891TIP3    H163164   3.811   5.886  16.960 -0.0047  1.3806  2.0383
13891TIP3    H263165   3.957   5.897  16.922 -0.6325 -1.0748 -1.6258
13892TIP3   OH263166   2.504   2.109   1.779 -0.2993 -0.3444 -0.1282
13892TIP3    H163167   2.592   2.141   1.762  0.2048 -1.4886  0.2268
13892TIP3    H263168   2.495   2.115   1.875 -0.8553  0.3647 -0.2142
13893TIP3   OH263169   0.363   6.405   5.780 -0.2007  0.1919 -0.2621
13893TIP3    H163170   0.309   6.353   5.839 -1.7427  0.5528 -1.3140
13893TIP3    H263171   0.421   6.454   5.838 -0.6724 -0.5670  0.8736
13894TIP3   OH263172   1.663   2.907   1.933 -0.7591 -0.2420  0.1182
13894TIP3    H163173   1.668   2.972   1.864  1.6173 -1.9853 -1.4852
13894TIP3    H263174   1.708   2.947   2.008 -0.4524  0.4104 -0.4072
13895TIP3   OH263175   3.458   5.254  12.105 -0.2309  0.3889  0.2938
13895TIP3    H163176   3.453   5.239  12.199 -3.6013  0.8320  0.3106
13895TIP3    H263177   3.413   5.179  12.066  0.9748  0.2860 -0.9956
13896TIP3   OH263178   3.977   0.971  13.673  0.3921 -0.0062 -0.3317
13896TIP3    H163179   3.935   0.980  13.759 -1.7051  1.3063 -1.4312
13896TIP3    H263180   4.071   0.970  13.693  0.0900  2.7366  1.8359
13897TIP3   OH263181   2.589   1.268   4.613 -0.5137 -0.0572  0.0627
13897TIP3    H163182   2.684   1.275   4.624 -0.6521  0.1347  1.3643
13897TIP3    H263183   2.568   1.180   4.643 -0.6435 -0.4905 -1.2377
13898TIP3   OH263184   6.197   0.594  13.426 -0.3489 -0.1371 -0.2351
13898TIP3    H163185   6.143   0.669  13.452 -1.8824 -2.2358  3.5784
13898TIP3    H263186   6.134   0.528  13.397  0.7528 -0.7128 -1.4062
13899TIP3   OH263187   4.637   5.039   2.795  0.0419  0.2079  0.4402
13899TIP3    H163188   4.719   4.994   2.816 -0.0292  1.0011  2.7241
13899TIP3    H263189   4.619   5.093   2.872 -1.1028  2.3507 -1.2109
13900TIP3   OH263190   0.856   4.307  16.302 -0.4440  0.0781  0.5448
13900TIP3    H163191   0.815   4.375  16.355 -0.4335 -0.1347  0.8253
13900TIP3    H263192   0.805   4.306  16.221 -1.7561 -0.9727  1.3314
13901TIP3   OH263193   0.384   1.093   3.602 -0.7036  0.4248 -0.3918
13901TIP3    H163194   0.339   1.029   3.657  1.9863  0.7008  2.3843
13901TIP3    H263195   0.454   1.044   3.560  0.3887  1.1534  0.5074
13902TIP3   OH263196   2.333   6.465   0.044 -0.2638  0.3400  0.8686
13902TIP3    H163197   2.284   6.454   0.126 -0.6929 -0.9183  0.4741
13902TIP3    H263198   2.280   6.526  -0.007 -0.6941  0.0926  1.0098
13903TIP3   OH263199   4.966   3.461   5.288  0.1725 -0.1285  0.7193
13903TIP3    H163200   4.935   3.433   5.374 -1.6304  0.6230  0.3517
13903TIP3    H263201   4.888   3.459   5.232  1.2684 -0.4383 -0.8750
13904TIP3   OH263202   4.744   3.510   0.577 -0.1348  0.0926  0.5762
13904TIP3    H163203   4.792   3.591   0.559 -1.1360  0.4795 -0.4885
13904TIP3    H263204   4.811   3.446   0.599  0.7253  1.0418  0.7536
13905TIP3   OH263205   4.402   2.841  14.109  0.2327  0.6678  0.4156
13905TIP3    H163206   4.353   2.923  14.101  0.7637  0.8926 -0.8144
13905TIP3    H263207   4.351   2.789  14.171 -0.9935  1.3057 -0.0102
13906TIP3   OH263208   2.157   0.080   3.576  0.2026 -0.3079 -0.3927
13906TIP3    H163209   2.205  -0.002   3.572 -0.6924 -0.8051 -2.1129
13906TIP3    H263210   2.211   0.142   3.526  0.0818 -0.2881 -0.4985
13907TIP3   OH263211   6.640   2.332  13.118  0.6914  0.4643 -0.2521
13907TIP3    H163212   6.576   2.361  13.053 -1.4959 -2.9729  0.1189
13907TIP3    H263213   6.724   2.343  13.075 -0.2158  3.2191 -1.5814
13908TIP3   OH263214   5.839   0.946   4.780  0.4873  0.3891 -0.5964
13908TIP3    H163215   5.827   1.039   4.798  2.0714  0.1502  2.1431
13908TIP3    H263216   5.930   0.938   4.752  0.3278 -0.3253 -0.9315
13909TIP3   OH263217   3.972   4.251   4.031  0.2321  0.0833 -0.1819
13909TIP3    H163218   3.965   4.199   3.951  0.8911  1.1780 -0.9917
13909TIP3    H263219   3.937   4.337   4.006  2.4210  1.1150  0.0338
13910TIP3   OH263220   6.393   6.412   4.077  0.0756 -0.1708 -0.1357
13910TIP3    H163221   6.404   6.392   3.984 -0.5611 -2.6925  0.2804
13910TIP3    H263222   6.449   6.349   4.122 -0.1230  0.6040  1.2367
13911TIP3   OH263223   4.917   3.990  15.999 -0.4690 -0.2012  0.3408
13911TIP3    H163224   4.999   3.975  16.047  0.0545  2.7148  0.5228
13911TIP3    H263225   4.869   4.054  16.052 -0.7337  1.6942 -2.0203
13912TIP3   OH263226   3.461   3.594   1.239 -0.5552 -0.8290 -0.2813
13912TIP3    H163227   3.382   3.632   1.201 -0.9079 -1.1674  0.1005
13912TIP3    H263228   3.501   3.544   1.168 -0.4947 -0.3763 -0.5725
13913TIP3   OH263229   6.506   2.919   7.077  0.5235 -0.4337  0.4589
13913TIP3    H163230   6.461   2.842   7.112  0.0726  1.2566  4.0736
13913TIP3    H263231   6.594   2.889   7.058  0.2314 -1.9596  1.3769
13914TIP3   OH263232   1.049   6.124  13.474  0.7612 -0.1623 -0.1703
13914TIP3    H163233   1.047   6.155  13.565  3.0852  0.8147 -0.3869
13914TIP3    H263234   1.119   6.174  13.433 -0.3089 -0.4863 -2.5768
13915TIP3   OH263235   2.698   4.140   2.587 -0.0023 -0.0050  0.1526
13915TIP3    H163236   2.717   4.054   2.624 -0.2716  0.0732  0.4743
13915TIP3    H263237   2.603   4.145   2.585  0.0121  0.1392 -0.2076
13916TIP3   OH263238   6.624   2.253  16.579  0.0894  0.0512  0.1569
13916TIP3    H163239   6.620   2.172  16.630 -1.1349  0.5097  0.8137
13916TIP3    H263240   6.716   2.259  16.553  0.7370 -0.3106  2.1530
13917TIP3   OH263241   0.936   2.524   1.972  0.4393 -0.0564  0.3366
13917TIP3    H163242   1.026   2.556   1.966 -0.0876  1.3171 -0.8910
13917TIP3    H263243   0.924   2.501   2.064  1.5359  1.2950  0.8422
13918TIP3   OH263244   4.341   2.437   5.215  0.5344 -0.2306  0.0306
13918TIP3    H163245   4.369   2.482   5.135 -0.7232  1.8013  0.6692
13918TIP3    H263246   4.422   2.425   5.265  1.0929  0.0074 -0.7928
13919TIP3   OH263247   1.570   6.490   1.715  0.1670 -0.0624  0.8967
13919TIP3    H163248   1.515   6.546   1.770 -0.3746  0.3661 -0.0539
13919TIP3    H263249   1.652   6.540   1.704 -0.0188  0.1988  0.6861
13920TIP3   OH263250   5.568   6.228  15.158  0.0938  0.1653 -0.1361
13920TIP3    H163251   5.517   6.298  15.199  0.4851  0.7826 -0.6757
13920TIP3    H263252   5.530   6.219  15.071 -0.6605 -1.0657  0.2968
13921TIP3   OH263253   2.067   1.686  17.195  0.2771  0.2201  0.3643
13921TIP3    H163254   2.021   1.764  17.164  1.7863  1.1853  0.4395
13921TIP3    H263255   2.106   1.649  17.116  0.7348  0.3531  0.5255
13922TIP3   OH263256   0.700   4.452  16.470  0.3154  0.2797  0.6887
13922TIP3    H163257   0.641   4.426  16.541 -1.8645 -0.1261 -1.1426
13922TIP3    H263258   0.659   4.529  16.432  1.5490  0.6173 -0.0046
13923TIP3   OH263259   4.832   3.001  14.404 -0.3181 -0.0739 -0.1369
13923TIP3    H163260   4.826   3.088  14.365  0.1378 -0.0474 -0.1556
13923TIP3    H263261   4.755   2.955  14.372  0.6127 -0.4128 -2.0072
13924TIP3   OH263262   5.777   1.197  11.985  0.2401  0.0829 -0.0634
13924TIP3    H163263   5.844   1.169  12.047 -1.1355 -2.8240  0.3138
13924TIP3    H263264   5.726   1.262  12.032  1.4941  0.7652  0.3960
13925TIP3   OH263265   2.009   4.821  14.940  0.8966 -0.4580  0.0429
13925TIP3    H163266   1.936   4.760  14.929 -0.2093  0.0413  3.2959
13925TIP3    H263267   1.974   4.906  14.914 -0.1110 -0.0705  2.3823
13926TIP3   OH263268   5.491   6.159   0.766 -0.2519  0.0023  0.0666
13926TIP3    H163269   5.471   6.249   0.740  0.6083  0.2213  0.1527
13926TIP3    H263270   5.479   6.108   0.686 -2.1283 -0.0495  0.3302
13927TIP3   OH263271   5.412   3.803  15.937 -0.1261  0.0831 -0.1994
13927TIP3    H163272   5.461   3.799  16.019  1.0745  0.6639 -0.8565
13927TIP3    H263273   5.449   3.734  15.883 -1.4457 -0.8109 -0.0031
13928TIP3   OH263274   1.534   5.454  15.578 -0.2123 -0.2127 -0.5889
13928TIP3    H163275   1.552   5.362  15.596 -0.9120  0.0932  2.1975
13928TIP3    H263276   1.618   5.490  15.549  1.4244 -0.7997  2.8837
13929TIP3   OH263277   1.066   2.903   0.440  0.2171 -0.3935 -0.1764
13929TIP3    H163278   1.014   2.981   0.421  1.4968  0.9204  1.3806
13929TIP3    H263279   1.102   2.919   0.527  0.0806 -3.0044  0.4357
13930TIP3   OH263280   4.865   4.954   4.425 -0.0874  0.1064  0.0096
13930TIP3    H163281   4.903   4.941   4.338 -0.4699 -2.5466  0.1484
13930TIP3    H263282   4.940   4.956   4.484  0.0868 -0.1239 -0.2018
13931TIP3   OH263283   0.560   2.159   6.654  0.3405  0.0626 -0.2315
13931TIP3    H163284   0.576   2.226   6.588  0.3630 -2.1891 -2.6615
13931TIP3    H263285   0.471   2.177   6.686 -0.1310  0.5515 -1.7390
13932TIP3   OH263286   2.903   0.343   2.513 -0.1938  0.3414  0.3235
13932TIP3    H163287   2.946   0.405   2.572  0.8835 -0.3997  0.3332
13932TIP3    H263288   2.972   0.314   2.454 -0.3640 -1.7944  1.0944
13933TIP3   OH263289   1.021   2.403   4.039  0.3396 -0.3696  0.2598
13933TIP3    H163290   0.977   2.330   3.995 -0.5759  1.0508 -1.2782
13933TIP3    H263291   0.962   2.427   4.110  0.3492 -0.7115  0.3873
13934TIP3   OH263292   0.571   0.966  16.011 -0.1983  0.0972 -0.4952
13934TIP3    H163293   0.531   1.016  16.083 -0.2602 -1.3783  0.5281
13934TIP3    H263294   0.557   1.021  15.933  0.0760  1.8540  0.6262
13935TIP3   OH263295   0.793   4.964  13.675 -0.0757 -0.1128  0.0551
13935TIP3    H163296   0.776   5.014  13.595  1.2005 -1.0393 -0.8401
13935TIP3    H263297   0.888   4.966  13.684 -0.1892 -0.1535  1.4803
13936TIP3   OH263298   4.017   4.447  16.731 -0.2083 -0.0563 -0.1799
13936TIP3    H163299   4.092   4.492  16.691  0.4044 -0.4140  0.5510
13936TIP3    H263300   3.954   4.437  16.659  0.0476  1.0922 -0.5770
13937TIP3   OH263301   4.886   5.710   2.652  0.3009 -0.1114  0.2497
13937TIP3    H163302   4.969   5.698   2.605 -0.0161 -0.5326 -0.2078
13937TIP3    H263303   4.911   5.713   2.744  1.1162  2.2028  0.0324
13938TIP3   OH263304   2.546   2.470  11.713 -0.3126 -0.1818  0.0768
13938TIP3    H163305   2.451   2.477  11.706 -0.4357 -0.6532  1.0769
13938TIP3    H263306   2.562   2.376  11.722  0.3403 -0.2125 -1.1720
13939TIP3   OH263307   4.640   6.669  15.860 -0.1749  0.0376 -0.1495
13939TIP3    H163308   4.705   6.631  15.918  0.6952 -0.1480 -1.2270
13939TIP3    H263309   4.566   6.608  15.862 -0.1314  0.0087  0.7032
13940TIP3   OH263310   4.756   4.372   1.527 -0.5275 -0.6908  0.0294
13940TIP3    H163311   4.820   4.436   1.496 -0.9752 -0.5529 -0.6160
13940TIP3    H263312   4.731   4.404   1.614 -0.2018 -0.3950  0.0154
13941TIP3   OH263313   2.693   2.332   1.714 -0.1524 -0.5812  0.1897
13941TIP3    H163314   2.675   2.390   1.788  0.2064 -0.3581  0.1049
13941TIP3    H263315   2.619   2.345   1.655 -0.5752 -0.9602  0.6290
13942TIP3   OH263316   2.897   0.351  13.659 -0.7221  0.1569 -0.2063
13942TIP3    H163317   2.905   0.446  13.664  0.4640  0.1605 -1.6303
13942TIP3    H263318   2.935   0.319  13.741 -0.9282  0.8871  0.1797
13943TIP3   OH263319   2.772   2.167   2.872 -0.6416  0.0289  0.1517
13943TIP3    H163320   2.767   2.095   2.936  0.9999  0.5429  0.9283
13943TIP3    H263321   2.827   2.132   2.802 -1.1365  0.0044 -0.2251
13944TIP3   OH263322   6.040   4.336   3.243 -0.5438  0.2587  0.8405
13944TIP3    H163323   6.086   4.361   3.323 -1.7868 -0.0411  1.6696
13944TIP3    H263324   6.059   4.243   3.231  0.2327  0.4712  0.3731
13945TIP3   OH263325   5.268   6.060   3.007 -0.4075 -0.6048  0.0545
13945TIP3    H163326   5.287   6.121   3.079 -0.0944 -1.0884  0.3916
13945TIP3    H263327   5.201   6.104   2.955  0.6661  0.5774 -0.4016
13946TIP3   OH263328   1.501   3.118  14.462  0.3837 -0.7037  0.7767
13946TIP3    H163329   1.541   3.102  14.376 -0.3284 -0.4321  0.3924
13946TIP3    H263330   1.427   3.058  14.465  0.8421 -1.2495  1.5164
13947TIP3   OH263331   1.052   3.268  14.524 -0.3231 -0.0641 -0.1581
13947TIP3    H163332   1.137   3.228  14.504 -1.2670 -0.8128 -3.2384
13947TIP3    H263333   1.074   3.350  14.569  2.2588  0.9596 -2.9090
13948TIP3   OH263334   2.843   4.112   5.174 -0.0889  0.3265  0.2895
13948TIP3    H163335   2.893   4.113   5.256 -1.2145  0.0894  1.0022
13948TIP3    H263336   2.752   4.119   5.202 -0.5025  0.0287 -0.9400
13949TIP3   OH263337   4.785   6.696   0.330 -0.0366  0.4781 -0.3771
13949TIP3    H163338   4.730   6.630   0.371  0.3622  0.0198 -0.5782
13949TIP3    H263339   4.723   6.758   0.291 -0.4278 -0.6606 -1.6214
13950TIP3   OH263340   5.147   0.903   4.590  0.2054  0.3860  0.5133
13950TIP3    H163341   5.187   0.936   4.510  0.1851 -0.8262 -0.0139
13950TIP3    H263342   5.221   0.872   4.643  0.1778  0.7570  0.7798
13951TIP3   OH263343   1.302   6.758   3.750  0.4272 -0.1415  0.4831
13951TIP3    H163344   1.374   6.716   3.795  0.7591  0.0587  0.1447
13951TIP3    H263345   1.343   6.825   3.695 -0.0154  0.0089  0.3249
13952TIP3   OH263346   2.565   3.617   5.715  0.3745  0.2482 -0.8075
13952TIP3    H163347   2.636   3.554   5.732 -0.7496 -0.7795  0.2156
13952TIP3    H263348   2.557   3.666   5.797 -0.0236  0.4478 -0.9665
13953TIP3   OH263349   4.121   0.014   5.529 -0.5809 -0.3012 -0.1091
13953TIP3    H163350   4.120   0.110   5.522 -1.1961 -0.3408 -0.6290
13953TIP3    H263351   4.080  -0.004   5.613 -1.1107 -0.1274 -0.3251
13954TIP3   OH263352   2.616   1.499   1.221  0.0592 -0.2373  0.1933
13954TIP3    H163353   2.699   1.459   1.248  0.1083  0.1293  0.5829
13954TIP3    H263354   2.617   1.586   1.261 -0.4180 -0.1511  0.0195
13955TIP3   OH263355   5.958   6.103  14.688 -0.7718 -0.0500  0.2894
13955TIP3    H163356   5.989   6.158  14.760  2.3652 -1.1975 -0.0308
13955TIP3    H263357   5.899   6.160  14.639  0.4336  2.2327  1.3105
13956TIP3   OH263358   3.450   5.598   5.195  0.2956 -0.4255 -0.6584
13956TIP3    H163359   3.406   5.649   5.127  0.4737 -1.0727 -1.2650
13956TIP3    H263360   3.488   5.523   5.149  0.5762 -0.7779  0.1244
13957TIP3   OH263361   2.513   1.267  14.171  0.2107  0.4908  0.6438
13957TIP3    H163362   2.503   1.361  14.187  0.0308  1.1231 -2.4769
13957TIP3    H263363   2.502   1.258  14.076 -0.0964 -2.7533  0.8821
13958TIP3   OH263364   3.927   2.133  15.662 -0.2113  0.0187 -0.3047
13958TIP3    H163365   3.990   2.064  15.682 -0.6788 -0.5448 -0.7573
13958TIP3    H263366   3.980   2.212  15.655  0.5635 -0.5878 -1.5328
13959TIP3   OH263367   2.776   4.376   2.472 -0.1180  0.0100 -0.0528
13959TIP3    H163368   2.736   4.289   2.477 -0.7042  0.2025 -1.0341
13959TIP3    H263369   2.734   4.417   2.396 -0.5825  1.5230  0.9651
13960TIP3   OH263370   2.262   6.713  15.301  0.2185  0.6645 -0.2000
13960TIP3    H163371   2.171   6.684  15.291  0.1426  0.0458  1.9047
13960TIP3    H263372   2.267   6.792  15.247 -1.7064  0.9607 -0.0282
13961TIP3   OH263373   2.982   3.213   2.120  0.2420 -0.1385 -0.1641
13961TIP3    H163374   3.017   3.133   2.081  2.9761  0.9226 -0.1225
13961TIP3    H263375   3.057   3.273   2.122 -1.5332  2.2089  0.4024
13962TIP3   OH263376   2.179   3.696   6.272  0.2733 -0.1852 -0.1084
13962TIP3    H163377   2.126   3.673   6.197  0.5641 -0.1095 -0.3392
13962TIP3    H263378   2.255   3.742   6.235 -0.4523  1.4652  0.3474
13963TIP3   OH263379   4.467   2.585  16.168 -0.4568  0.8273  0.3548
13963TIP3    H163380   4.422   2.543  16.093  1.5260 -0.2415 -0.3021
13963TIP3    H263381   4.535   2.638  16.128  0.7683  0.0837  1.3991
13964TIP3   OH263382   3.671   0.077  13.191 -0.2595 -0.5666  0.9358
13964TIP3    H163383   3.579   0.050  13.196 -0.2163 -0.7100  0.9513
13964TIP3    H263384   3.686   0.127  13.271  0.2720 -2.3534  2.0019
13965TIP3   OH263385   4.803   4.297   0.929 -0.4596  0.5432  0.1692
13965TIP3    H163386   4.884   4.346   0.947  0.3149 -0.7804  0.4131
13965TIP3    H263387   4.746   4.318   1.003 -0.2005  1.1993  0.1926
13966TIP3   OH263388   2.046   1.659   5.266 -0.4345 -0.4263  0.0807
13966TIP3    H163389   2.117   1.705   5.221 -1.5678  2.0546  0.6638
13966TIP3    H263390   2.055   1.568   5.237  3.5893 -0.5139  0.9445
13967TIP3   OH263391   2.199   3.568   4.658 -0.1172 -0.2916 -0.0430
13967TIP3    H163392   2.235   3.649   4.693  0.1919 -0.5095  0.1543
13967TIP3    H263393   2.159   3.524   4.733  2.4397 -1.7919  0.5889
13968TIP3   OH263394   2.050   2.537   1.544 -0.3292 -0.0204  0.0997
13968TIP3    H163395   2.099   2.618   1.549 -0.6302  0.0873  1.5683
13968TIP3    H263396   2.044   2.506   1.634 -0.4402 -1.5432 -0.3983
13969TIP3   OH263397   2.357   1.963   5.654  0.1840  0.2006 -0.2539
13969TIP3    H163398   2.314   2.041   5.691 -0.8532 -0.4542 -0.0136
13969TIP3    H263399   2.286   1.899   5.649  1.0161 -0.6998 -0.5175
13970TIP3   OH263400   0.991   4.416  16.523 -0.2220  0.2686 -0.5318
13970TIP3    H163401   0.956   4.351  16.462 -0.9036 -0.5428  0.6960
13970TIP3    H263402   0.922   4.483  16.527 -0.6934 -0.2524  0.2211
13971TIP3   OH263403   1.676   0.187   5.252  0.2825 -0.2418  0.4033
13971TIP3    H163404   1.699   0.280   5.255  0.6652 -0.3153 -0.0985
13971TIP3    H263405   1.744   0.144   5.303  1.0242 -0.4059 -0.6749
13972TIP3   OH263406   1.704   2.159  15.562  0.8733 -0.4713 -0.1433
13972TIP3    H163407   1.776   2.207  15.602 -0.1584 -0.3592  1.6623
13972TIP3    H263408   1.629   2.174  15.619 -1.3056  1.4133 -3.1875
13973TIP3   OH263409   2.344   4.113  13.234  0.3182 -0.1250  0.6769
13973TIP3    H163410   2.377   4.201  13.253  2.1536 -0.6095  0.0100
13973TIP3    H263411   2.281   4.095  13.303 -0.2079  1.7623  0.7421
13974TIP3   OH263412   3.054   5.629  11.645  0.4443 -0.5384  0.5521
13974TIP3    H163413   3.055   5.657  11.736  1.3977 -2.1479  1.0718
13974TIP3    H263414   3.072   5.709  11.595  1.0496  0.1521  1.8279
13975TIP3   OH263415   2.553   0.449   0.057  0.3038 -0.0893 -0.4103
13975TIP3    H163416   2.565   0.354   0.051  1.1354 -0.2088  2.1733
13975TIP3    H263417   2.480   0.460   0.118  0.0223  0.9431 -0.9192
13976TIP3   OH263418   4.331   5.624   2.406  0.1347  1.3325 -0.8937
13976TIP3    H163419   4.334   5.533   2.435 -0.2658  1.6211  0.1139
13976TIP3    H263420   4.423   5.652   2.403  0.2110  1.1784 -0.2315
13977TIP3   OH263421   0.032   5.355   0.576  0.2326  0.6483 -0.1538
13977TIP3    H163422   0.080   5.296   0.518 -0.2052 -0.4555  0.5711
13977TIP3    H263423   0.095   5.422   0.601  1.3485 -0.6543  0.6218
13978TIP3   OH263424   0.111   2.265   5.106 -0.0512  0.7201  0.0304
13978TIP3    H163425   0.092   2.192   5.165  0.6095  1.1920  0.8515
13978TIP3    H263426   0.163   2.326   5.159 -0.0765  1.5051 -0.8207
13979TIP3   OH263427   2.179   1.991   5.225  0.2626  0.3965  0.3537
13979TIP3    H163428   2.160   2.057   5.291  2.0774  0.5520  0.7675
13979TIP3    H263429   2.273   1.974   5.233 -0.0863 -2.0826  0.1162
13980TIP3   OH263430   0.766   6.453  16.016  0.2835 -0.4346 -0.2716
13980TIP3    H163431   0.698   6.389  16.036 -1.0741  0.9194 -0.4361
13980TIP3    H263432   0.815   6.414  15.944  0.9463 -2.3010  1.1065
13981TIP3   OH263433   3.849   4.071  16.214  0.1134  0.0358  0.0550
13981TIP3    H163434   3.911   4.124  16.164  0.6506 -1.3413 -0.8001
13981TIP3    H263435   3.839   3.991  16.163 -1.9052 -0.0418  0.5104
13982TIP3   OH263436   4.945   4.585   2.506 -0.3930  0.4336  0.4368
13982TIP3    H163437   5.029   4.539   2.499 -1.0149 -0.7778  0.6029
13982TIP3    H263438   4.914   4.563   2.594 -1.0268  0.6221  0.2619
13983TIP3   OH263439   5.849   6.107  15.043 -0.0480 -0.2650 -0.2448
13983TIP3    H163440   5.756   6.125  15.057  0.1029  0.5168 -0.1871
13983TIP3    H263441   5.877   6.174  14.980  0.5355 -0.3152 -0.0459
13984TIP3   OH263442   3.519   1.524   5.093 -0.1619  0.5349  0.0504
13984TIP3    H163443   3.564   1.608   5.081  0.0484  0.2483 -1.3713
13984TIP3    H263444   3.443   1.529   5.035 -1.1716  0.4465  1.3463
13985TIP3   OH263445   2.133   6.683  16.002  0.4200 -0.7405 -0.8085
13985TIP3    H163446   2.144   6.599  15.957  0.4647 -0.3477 -1.5560
13985TIP3    H263447   2.186   6.675  16.081  0.6614 -1.3103 -1.0198
13986TIP3   OH263448   3.039   6.154   6.262 -0.5449 -0.1148  0.1056
13986TIP3    H163449   3.037   6.187   6.172 -1.3516  1.4200  0.6454
13986TIP3    H263450   3.124   6.181   6.296 -0.4472 -0.2508 -0.0273
13987TIP3   OH263451   1.887   0.315  12.635 -0.3977  0.5296  0.6571
13987TIP3    H163452   1.945   0.379  12.594 -0.4003  0.0509 -0.1221
13987TIP3    H263453   1.914   0.312  12.726  1.1813 -0.0889  0.1958
13988TIP3   OH263454   2.300   0.090  15.976 -0.5359 -0.4344 -0.0491
13988TIP3    H163455   2.271  -0.000  15.961  2.5117 -1.1718 -2.6819
13988TIP3    H263456   2.360   0.084  16.050  1.0704 -1.0317 -1.3309
13989TIP3   OH263457   3.333   1.575  14.740  0.2278  0.4845  0.5173
13989TIP3    H163458   3.422   1.607  14.750  0.6666 -0.4087 -0.3193
13989TIP3    H263459   3.287   1.604  14.819  0.6528  2.8760 -0.0602
13990TIP3   OH263460   1.647   0.543   3.522  0.2233 -0.2076  0.5093
13990TIP3    H163461   1.716   0.504   3.467  0.4089 -0.1652  0.7111
13990TIP3    H263462   1.586   0.471   3.538 -0.5007  0.0908 -0.8099
13991TIP3   OH263463   2.401   5.370  12.216 -0.5240  0.1704 -0.9808
13991TIP3    H163464   2.463   5.443  12.210 -0.8305  0.5774  0.4588
13991TIP3    H263465   2.319   5.406  12.182 -0.6258  0.4537 -0.4520
13992TIP3   OH263466   2.609   6.215  12.930  0.3606 -0.1551  0.6115
13992TIP3    H163467   2.640   6.175  12.849 -0.1144  2.7496 -1.1610
13992TIP3    H263468   2.685   6.215  12.988  1.6101  0.2968 -0.9538
13993TIP3   OH263469   2.738   3.728  11.755 -0.0075 -0.8873 -0.1232
13993TIP3    H163470   2.749   3.740  11.849  0.7078 -0.4445 -0.2552
13993TIP3    H263471   2.643   3.722  11.742 -0.1136 -0.8317  0.6035
13994TIP3   OH263472   6.683   1.647   1.365  0.2941  0.0136 -0.0263
13994TIP3    H163473   6.719   1.572   1.413 -0.8894  0.4700  1.6803
13994TIP3    H263474   6.732   1.722   1.397  1.8179 -0.0192 -2.1011
13995TIP3   OH263475   5.334   0.618  16.837 -0.7535 -0.3686  0.0303
13995TIP3    H163476   5.386   0.622  16.917 -0.0870  0.4124 -0.4239
13995TIP3    H263477   5.302   0.707  16.824 -0.5955 -0.4124 -0.7277
13996TIP3   OH263478   2.562   4.736  16.300 -0.0432 -0.1788 -0.4829
13996TIP3    H163479   2.657   4.739  16.302 -0.0127  3.7370  2.2384
13996TIP3    H263480   2.537   4.685  16.377 -0.1125  0.0802 -0.3316
13997TIP3   OH263481   6.077   2.136   3.912  0.1655 -0.3654  0.1354
13997TIP3    H163482   6.070   2.176   3.999 -0.2709  1.0399 -0.5281
13997TIP3    H263483   6.167   2.155   3.884 -0.2328  0.7532 -0.4426
13998TIP3   OH263484   1.281   3.436   3.803 -0.1797  0.1853  0.1939
13998TIP3    H163485   1.363   3.468   3.841  0.7080 -1.2109 -0.4585
13998TIP3    H263486   1.271   3.348   3.840  0.1900 -0.8244 -1.9250
13999TIP3   OH263487   2.623   2.539  13.984 -0.1519 -0.0904  0.4188
13999TIP3    H163488   2.569   2.525  13.907  1.4869  0.1099 -0.8174
13999TIP3    H263489   2.711   2.509  13.959  1.6478  4.3519  0.4115
14000TIP3   OH263490   5.729   2.110   4.813 -0.1260 -0.6046  0.4528
14000TIP3    H163491   5.673   2.035   4.793 -0.6063 -0.5849  1.6418
14000TIP3    H263492   5.811   2.092   4.767 -1.0253 -0.7327 -1.1558
14001TIP3   OH263493   1.817   2.979   5.384  0.1568 -0.2763 -0.0261
14001TIP3    H163494   1.910   2.957   5.378  0.5553  1.3620 -0.2906
14001TIP3    H263495   1.802   3.042   5.314 -1.2121 -0.6886 -0.1285
14002TIP3   OH263496   1.679   3.161   0.189 -0.0493  0.0926  0.4736
14002TIP3    H163497   1.741   3.129   0.124 -0.3547 -0.3486  0.3919
14002TIP3    H263498   1.604   3.191   0.138  0.6982  2.0630  0.4720
14003TIP3   OH263499   5.653   0.315  14.917  0.0924  0.1506 -0.1424
14003TIP3    H163500   5.724   0.335  14.856  0.4065 -0.0932  0.1379
14003TIP3    H263501   5.627   0.399  14.953  0.1625  0.2529 -0.3303
14004TIP3   OH263502   3.114   4.481   0.818  0.0870  0.6335  0.0008
14004TIP3    H163503   3.060   4.407   0.845  0.9692  0.2254  0.6750
14004TIP3    H263504   3.108   4.543   0.890  0.7752  0.4408  0.2313
14005TIP3   OH263505   0.286   1.887  16.033 -0.0260  0.4742  0.1927
14005TIP3    H163506   0.219   1.926  16.089  0.3650  0.0625  0.9533
14005TIP3    H263507   0.257   1.796  16.021 -0.1777  0.5905 -0.3984
14006TIP3   OH263508   0.356   3.789  12.868  0.3181  0.1835 -0.3408
14006TIP3    H163509   0.317   3.736  12.937 -0.3225 -0.3801 -1.1173
14006TIP3    H263510   0.329   3.879  12.889 -0.8899 -0.1216 -0.5125
14007TIP3   OH263511   2.621   4.908   0.398  0.1049  0.4490  0.3853
14007TIP3    H163512   2.601   4.945   0.313  1.1661 -0.4381 -0.2919
14007TIP3    H263513   2.543   4.925   0.452 -1.0124  0.0968 -1.0674
14008TIP3   OH263514   6.420   0.748  13.051  0.6407 -0.1730 -0.0606
14008TIP3    H163515   6.422   0.680  13.118  0.1801 -1.3033 -1.1638
14008TIP3    H263516   6.429   0.701  12.968 -0.0613  1.0740 -0.8753
14009TIP3   OH263517   4.384   4.087   3.056 -0.1437  0.0516 -0.3006
14009TIP3    H163518   4.331   4.079   3.136 -0.4477  0.1240 -0.4930
14009TIP3    H263519   4.347   4.021   2.997 -1.4455  1.5385 -1.2225
14010TIP3   OH263520   2.218   5.246  13.419 -0.3092 -0.3679 -0.0944
14010TIP3    H163521   2.204   5.333  13.382 -0.3002  0.0270  0.8064
14010TIP3    H263522   2.181   5.186  13.354 -0.4645  0.3141 -0.6477
14011TIP3   OH263523   6.788   4.385  12.250 -0.6285  0.1904  0.3374
14011TIP3    H163524   6.718   4.373  12.185  0.6313  0.5558 -1.1664
14011TIP3    H263525   6.865   4.345  12.209 -0.2330 -1.4722  2.5613
14012TIP3   OH263526   1.121   1.784  13.034 -0.0463 -0.0922  0.4020
14012TIP3    H163527   1.065   1.712  13.064 -2.2189  1.8216  1.3611
14012TIP3    H263528   1.104   1.791  12.940  0.1455 -0.7876  0.3130
14013TIP3   OH263529   1.431   5.740   1.382  0.1765  0.0418 -0.1708
14013TIP3    H163530   1.455   5.828   1.354  0.0646 -0.0115 -0.4426
14013TIP3    H263531   1.432   5.744   1.478 -3.4861  1.3902 -0.0371
14014TIP3   OH263532   3.444   0.960   5.971  0.2229 -0.3859 -0.3680
14014TIP3    H163533   3.490   1.003   6.043  0.5080 -0.9100 -0.2356
14014TIP3    H263534   3.422   1.031   5.911  0.8523 -0.0794 -0.2395
14015TIP3   OH263535   0.762   4.889   0.204 -0.3378 -0.8117 -0.1191
14015TIP3    H163536   0.746   4.978   0.172 -0.8901 -0.8736 -0.0250
14015TIP3    H263537   0.743   4.833   0.128 -1.1755 -0.9261  0.1608
14016TIP3   OH263538   6.417   5.210  13.787  0.3491 -0.0806  0.0098
14016TIP3    H163539   6.436   5.201  13.880 -1.1722 -1.8971  0.2212
14016TIP3    H263540   6.324   5.234  13.784  0.4612  0.2680 -1.0324
14017TIP3   OH263541   4.145   2.208   5.177  0.2325 -0.5077  0.0651
14017TIP3    H163542   4.126   2.247   5.092 -1.1469  1.4341  1.1621
14017TIP3    H263543   4.221   2.256   5.210 -0.4165  0.1341  0.6931
14018TIP3   OH263544   2.172   3.542  12.504  0.3580 -0.0764 -0.3523
14018TIP3    H163545   2.227   3.585  12.570 -1.3849  1.0570  0.4123
14018TIP3    H263546   2.136   3.466  12.549  0.2991 -0.1121 -0.4612
14019TIP3   OH263547   2.852   2.864   1.619  0.1630  0.0086  0.1301
14019TIP3    H163548   2.927   2.807   1.635 -0.1191 -0.2935  0.4081
14019TIP3    H263549   2.813   2.876   1.706  2.3386  3.6785  0.8215
14020TIP3   OH263550   1.909   0.147  16.704 -0.4373 -0.6921  0.1673
14020TIP3    H163551   1.966   0.140  16.628  1.1131 -1.0944  1.3086
14020TIP3    H263552   1.833   0.197  16.674  0.5187 -0.1503 -1.4106
14021TIP3   OH263553   5.793   3.629  16.315 -0.3536 -0.5893  0.1276
14021TIP3    H163554   5.887   3.635  16.331 -0.6038  0.7831  1.2933
14021TIP3    H263555   5.785   3.580  16.233  1.3613 -0.7747  0.0491
14022TIP3   OH263556   0.226   5.921   3.297 -0.0511  0.1790 -0.3501
14022TIP3    H163557   0.293   5.871   3.251  0.8446 -0.6771  1.7502
14022TIP3    H263558   0.159   5.856   3.320  0.1784  0.2941  0.7048
14023TIP3   OH263559   4.629   4.446  14.660  0.1165  0.1501 -0.1428
14023TIP3    H163560   4.582   4.522  14.693 -1.0469 -0.6583  0.0986
14023TIP3    H263561   4.562   4.392  14.619  0.9552 -0.6825 -0.4425
14024TIP3   OH263562   2.020   3.671   4.451 -0.3121 -0.3713 -0.5648
14024TIP3    H163563   2.074   3.748   4.432  2.1796 -2.1962 -1.3832
14024TIP3    H263564   2.064   3.627   4.523 -2.4576 -0.4060  0.8137
14025TIP3   OH263565   3.366   2.322  13.003  0.2032  0.4029  0.5076
14025TIP3    H163566   3.349   2.361  12.917 -1.1035  0.4621  0.7701
14025TIP3    H263567   3.388   2.231  12.984 -0.7101  0.2537  0.1412
14026TIP3   OH263568   1.347   5.989   6.110 -0.3421 -0.0792 -0.0282
14026TIP3    H163569   1.340   5.966   6.017  0.5496 -0.0338 -0.1136
14026TIP3    H263570   1.278   5.937   6.153 -1.1098  0.2973 -0.7712
14027TIP3   OH263571   0.288   2.781  17.051  0.3914 -0.4861  0.3412
14027TIP3    H163572   0.260   2.699  17.093 -0.0392  0.2177  1.4614
14027TIP3    H263573   0.367   2.806  17.098  1.5220 -1.1376 -1.1492
14028TIP3   OH263574   1.506   4.444  16.065  0.8793 -0.3349  0.4792
14028TIP3    H163575   1.500   4.399  15.981  0.2609 -2.5309  1.6309
14028TIP3    H263576   1.555   4.524  16.046  0.5689 -0.6616 -1.9898
14029TIP3   OH263577   3.177   6.087   0.284  0.0205 -0.1888 -0.0442
14029TIP3    H163578   3.255   6.109   0.335 -0.0857  0.0240  0.0262
14029TIP3    H263579   3.120   6.041   0.345  0.3389 -0.8700 -0.2516
14030TIP3   OH263580   2.986   3.447  16.273  0.0304 -0.2588 -0.8048
14030TIP3    H163581   3.034   3.525  16.244  0.0181 -0.9462 -2.8440
14030TIP3    H263582   3.046   3.404  16.334  0.3107  0.9834 -0.1657
14031TIP3   OH263583   2.523   2.469   2.528  0.0797  0.2830  0.8922
14031TIP3    H163584   2.567   2.452   2.611 -1.4441 -0.0789  1.6682
14031TIP3    H263585   2.575   2.538   2.487  1.1342  0.1289  1.9217
14032TIP3   OH263586   5.229   3.332   5.369  0.1110 -0.6505 -0.0884
14032TIP3    H163587   5.203   3.381   5.448  0.4572  0.0108 -0.3810
14032TIP3    H263588   5.173   3.366   5.300  1.0382  0.0456 -0.5053
14033TIP3   OH263589   6.779   3.740   3.621 -0.0569  0.3353 -0.0429
14033TIP3    H163590   6.691   3.701   3.631  0.2975 -0.3329  0.6165
14033TIP3    H263591   6.831   3.699   3.690  1.0943 -0.1789 -1.1726
14034TIP3   OH263592   1.890   1.194   3.906 -0.9199  0.0340  0.1810
14034TIP3    H163593   1.984   1.181   3.904 -0.8157  0.7959 -1.4600
14034TIP3    H263594   1.879   1.285   3.933 -0.9705  1.1577 -3.2513
14035TIP3   OH263595   6.333   4.861   4.521 -0.3061 -0.3351  0.0418
14035TIP3    H163596   6.428   4.851   4.515 -0.1947  1.0218 -0.6138
14035TIP3    H263597   6.306   4.793   4.584  0.9131 -1.6142 -0.7540
14036TIP3   OH263598   3.052   0.799   3.759 -0.0481 -0.1774  0.0559
14036TIP3    H163599   2.995   0.874   3.740 -0.7111 -1.1044 -1.8646
14036TIP3    H263600   2.993   0.724   3.758  1.0572 -1.0694 -1.2156
14037TIP3   OH263601   3.648   6.740   3.931 -0.4367 -0.1544  0.1131
14037TIP3    H163602   3.659   6.824   3.975 -1.5961 -1.0973  2.3586
14037TIP3    H263603   3.724   6.688   3.958  0.4205  0.2015 -1.4847
14038TIP3   OH263604   4.739   4.873   3.116 -0.1292 -0.2655  0.2390
14038TIP3    H163605   4.741   4.781   3.091  0.0283 -0.0770 -0.4645
14038TIP3    H263606   4.771   4.874   3.206 -0.0440 -0.8884  0.2201
14039TIP3   OH263607   2.036   0.525  13.467  0.0091 -0.2962  0.0893
14039TIP3    H163608   2.128   0.546  13.478  0.1816 -0.4848 -0.9367
14039TIP3    H263609   2.029   0.433  13.495  0.4996 -0.8665 -1.5640
14040TIP3   OH263610   0.925   3.103   5.626  0.7904  0.5703 -0.2719
14040TIP3    H163611   1.008   3.128   5.667  1.6101 -1.5082 -0.5449
14040TIP3    H263612   0.890   3.033   5.681  0.6378 -0.5130 -1.6806
14041TIP3   OH263613   1.034   0.907   6.543 -0.6545  0.8300  0.3686
14041TIP3    H163614   1.000   0.818   6.533  0.5184  0.2441  1.2957
14041TIP3    H263615   1.116   0.908   6.493 -1.2968  1.8056 -0.7206
14042TIP3   OH263616   3.871   6.558   5.371 -0.1390 -0.4385  0.4509
14042TIP3    H163617   3.859   6.596   5.285  2.6008 -1.1720 -0.3680
14042TIP3    H263618   3.814   6.481   5.372 -1.3212  0.4050 -0.0899
14043TIP3   OH263619   1.366   0.079   3.297 -0.7398  0.4455  0.0498
14043TIP3    H163620   1.427   0.150   3.277 -0.9231  0.6828  0.3331
14043TIP3    H263621   1.412   0.025   3.362 -0.1458 -0.3228 -0.9836
14044TIP3   OH263622   4.933   1.103  16.944 -0.0412 -0.0500 -0.2641
14044TIP3    H163623   4.917   1.010  16.959  1.5353 -0.1686  0.9156
14044TIP3    H263624   4.865   1.129  16.883 -2.4963 -1.2504  1.7723
14045TIP3   OH263625   3.968   5.707   0.462  0.2206 -0.6100 -0.3228
14045TIP3    H163626   4.058   5.727   0.486 -0.1448  0.2225  0.4213
14045TIP3    H263627   3.973   5.624   0.415  1.0849 -1.9160  1.9107
14046TIP3   OH263628   1.061   2.256   2.983 -0.0487 -0.3695 -0.2776
14046TIP3    H163629   1.100   2.169   2.970 -1.7464 -1.5384  1.7913
14046TIP3    H263630   1.096   2.286   3.066  2.4155  2.1392 -2.0651
14047TIP3   OH263631   4.690   5.979  12.277 -0.0706 -1.0075  0.1821
14047TIP3    H163632   4.732   6.064  12.262  1.2896 -1.9358 -1.5867
14047TIP3    H263633   4.663   5.982  12.369  2.3259  0.3220  0.9211
14048TIP3   OH263634   0.996   3.225  12.180 -0.0549  0.4493 -0.3100
14048TIP3    H163635   1.059   3.159  12.211  0.3401  0.9081 -0.1192
14048TIP3    H263636   1.026   3.246  12.091 -0.6214 -0.1648 -0.6566
14049TIP3   OH263637   0.237   1.182   4.400  0.3679  0.3744 -0.1443
14049TIP3    H163638   0.142   1.181   4.393  0.3882  1.1597 -0.7020
14049TIP3    H263639   0.265   1.103   4.353 -0.0335 -0.2475  0.6513
14050TIP3   OH263640   5.742   2.894   5.378 -0.6570 -0.6447  0.2070
14050TIP3    H163641   5.730   2.867   5.469 -0.2295  0.8328  0.7282
14050TIP3    H263642   5.808   2.963   5.382 -0.4760 -0.6982 -1.2598
14051TIP3   OH263643   4.749   2.137   3.589 -0.4157  0.0498 -0.1600
14051TIP3    H163644   4.669   2.088   3.609  0.3894 -1.1009  0.3371
14051TIP3    H263645   4.776   2.103   3.503 -0.5202  0.5326 -0.3882
14052TIP3   OH263646   0.051   1.322  12.214 -0.3545 -0.1212 -0.2920
14052TIP3    H163647   0.085   1.373  12.140  0.9376 -1.6451 -0.8217
14052TIP3    H263648  -0.025   1.277  12.180 -0.3402 -0.0595 -0.4052
14053TIP3   OH263649   6.357   4.316  11.842 -0.3266 -0.2546  0.3606
14053TIP3    H163650   6.296   4.390  11.844 -0.6858 -0.4307 -1.7112
14053TIP3    H263651   6.379   4.307  11.750  0.9509 -1.7544  0.7854
14054TIP3   OH263652   3.020   4.149  16.018  0.1154  0.1758 -0.0931
14054TIP3    H163653   3.100   4.177  15.972  0.5119 -0.0432  0.4538
14054TIP3    H263654   2.968   4.229  16.025  0.7793  0.5684  0.5303
14055TIP3   OH263655   3.456   3.111  17.052 -0.1621 -0.1651  0.3549
14055TIP3    H163656   3.439   3.058  16.974 -1.2712  0.4152  0.1926
14055TIP3    H263657   3.509   3.054  17.108 -0.5848 -1.1207 -0.1949
14056TIP3   OH263658   4.776   2.560  14.188 -0.7186  0.5976  0.1244
14056TIP3    H163659   4.870   2.552  14.174 -0.7783  2.6693 -2.0074
14056TIP3    H263660   4.740   2.576  14.100 -3.1740 -0.8707  0.7704
14057TIP3   OH263661   3.468   1.180   3.244  0.0832  0.2085  0.1744
14057TIP3    H163662   3.406   1.186   3.317  0.3060  1.2380  0.2954
14057TIP3    H263663   3.536   1.120   3.275 -0.7885 -0.8807  0.0679
14058TIP3   OH263664   2.432   4.327  13.436 -0.4264  0.0708 -0.2415
14058TIP3    H163665   2.450   4.396  13.500 -0.3445  0.2784 -0.4892
14058TIP3    H263666   2.339   4.307  13.449 -0.3570 -0.0473  0.0958
14059TIP3   OH263667   1.487   1.361   3.676  0.1339  0.4913  0.0623
14059TIP3    H163668   1.427   1.397   3.611 -0.5987 -1.7460 -0.5693
14059TIP3    H263669   1.448   1.383   3.760 -2.0104 -1.4485 -0.3336
14060TIP3   OH263670   4.363   6.381   0.424 -0.1545 -0.2857  0.8641
14060TIP3    H163671   4.450   6.418   0.409 -1.1431  2.2225  0.8403
14060TIP3    H263672   4.357   6.375   0.520 -0.2525  0.3500  0.9021
14061TIP3   OH263673   1.019   3.339   1.463 -0.3140  0.1156  0.8287
14061TIP3    H163674   1.002   3.259   1.413 -0.3828  0.1438  0.8071
14061TIP3    H263675   1.098   3.376   1.422 -0.4524  0.2136  0.6484
14062TIP3   OH263676   3.525   1.739   1.693  0.3860  0.0542  0.1149
14062TIP3    H163677   3.595   1.795   1.659 -0.4224  0.0279 -1.6970
14062TIP3    H263678   3.571   1.660   1.723  1.0710 -0.7071 -2.6260
14063TIP3   OH263679   1.147   2.947  15.290 -0.0167 -0.7271  0.4205
14063TIP3    H163680   1.065   2.899  15.275 -1.7204  1.3889  2.2580
14063TIP3    H263681   1.179   2.915  15.374 -0.6567  0.6312  1.1981
14064TIP3   OH263682   3.290   2.544   1.018  0.4424  0.4945  0.1390
14064TIP3    H163683   3.310   2.505   0.933 -0.1712 -0.4574  0.4142
14064TIP3    H263684   3.374   2.581   1.048  0.8534  0.0883 -0.4880
14065TIP3   OH263685   4.046   4.213   3.177  0.3573  0.0186 -0.2993
14065TIP3    H163686   4.047   4.138   3.118  0.2149  0.3444 -0.7193
14065TIP3    H263687   4.105   4.276   3.136  0.6590  0.0456  0.1736
14066TIP3   OH263688   6.691   2.076   2.741  0.0830 -0.3758  0.0965
14066TIP3    H163689   6.769   2.021   2.749 -0.3435 -1.6873 -3.1877
14066TIP3    H263690   6.679   2.087   2.647 -1.8054  2.6527  0.5631
14067TIP3   OH263691   4.092   2.160  11.464  0.0664 -0.4337 -0.1686
14067TIP3    H163692   4.160   2.182  11.401  0.1416 -0.0048  0.0605
14067TIP3    H263693   4.016   2.212  11.437  0.2509  0.1375  0.3887
14068TIP3   OH263694   1.308   6.358  14.002  0.5597 -0.4352  0.1652
14068TIP3    H163695   1.380   6.360  14.066  0.7712 -0.9591 -0.0546
14068TIP3    H263696   1.244   6.420  14.036  0.2747 -1.3478  1.3517
14069TIP3   OH263697   2.192   2.137   0.847 -0.2031  0.7708  0.3558
14069TIP3    H163698   2.180   2.190   0.926 -3.6682  1.5019 -0.4980
14069TIP3    H263699   2.142   2.183   0.780 -0.3760 -1.7253 -1.3336
14070TIP3   OH263700   6.603   0.161   4.142 -0.1596  0.3973 -0.1928
14070TIP3    H163701   6.575   0.144   4.052  0.8332 -1.3001 -0.2227
14070TIP3    H263702   6.521   0.169   4.191 -0.7114 -0.4894 -0.9386
14071TIP3   OH263703   5.592   0.403   3.357  0.7825 -0.9633 -0.0791
14071TIP3    H163704   5.650   0.471   3.323 -0.7050  0.8772  0.8944
14071TIP3    H263705   5.635   0.375   3.438  1.8500 -1.8710 -0.9254
14072TIP3   OH263706   5.936   6.422  12.951 -0.4703 -0.4300  0.4118
14072TIP3    H163707   5.954   6.372  12.872 -0.4054  1.3162 -0.7512
14072TIP3    H263708   6.022   6.455  12.978 -0.4105 -1.4865  1.5692
14073TIP3   OH263709   3.326   5.046  10.390  0.2066  0.4207 -0.6847
14073TIP3    H163710   3.260   4.979  10.372 -1.4015  1.2708  1.5653
14073TIP3    H263711   3.316   5.109  10.318 -1.5564  0.5941 -0.3277
14074TIP3   OH263712   4.457   3.160  16.267 -0.0984  0.0591 -0.4797
14074TIP3    H163713   4.523   3.124  16.209 -0.7424  1.7070 -2.3606
14074TIP3    H263714   4.417   3.084  16.309  1.7579 -1.0586 -0.6324
14075TIP3   OH263715   3.160   0.082   5.679 -0.1377 -0.0624 -0.0147
14075TIP3    H163716   3.162   0.059   5.772  1.1411 -0.0415 -0.0152
14075TIP3    H263717   3.193   0.172   5.676 -0.2252 -0.0443 -0.4863
14076TIP3   OH263718   5.519   2.594   5.011  0.0414  0.0057 -0.7038
14076TIP3    H163719   5.461   2.622   5.082 -0.5201 -2.1983 -0.2092
14076TIP3    H263720   5.544   2.675   4.967 -0.8991  1.2941  1.0038
14077TIP3   OH263721   6.006   1.191  12.176  0.3677  0.4926  0.0817
14077TIP3    H163722   6.023   1.156  12.264  0.0058  0.1575  0.0175
14077TIP3    H263723   6.025   1.118  12.117  1.1250  0.8693 -0.1654
14078TIP3   OH263724   2.611   3.447  12.006 -0.0043 -0.1888 -0.8103
14078TIP3    H163725   2.588   3.507  11.935 -0.1584  0.3920 -0.2764
14078TIP3    H263726   2.540   3.383  12.008 -0.3998  0.2564 -0.6597
14079TIP3   OH263727   0.601   6.261   6.144  0.0287 -0.3435 -0.4673
14079TIP3    H163728   0.665   6.306   6.088  1.0591 -0.1411  0.8398
14079TIP3    H263729   0.581   6.324   6.213  0.4229 -1.3657  0.6054
14080TIP3   OH263730   3.371   6.371  11.629 -0.3201  0.0286 -0.1863
14080TIP3    H163731   3.424   6.447  11.651 -0.2389 -0.7638  2.7957
14080TIP3    H263732   3.427   6.318  11.572 -0.0010  1.6790 -1.4564
14081TIP3   OH263733   0.699   3.310   5.596  0.5992  0.0858 -0.2636
14081TIP3    H163734   0.680   3.356   5.514 -0.2283  0.5329  0.1691
14081TIP3    H263735   0.769   3.248   5.573 -0.7147 -0.9539 -1.7095
14082TIP3   OH263736   4.848   5.790  14.394  0.0232  0.1340 -0.3194
14082TIP3    H163737   4.815   5.784  14.305  1.4907  2.0516 -1.0645
14082TIP3    H263738   4.918   5.725  14.398  0.0813  0.1743 -0.6464
14083TIP3   OH263739   6.743   2.700  15.546  0.5466 -0.2561  0.5161
14083TIP3    H163740   6.782   2.614  15.529 -1.4266 -1.3568  1.1726
14083TIP3    H263741   6.740   2.742  15.460  0.9884 -1.1078  0.0712
14084TIP3   OH263742   0.022   4.830  12.230 -0.0446  0.3006 -0.1830
14084TIP3    H163743   0.032   4.806  12.323  0.1166 -0.9093 -0.4971
14084TIP3    H263744   0.035   4.925  12.228 -0.0567  0.3437  1.0336
14085TIP3   OH263745   0.261   1.492  13.142 -0.2706  0.2389 -0.4922
14085TIP3    H163746   0.346   1.463  13.175 -0.4013  2.3253  1.9762
14085TIP3    H263747   0.203   1.417  13.156  0.4672 -0.1070  0.9164
14086TIP3   OH263748   2.979   5.708   4.286 -0.3977  0.1908  0.2617
14086TIP3    H163749   2.890   5.726   4.318 -0.0982 -1.1366  1.9613
14086TIP3    H263750   2.985   5.613   4.282  1.3607  0.2103  1.4523
14087TIP3   OH263751   1.525   3.965   5.567 -0.1064  0.3830 -0.1904
14087TIP3    H163752   1.564   3.992   5.650 -1.5468  0.4107  0.5204
14087TIP3    H263753   1.466   3.893   5.591 -0.3054  0.1747 -1.2480
14088TIP3   OH263754   2.496   0.971   4.401 -0.3543  0.2436  0.3452
14088TIP3    H163755   2.552   0.893   4.398  0.8759  0.8074 -5.7216
14088TIP3    H263756   2.408   0.938   4.383 -0.2525  0.0547  0.1843
14089TIP3   OH263757   3.959   6.179  16.951  0.5236  0.3545 -0.0041
14089TIP3    H163758   4.043   6.156  16.991  0.5947  1.1144  0.3227
14089TIP3    H263759   3.918   6.096  16.929  0.7301 -0.0791  1.1665
14090TIP3   OH263760   5.630   1.906   6.073 -0.2432 -0.2990  0.4757
14090TIP3    H163761   5.645   1.948   6.158  0.7973 -0.0076  0.1639
14090TIP3    H263762   5.636   1.812   6.091  1.8851 -0.2158  0.4269
14091TIP3   OH263763   1.752   0.449  14.140 -0.0321  0.0386  0.1002
14091TIP3    H163764   1.665   0.488  14.151 -0.6541 -0.1371 -3.1815
14091TIP3    H263765   1.813   0.519  14.162 -1.0873  1.6088 -1.6531
14092TIP3   OH263766   5.755   0.764   3.538  0.6049 -0.4567  0.3033
14092TIP3    H163767   5.698   0.725   3.604 -1.5598  0.8271 -0.7092
14092TIP3    H263768   5.739   0.858   3.545  1.7238 -0.1545 -0.8491
14093TIP3   OH263769   2.737   3.215   1.574  0.1722 -0.6465  0.2032
14093TIP3    H163770   2.718   3.277   1.645 -1.1348  0.1238 -0.7585
14093TIP3    H263771   2.743   3.270   1.495  0.3194 -1.6027 -0.4726
14094TIP3   OH263772   4.625   0.077   4.322  0.3522 -0.1992  0.0667
14094TIP3    H163773   4.664   0.163   4.307  0.6860  0.0169  1.8698
14094TIP3    H263774   4.530   0.093   4.318  0.3772  0.5522  1.5524
14095TIP3   OH263775   4.254   0.852  15.273 -0.0073 -0.1667 -0.2972
14095TIP3    H163776   4.175   0.839  15.326  0.6206 -5.4956 -0.1984
14095TIP3    H263777   4.322   0.874  15.337 -0.3570 -1.0025  0.3808
14096TIP3   OH263778   6.023   2.991   6.040  0.0822  0.2214  0.0034
14096TIP3    H163779   5.945   3.027   5.999 -1.4502 -1.7335  1.0222
14096TIP3    H263780   6.094   3.011   5.978 -1.2965  1.5183 -1.2438
14097TIP3   OH263781   2.367   3.504  13.848  0.9113  0.5135 -0.2992
14097TIP3    H163782   2.434   3.525  13.913 -0.1016  0.5272  0.7709
14097TIP3    H263783   2.382   3.566  13.777  0.2263  2.5092  1.2065
14098TIP3   OH263784   2.212   5.989   1.881  0.3790 -0.3214 -0.7098
14098TIP3    H163785   2.157   5.935   1.825  2.2611  0.2169 -3.2693
14098TIP3    H263786   2.302   5.961   1.860  1.3106  2.2109 -0.4865
14099TIP3   OH263787   1.032   5.498  13.664 -0.4893 -0.7420  0.5297
14099TIP3    H163788   1.042   5.586  13.626  0.2239 -1.0067  0.0879
14099TIP3    H263789   1.098   5.494  13.733 -1.3306 -0.5079  1.3651
14100TIP3   OH263790   3.377   3.770  15.072 -0.0951 -0.4588 -0.7371
14100TIP3    H163791   3.460   3.733  15.101  1.4370  2.5741 -0.8788
14100TIP3    H263792   3.335   3.698  15.024  0.3900 -3.4676  2.8439
14101TIP3   OH263793   5.761   1.796  11.737  0.2499 -0.1274 -0.1865
14101TIP3    H163794   5.743   1.788  11.830 -0.0090 -2.9415 -0.3918
14101TIP3    H263795   5.675   1.800  11.695  0.3497  2.7208 -0.2946
14102TIP3   OH263796   3.419   6.267   1.864  0.4051 -0.3220  0.1714
14102TIP3    H163797   3.364   6.308   1.932  0.2371  1.3712 -0.9238
14102TIP3    H263798   3.361   6.262   1.788  2.0280  2.6925 -1.4164
14103TIP3   OH263799   0.503   1.106   0.892 -0.1054  0.2954  0.1171
14103TIP3    H163800   0.549   1.057   0.960 -0.5059 -0.6224 -0.2553
14103TIP3    H263801   0.418   1.063   0.885 -0.8468  1.6514  0.4409
14104TIP3   OH263802   4.980   3.723   3.204  0.5158  0.2623 -0.2022
14104TIP3    H163803   5.022   3.637   3.209  0.4619  0.2761  0.5440
14104TIP3    H263804   5.046   3.779   3.162  0.5409 -0.1400 -0.7150
14105TIP3   OH263805   2.025   6.589   3.566 -0.0896 -0.1994 -0.1890
14105TIP3    H163806   2.108   6.636   3.557 -1.0207  1.7698  0.8316
14105TIP3    H263807   2.016   6.574   3.660 -1.0405 -0.0746 -0.2487
14106TIP3   OH263808   5.604   3.030  13.789 -0.7155 -0.2017 -0.3671
14106TIP3    H163809   5.662   3.000  13.859 -0.2159  1.2304 -0.1288
14106TIP3    H263810   5.552   2.953  13.766  0.1653 -1.0975  0.5255
14107TIP3   OH263811   5.082   5.012   0.233  0.3494 -0.2958 -1.1195
14107TIP3    H163812   5.080   5.100   0.195  1.3869  0.0074 -0.5026
14107TIP3    H263813   4.990   4.987   0.241 -0.4257  2.7648  3.2777
14108TIP3   OH263814   4.058   2.008  16.410 -0.2907 -0.4908 -0.2286
14108TIP3    H163815   4.080   1.916  16.392 -1.5014 -0.8659  0.0946
14108TIP3    H263816   4.062   2.051  16.324 -0.5136 -1.0296 -0.5146
14109TIP3   OH263817   6.730   0.100   2.629  0.4344  0.0556 -0.0699
14109TIP3    H163818   6.722   0.008   2.600  0.3029 -0.5688  1.8476
14109TIP3    H263819   6.723   0.096   2.724  0.6742  2.0562  0.0661
14110TIP3   OH263820   4.829   0.811  16.385 -0.1712 -0.2409 -0.8619
14110TIP3    H163821   4.912   0.857  16.379 -1.0763  1.7628  0.7352
14110TIP3    H263822   4.841   0.747  16.456 -0.0466  0.2122 -0.4700
14111TIP3   OH263823   3.015   4.577   5.549 -0.7179 -0.0920  0.3620
14111TIP3    H163824   2.985   4.667   5.564  0.7778  0.5473 -0.3174
14111TIP3    H263825   2.948   4.539   5.492 -0.3660  1.2486 -1.0027
14112TIP3   OH263826   4.072   0.269  16.716  0.1584  0.0715  0.7448
14112TIP3    H163827   4.017   0.279  16.638  0.9913 -0.0379  0.1444
14112TIP3    H263828   4.079   0.358  16.751 -1.1345 -0.0307  1.3525
14113TIP3   OH263829   0.020   4.751   2.412 -0.3304 -0.6643  0.0402
14113TIP3    H163830   0.058   4.683   2.356  1.2493  1.4837 -1.6653
14113TIP3    H263831  -0.054   4.785   2.362 -0.5925 -0.5572  0.4973
14114TIP3   OH263832   3.282   4.665   3.473  0.4870  0.0199 -0.4308
14114TIP3    H163833   3.197   4.676   3.431  0.8342  1.6987 -0.7706
14114TIP3    H263834   3.307   4.574   3.454 -1.0704 -0.3924 -0.5923
14115TIP3   OH263835   4.086   1.870  14.577 -0.2183  0.6973  0.3985
14115TIP3    H163836   4.081   1.875  14.482 -1.0184  1.4449  0.4725
14115TIP3    H263837   3.997   1.888  14.607 -0.2488 -0.7298  1.2501
14116TIP3   OH263838   1.820   2.677  13.767 -0.1768  0.2074 -0.2725
14116TIP3    H163839   1.796   2.735  13.695 -1.5992 -0.3892 -0.3328
14116TIP3    H263840   1.844   2.735  13.839  2.7562  0.8269 -1.6206
14117TIP3   OH263841   6.577   1.059  17.195  0.2363  0.6750 -0.4132
14117TIP3    H163842   6.530   1.092  17.119  1.4162  0.1502 -1.4245
14117TIP3    H263843   6.559   1.122  17.265 -1.4343  0.7928 -0.9213
14118TIP3   OH263844   2.277   4.641  13.446  0.2627 -0.7590 -0.0146
14118TIP3    H163845   2.223   4.682  13.513  0.1197 -0.5716 -0.2428
14118TIP3    H263846   2.361   4.626  13.489  0.3343 -0.1783  0.0613
14119TIP3   OH263847   5.982   5.862  14.859 -0.1032  0.7014  0.2796
14119TIP3    H163848   5.999   5.874  14.766 -0.0794  0.3150  0.2326
14119TIP3    H263849   5.958   5.949  14.891 -2.4364  0.4178 -0.5703
14120TIP3   OH263850   1.131   4.679  14.344  0.3541  0.0402 -0.2842
14120TIP3    H163851   1.184   4.733  14.401  0.2255 -1.2081  1.0713
14120TIP3    H263852   1.040   4.700  14.368  0.2299  0.9738 -1.4616
14121TIP3   OH263853   0.940   4.766   1.512 -0.4957 -0.0580 -0.2401
14121TIP3    H163854   0.905   4.841   1.465  0.5027 -0.4268 -1.6343
14121TIP3    H263855   0.985   4.714   1.445  0.9096 -0.6559  1.1024
14122TIP3   OH263856   0.139   2.774  11.931 -0.2332  0.6712  0.3121
14122TIP3    H163857   0.152   2.702  11.993 -2.0918  2.4737  3.0546
14122TIP3    H263858   0.084   2.738  11.862  1.6026 -1.3252 -0.2200
14123TIP3   OH263859   3.782   3.890   6.133 -0.0933  0.2060 -0.3771
14123TIP3    H163860   3.787   3.852   6.221 -1.0052 -2.0570 -1.2275
14123TIP3    H263861   3.745   3.977   6.147 -1.1533 -0.4602  1.4227
14124TIP3   OH263862   0.418   2.434  14.192  0.3138  0.0423  0.3767
14124TIP3    H163863   0.374   2.349  14.188  0.8203 -0.2044 -0.0980
14124TIP3    H263864   0.349   2.495  14.216  0.1496 -0.6424  1.7018
14125TIP3   OH263865   0.611   4.484   1.763  0.6315 -0.1653 -0.1796
14125TIP3    H163866   0.643   4.480   1.673  0.1176 -2.3494 -0.3156
14125TIP3    H263867   0.676   4.435   1.813 -0.6000 -1.5422  0.1203
14126TIP3   OH263868   0.872   1.142   5.121  0.0151 -0.9763  0.0497
14126TIP3    H163869   0.800   1.108   5.068  1.1920 -2.5974 -0.5927
14126TIP3    H263870   0.949   1.131   5.065  0.6181  2.3054  0.0005
14127TIP3   OH263871   2.614   2.578  11.228  0.3546 -0.1442  0.2085
14127TIP3    H163872   2.668   2.573  11.307 -1.4974 -0.8229  1.5018
14127TIP3    H263873   2.641   2.504  11.175  0.4112 -0.7348  1.0427
14128TIP3   OH263874   6.702   6.798   5.593 -0.0137  0.0543 -0.0642
14128TIP3    H163875   6.763   6.818   5.522 -1.9002 -0.9117 -2.0944
14128TIP3    H263876   6.650   6.878   5.602  1.1104  0.6631  1.2388
14129TIP3   OH263877   3.279   2.992  10.771 -0.3031  0.4191 -0.7710
14129TIP3    H163878   3.223   3.043  10.711 -1.0672 -1.5802 -1.8544
14129TIP3    H263879   3.219   2.932  10.815  0.4670  0.9162  1.0451
14130TIP3   OH263880   5.249   1.733  12.125 -0.2417 -0.1261 -0.1232
14130TIP3    H163881   5.287   1.817  12.151  0.8901 -0.2764 -1.1950
14130TIP3    H263882   5.207   1.700  12.205 -0.0693  1.1126  0.5040
14131TIP3   OH263883   2.544   3.747   3.458  0.1761  0.1528 -0.6851
14131TIP3    H163884   2.499   3.801   3.522 -0.0687 -1.0384  0.1886
14131TIP3    H263885   2.635   3.776   3.460 -0.1249  1.1221 -0.8877
14132TIP3   OH263886   3.159   5.833   5.131  0.3778 -0.4750  0.2289
14132TIP3    H163887   3.068   5.861   5.134  0.6098  0.4290 -0.5774
14132TIP3    H263888   3.193   5.853   5.218 -0.1149 -0.5847  0.4527
14133TIP3   OH263889   6.626   3.030  10.736 -0.1804  0.0947  0.4001
14133TIP3    H163890   6.559   3.097  10.730 -1.0438 -0.6488  1.4743
14133TIP3    H263891   6.692   3.066  10.795 -1.6050 -0.7161  2.6386
14134TIP3   OH263892   4.915   6.587  11.160  0.1834  0.1924 -0.1236
14134TIP3    H163893   4.935   6.542  11.078  1.1105  0.8310 -0.2578
14134TIP3    H263894   4.849   6.652  11.136  0.0275 -0.0118 -0.2496
14135TIP3   OH263895   4.485   1.574  13.977  0.4845  0.1273  0.1898
14135TIP3    H163896   4.425   1.583  14.051  0.5820  0.5615  0.2214
14135TIP3    H263897   4.520   1.485  13.984  0.5691  0.2012  0.7236
14136TIP3   OH263898   2.739   3.395   5.787 -0.4929  0.1020 -0.0016
14136TIP3    H163899   2.820   3.356   5.755  0.1193  0.3411  1.1793
14136TIP3    H263900   2.698   3.326   5.838 -1.0773 -0.0419 -0.6639
14137TIP3   OH263901   5.260   0.518   4.087 -0.3967 -0.6024  0.6607
14137TIP3    H163902   5.312   0.574   4.030 -1.1301 -1.4225 -0.8619
14137TIP3    H263903   5.323   0.482   4.149  0.5254 -0.1381  0.0066
14138TIP3   OH263904   6.138   0.447  11.099  0.1219 -0.4217  0.3830
14138TIP3    H163905   6.225   0.413  11.077 -0.2982 -1.4282  0.2077
14138TIP3    H263906   6.140   0.458  11.194 -0.5175 -3.4335  0.8660
14139TIP3   OH263907   2.540   4.566   3.403 -0.2707  0.1236 -0.1379
14139TIP3    H163908   2.552   4.510   3.326 -0.0759  1.0804 -0.8145
14139TIP3    H263909   2.456   4.609   3.388 -1.5456 -1.6170  1.4490
14140TIP3   OH263910   3.845   5.934  15.201 -0.3566 -0.5198 -0.1084
14140TIP3    H163911   3.784   6.003  15.225 -0.0600 -1.0524  2.4971
14140TIP3    H263912   3.892   5.969  15.125 -0.3123  2.1097  1.0111
14141TIP3   OH263913   5.492   2.132  15.684 -0.3103 -0.4752  0.1712
14141TIP3    H163914   5.509   2.164  15.772  0.6354 -0.9368  0.1633
14141TIP3    H263915   5.509   2.208  15.627  2.3315 -1.0136  0.1134
14142TIP3   OH263916   5.134   2.009  14.836  0.0597  0.2064 -0.1850
14142TIP3    H163917   5.106   1.920  14.814 -0.8894  0.4935 -0.1742
14142TIP3    H263918   5.229   2.006  14.830  0.1693 -1.2759  1.4884
14143TIP3   OH263919   1.230   1.353   2.214  0.3153  0.5454 -0.4811
14143TIP3    H163920   1.189   1.315   2.136  1.0739  1.1380 -1.1857
14143TIP3    H263921   1.268   1.278   2.259  0.7871  0.3157 -1.2443
14144TIP3   OH263922   2.539   5.998  15.786 -0.0230  0.4607 -0.1971
14144TIP3    H163923   2.468   5.934  15.793  0.5573 -0.3388 -1.3274
14144TIP3    H263924   2.525   6.057  15.860 -1.7239  0.1927 -0.2591
14145TIP3   OH263925   2.005   4.389   5.798 -0.1093 -0.3296 -0.0249
14145TIP3    H163926   2.017   4.294   5.793 -0.0084 -0.4261  1.4716
14145TIP3    H263927   1.963   4.413   5.716 -0.7429 -1.7759 -0.1468
14146TIP3   OH263928   0.571   5.067  12.733  0.0428  0.7761 -0.0990
14146TIP3    H163929   0.486   5.047  12.772 -0.5802  0.0535 -1.7491
14146TIP3    H263930   0.579   5.162  12.742 -1.5890  1.0618 -1.0747
14147TIP3   OH263931   0.542   2.501  13.954 -0.4172  0.0760 -0.5062
14147TIP3    H163932   0.527   2.419  13.906 -1.9573 -0.0219  0.0824
14147TIP3    H263933   0.498   2.488  14.038 -1.4476  1.8023 -0.7262
14148TIP3   OH263934   4.901   2.655  14.972  0.2991 -0.2419 -0.2894
14148TIP3    H163935   4.873   2.732  14.923  2.2601  0.6755 -0.1059
14148TIP3    H263936   4.900   2.684  15.063 -2.6657 -1.7181  0.2476
14149TIP3   OH263937   5.970   6.440   2.876  0.5870  0.3319 -0.4922
14149TIP3    H163938   6.022   6.470   2.802  0.6737 -2.0205 -1.4852
14149TIP3    H263939   6.035   6.412   2.941  0.6213 -1.2812 -1.1668
14150TIP3   OH263940   4.225   2.401  13.332 -0.2116  0.1514  0.4416
14150TIP3    H163941   4.277   2.479  13.310  1.7121 -1.2119 -0.1703
14150TIP3    H263942   4.153   2.402  13.269  1.1731  0.1634 -1.2254
14151TIP3   OH263943   6.668   5.311   1.670 -0.0023 -0.0455  0.2302
14151TIP3    H163944   6.642   5.249   1.738  0.9037  0.1872  0.8002
14151TIP3    H263945   6.711   5.258   1.603  0.5501 -0.0662  0.6007
14152TIP3   OH263946   2.189   5.098   1.614 -0.6488  0.5091 -0.2374
14152TIP3    H163947   2.189   5.131   1.524  2.3234 -2.3467 -1.4722
14152TIP3    H263948   2.158   5.008   1.607 -0.4852  0.2601  1.6416
14153TIP3   OH263949   4.272   0.607  10.823  0.2051 -0.0597 -0.0627
14153TIP3    H163950   4.355   0.584  10.866  0.2189  0.5208  0.2329
14153TIP3    H263951   4.278   0.702  10.811 -0.6184  0.0552  0.3908
14154TIP3   OH263952   2.274   3.117   2.703 -0.0613 -0.2154 -0.0748
14154TIP3    H163953   2.294   3.112   2.797  2.1098 -0.5350 -0.5108
14154TIP3    H263954   2.203   3.053   2.690 -2.0789  1.5034  1.6938
14155TIP3   OH263955   3.605   5.798  13.717 -0.6620 -0.0980 -0.1478
14155TIP3    H163956   3.692   5.786  13.679 -0.2087 -0.8638  1.0863
14155TIP3    H263957   3.549   5.821  13.642  0.3786 -0.6539 -1.1237
14156TIP3   OH263958   2.501   3.732   2.679 -0.2354  0.3771 -0.3534
14156TIP3    H163959   2.561   3.686   2.738 -0.8021 -1.1142 -0.9015
14156TIP3    H263960   2.485   3.671   2.608 -1.0977  1.4028 -1.0753
14157TIP3   OH263961   5.169   4.987   1.577 -0.0088  0.5135 -0.4086
14157TIP3    H163962   5.197   4.914   1.632  0.9881  0.5724 -0.8298
14157TIP3    H263963   5.079   4.965   1.551 -0.1129 -0.0160  0.3732
14158TIP3   OH263964   3.749   5.024  10.141  0.0188  0.2499  0.5753
14158TIP3    H163965   3.665   5.019  10.094 -0.9033  4.6201  1.3069
14158TIP3    H263966   3.810   5.059  10.077 -0.0593  1.7795  1.2888
14159TIP3   OH263967   1.326   4.147   1.945 -0.4183  0.4414 -0.5668
14159TIP3    H163968   1.359   4.108   2.026  0.1147 -0.9304 -1.4176
14159TIP3    H263969   1.404   4.178   1.899 -0.6877  0.9315 -0.7035
14160TIP3   OH263970   5.682   5.004  15.181 -0.2032  0.4297  0.2008
14160TIP3    H163971   5.731   4.956  15.114  1.2328  0.2997  1.2827
14160TIP3    H263972   5.646   4.936  15.238 -0.4320  0.5709  0.2264
14161TIP3   OH263973   1.969   3.501   0.965  0.0114  0.2878  0.7379
14161TIP3    H163974   1.884   3.466   0.992  0.0127  0.1556  0.5711
14161TIP3    H263975   1.956   3.596   0.961 -0.3302  0.2142  0.0026
14162TIP3   OH263976   6.094   3.582  10.752 -0.1547 -0.2637  0.6568
14162TIP3    H163977   6.181   3.543  10.764 -0.7230 -1.1747  2.2372
14162TIP3    H263978   6.069   3.610  10.840 -0.0178  3.3127 -0.2933
14163TIP3   OH263979   1.670   3.920  16.862  0.0747 -0.1647 -0.1389
14163TIP3    H163980   1.689   4.012  16.878 -0.5340  0.5602 -3.0359
14163TIP3    H263981   1.754   3.882  16.833 -0.0941 -0.0181 -0.8390
14164TIP3   OH263982   2.089   5.514   5.463  0.3274 -0.4111  0.2976
14164TIP3    H163983   2.000   5.521   5.497  0.4842 -0.1164  0.6551
14164TIP3    H263984   2.145   5.527   5.540  0.7121  1.8716 -0.3192
14165TIP3   OH263985   1.727   1.946   3.532  0.2476  0.1242 -0.1561
14165TIP3    H163986   1.727   1.955   3.627  0.3966  0.5801 -0.1990
14165TIP3    H263987   1.649   1.992   3.503  0.6929  0.7727 -0.3274
14166TIP3   OH263988   5.170   5.023  16.476  0.3348  0.2765 -0.1933
14166TIP3    H163989   5.153   4.933  16.448  0.8721  0.1629 -0.1651
14166TIP3    H263990   5.254   5.045  16.435  0.6238  0.4672  0.4941
14167TIP3   OH263991   4.867   6.316   3.901 -0.5681 -0.5178 -0.2227
14167TIP3    H163992   4.856   6.275   3.987 -0.6054  0.1574  0.1061
14167TIP3    H263993   4.779   6.346   3.878 -0.1774  1.5498  0.6846
14168TIP3   OH263994   6.531   4.742  17.190  0.3509 -0.4718  0.4299
14168TIP3    H163995   6.492   4.807  17.131  0.0538 -0.9305  0.1032
14168TIP3    H263996   6.490   4.660  17.164  0.9067 -0.8298  0.6645
14169TIP3   OH263997   1.499   6.531   2.653  0.1755  0.9154  0.6994
14169TIP3    H163998   1.552   6.521   2.574  0.2799 -1.3574  0.9880
14169TIP3    H263999   1.494   6.443   2.690 -2.6885  1.2722  1.4168
14170TIP3   OH264000   5.331   2.435   2.503  0.3920  0.1803  0.3455
14170TIP3    H164001   5.313   2.503   2.569  0.9891  0.7950 -0.1141
14170TIP3    H264002   5.414   2.396   2.531  0.7048  0.5194 -0.1007
14171TIP3   OH264003   1.165   3.326   1.705 -0.1732  0.2432  0.6361
14171TIP3    H164004   1.102   3.372   1.649 -1.2671 -0.0111  1.5944
14171TIP3    H264005   1.194   3.252   1.653 -0.6803  0.3714  0.1576
14172TIP3   OH264006   3.095   2.551  13.213  0.1307 -0.3120  0.1672
14172TIP3    H164007   3.029   2.609  13.251  0.1577 -0.1104 -0.0867
14172TIP3    H264008   3.066   2.538  13.123 -0.5857 -1.7551  0.5708
14173TIP3   OH264009   4.248   6.616  13.106  0.5589  0.1583  0.1557
14173TIP3    H164010   4.164   6.570  13.100  0.8841 -0.4027 -0.1512
14173TIP3    H264011   4.244   6.663  13.190 -1.1896  2.3983 -1.0561
14174TIP3   OH264012   3.123   2.247  11.326  0.1640 -0.1160 -0.4236
14174TIP3    H164013   3.178   2.242  11.404 -1.1417  1.9734  0.7372
14174TIP3    H264014   3.035   2.265  11.360 -0.3935  1.2269 -2.3628
14175TIP3   OH264015   5.550   1.995  13.520 -0.5583 -0.3358  0.3395
14175TIP3    H164016   5.475   2.032  13.474 -0.0917  0.1585 -0.0396
14175TIP3    H264017   5.616   1.983  13.452 -0.6066 -1.6270  0.5109
14176TIP3   OH264018   1.628   5.716  14.586  0.0220  0.1628  0.2525
14176TIP3    H164019   1.698   5.692  14.525 -0.2358 -1.0425  0.4186
14176TIP3    H264020   1.617   5.810  14.572  0.8343  0.1462 -0.6534
14177TIP3   OH264021   4.019   3.575  10.483  0.2318  0.1244  0.1888
14177TIP3    H164022   4.014   3.485  10.518  2.2894 -0.0168  0.2112
14177TIP3    H264023   4.078   3.568  10.408 -1.2328  1.1239 -1.1158
14178TIP3   OH264024   1.956   2.807  13.386 -0.0631 -0.0603 -0.0612
14178TIP3    H164025   1.884   2.788  13.446  1.2437  0.6105  1.8454
14178TIP3    H264026   1.915   2.813  13.300 -2.3839  0.8250  1.0009
14179TIP3   OH264027   3.216   0.508  15.029  0.2404 -0.5500 -0.7942
14179TIP3    H164028   3.155   0.555  14.972  1.5486  0.2697 -1.5790
14179TIP3    H264029   3.217   0.560  15.109 -2.1636 -2.1051  0.3680
14180TIP3   OH264030   0.153   0.241  15.090  0.2182 -0.1745  0.0584
14180TIP3    H164031   0.104   0.216  15.012  0.6667 -0.3166 -0.1816
14180TIP3    H264032   0.177   0.159  15.132 -0.8901 -0.0831  0.9018
14181TIP3   OH264033   5.485   3.203   3.296  0.0659  0.5318  0.1679
14181TIP3    H164034   5.482   3.119   3.341 -0.9772  0.8152  0.6410
14181TIP3    H264035   5.576   3.233   3.307 -0.0475  0.3831  1.6961
14182TIP3   OH264036   2.985   3.999  12.314  0.1565 -0.3034 -0.2783
14182TIP3    H164037   2.894   4.012  12.289  0.7413  0.6508 -2.0785
14182TIP3    H264038   2.998   4.057  12.389 -0.8833 -1.0303  0.5035
14183TIP3   OH264039   5.958   5.573  12.232  0.4115  0.0028  0.3999
14183TIP3    H164040   6.029   5.567  12.168  0.5568  1.9970  0.3195
14183TIP3    H264041   5.878   5.565  12.180  0.5459  0.7616  0.0549
14184TIP3   OH264042   0.699   3.080  15.408  0.2534 -0.1370 -0.0385
14184TIP3    H164043   0.751   3.026  15.468 -0.6112 -1.8917 -0.8392
14184TIP3    H264044   0.765   3.129  15.358  1.0320 -0.1753  0.9045
14185TIP3   OH264045   3.105   5.652  13.987 -0.1735 -0.1955  0.2390
14185TIP3    H164046   3.181   5.596  14.006  0.4979  0.8443  0.6978
14185TIP3    H264047   3.037   5.620  14.047 -0.0577 -1.0067 -0.0397
14186TIP3   OH264048   3.032   0.200  14.808 -0.2938 -0.2318 -0.4691
14186TIP3    H164049   3.020   0.286  14.767 -3.3472 -0.1964  0.2669
14186TIP3    H264050   3.103   0.213  14.870 -0.3455  1.6414 -0.7399
14187TIP3   OH264051   6.789   5.767  15.719  0.0732  0.4788  0.4221
14187TIP3    H164052   6.749   5.763  15.631  2.3749  2.0314 -0.7893
14187TIP3    H264053   6.715   5.784  15.777 -1.6510 -1.3519 -1.0533
14188TIP3   OH264054   0.189   6.236  14.141 -0.7431  0.4705 -0.2105
14188TIP3    H164055   0.148   6.320  14.164 -3.2500 -1.0918  1.5538
14188TIP3    H264056   0.139   6.171  14.191  1.4597 -2.0458 -1.0766
14189TIP3   OH264057   0.838   3.819  17.075 -0.4003  0.3059 -0.1515
14189TIP3    H164058   0.760   3.799  17.022 -1.8360  2.4887  1.0041
14189TIP3    H264059   0.847   3.743  17.133 -2.1784  0.3227  0.2251
14190TIP3   OH264060   3.996   3.093  16.796 -0.5344  0.1833 -0.4184
14190TIP3    H164061   4.048   3.110  16.717  0.1170  1.7256  0.3055
14190TIP3    H264062   3.916   3.143  16.783 -0.9221 -0.4596 -0.5711
14191TIP3   OH264063   5.301   4.045  15.813  0.1487 -0.2195 -0.1037
14191TIP3    H164064   5.319   3.952  15.831  0.1027 -0.2979 -0.4419
14191TIP3    H264065   5.234   4.043  15.744 -0.3734  0.0698  0.3902
14192TIP3   OH264066   6.303   3.588  11.457 -0.0552  0.4954  0.1788
14192TIP3    H164067   6.378   3.529  11.462 -2.1595 -2.5710 -1.4065
14192TIP3    H264068   6.314   3.634  11.374 -1.2477 -2.1215 -1.5429
14193TIP3   OH264069   5.187   1.984   1.946 -0.3050  0.3932 -0.4065
14193TIP3    H164070   5.095   2.002   1.927 -0.1453  1.4423 -0.2449
14193TIP3    H264071   5.234   2.013   1.867 -0.2554 -1.9674 -1.3188
14194TIP3   OH264072   1.084   6.014   5.776  0.4814 -0.9638  0.7591
14194TIP3    H164073   1.144   6.033   5.704 -1.6927  0.0604 -0.8999
14194TIP3    H264074   1.135   6.028   5.855  2.1672  0.7404 -0.5648
14195TIP3   OH264075   3.961   3.528  16.888 -0.2123 -0.2836 -0.2224
14195TIP3    H164076   4.039   3.582  16.902 -0.7098  0.7670 -1.3572
14195TIP3    H264077   3.954   3.519  16.793 -2.9344  1.9386 -0.3691
14196TIP3   OH264078   4.874   2.238   4.556  0.4761 -0.3153  0.1093
14196TIP3    H164079   4.957   2.264   4.516 -0.2236 -0.9683 -1.8619
14196TIP3    H264080   4.873   2.142   4.549  0.8863 -0.6401  2.9500
14197TIP3   OH264081   3.236   0.904   2.345 -0.2443 -0.0663  0.3300
14197TIP3    H164082   3.227   0.998   2.329 -0.7397 -0.1920 -0.1619
14197TIP3    H264083   3.156   0.866   2.308  0.2643 -0.7521 -0.0767
14198TIP3   OH264084   2.538   5.471  16.411 -0.3999 -0.4501 -0.3807
14198TIP3    H164085   2.601   5.472  16.339 -0.1889  1.9339 -0.2315
14198TIP3    H264086   2.577   5.529  16.477 -1.6893 -0.7482  0.6727
14199TIP3   OH264087   1.345   1.016   1.861  0.0754 -0.0058  0.5527
14199TIP3    H164088   1.325   1.019   1.767 -0.6862  2.9856  0.6908
14199TIP3    H264089   1.419   0.955   1.868  0.3596 -0.0829 -2.0186
14200TIP3   OH264090   3.325   2.485  16.495  0.0422 -0.2133  0.5287
14200TIP3    H164091   3.250   2.533  16.531  0.2990  1.3590 -0.9233
14200TIP3    H264092   3.394   2.495  16.560  0.0508  1.3415  0.3181
14201TIP3   OH264093   2.186   4.471  15.056 -0.5056  0.3380  0.4670
14201TIP3    H164094   2.137   4.398  15.018  0.5909 -1.1523  1.7751
14201TIP3    H264095   2.236   4.508  14.983 -0.5058 -0.7137 -0.0839
14202TIP3   OH264096   1.580   4.363  13.128  0.1299 -0.8687  0.2223
14202TIP3    H164097   1.620   4.329  13.048 -1.1717 -1.6271 -0.1305
14202TIP3    H264098   1.646   4.347  13.196  0.5813 -1.7676 -0.4054
14203TIP3   OH264099   5.597   2.192   5.806 -0.9540  0.0433 -0.1186
14203TIP3    H164100   5.645   2.273   5.824 -2.0794  0.6103  0.4201
14203TIP3    H264101   5.568   2.161   5.891 -1.3644 -0.4009 -0.4143
14204TIP3   OH264102   4.934   3.291  11.830  0.0846  0.2554 -0.1400
14204TIP3    H164103   4.891   3.300  11.745 -0.4867 -0.1577  0.0995
14204TIP3    H264104   5.021   3.256  11.809 -0.8910 -2.2309 -0.4236
14205TIP3   OH264105   2.138   1.303  17.152 -0.0433  0.2227  0.2144
14205TIP3    H164106   2.159   1.271  17.240  2.3706 -0.9017 -0.6669
14205TIP3    H264107   2.143   1.398  17.160 -3.1700  0.3765  1.9494
14206TIP3   OH264108   1.639   5.015   4.529  0.1625 -0.3835  0.3438
14206TIP3    H164109   1.730   4.995   4.506  0.0954  0.3373 -0.5923
14206TIP3    H264110   1.640   5.108   4.550 -0.1950 -0.5694  1.2510
14207TIP3   OH264111   0.261   5.526  10.697  0.0003  0.6031  0.1335
14207TIP3    H164112   0.351   5.510  10.668  0.0894 -0.7038  1.0397
14207TIP3    H264113   0.270   5.586  10.771  0.1238  0.6727  0.0612
14208TIP3   OH264114   6.504   1.529  16.833  0.3004  0.5160 -0.0976
14208TIP3    H164115   6.566   1.455  16.829 -0.6572 -0.4139  1.2799
14208TIP3    H264116   6.546   1.591  16.892  0.3323  0.3056  0.1026
14209TIP3   OH264117   1.181   0.709   5.495  0.1522 -0.1237 -0.8139
14209TIP3    H164118   1.274   0.709   5.517 -0.4152  0.5742  2.1000
14209TIP3    H264119   1.154   0.618   5.507  0.0237  0.1010  0.7828
14210TIP3   OH264120   1.871   0.620  11.849  0.2723  0.3899  0.0199
14210TIP3    H164121   1.920   0.593  11.927  2.8237  1.1719 -1.2269
14210TIP3    H264122   1.887   0.551  11.785  0.2686  0.9681 -0.6178
14211TIP3   OH264123   4.239   3.898  10.867 -0.6576  0.2819 -0.1250
14211TIP3    H164124   4.315   3.843  10.885 -1.2948 -0.5686  0.0159
14211TIP3    H264125   4.169   3.862  10.923 -0.8263  1.8508  0.7365
14212TIP3   OH264126   1.130   6.093   4.546 -0.6048  0.2595  0.2537
14212TIP3    H164127   1.117   6.080   4.452 -2.5957 -0.9784  0.6452
14212TIP3    H264128   1.113   6.187   4.560  3.6923  1.5060 -1.0926
14213TIP3   OH264129   3.790   4.611  13.559 -0.5233  0.0883 -0.3679
14213TIP3    H164130   3.869   4.644  13.517 -1.2749 -0.0330 -1.9557
14213TIP3    H264131   3.798   4.638  13.650  0.4004  1.8220 -0.9169
14214TIP3   OH264132   2.374   2.833  15.586 -0.1475  0.3697 -0.1041
14214TIP3    H164133   2.387   2.913  15.535 -2.2511  0.3353 -0.7904
14214TIP3    H264134   2.427   2.767  15.542  1.9422  1.4194  0.7106
14215TIP3   OH264135   6.544   3.434   1.087 -0.4278  0.5648 -0.8560
14215TIP3    H164136   6.614   3.378   1.054 -0.7075  0.5284 -1.3972
14215TIP3    H264137   6.477   3.373   1.119  0.6148  0.5652  1.5553
14216TIP3   OH264138   1.458   5.475  13.983 -0.1955 -0.1742  0.4492
14216TIP3    H164139   1.429   5.520  14.062 -1.2541 -0.2828  0.1306
14216TIP3    H264140   1.488   5.389  14.013 -1.0789 -0.4112  0.6786
14217TIP3   OH264141   2.634   4.040   1.503  0.2293 -0.5594  0.5352
14217TIP3    H164142   2.622   4.126   1.544  0.8885 -1.1784  2.1448
14217TIP3    H264143   2.639   4.058   1.409  0.9875  1.2410  0.8741
14218TIP3   OH264144   2.769   2.956  15.340 -0.9317 -0.3106 -0.2273
14218TIP3    H164145   2.684   2.920  15.365 -0.8017 -0.2253  0.3362
14218TIP3    H264146   2.773   2.944  15.245 -0.7693 -2.0620 -0.0299
14219TIP3   OH264147   3.011   4.786   0.961  0.3175  0.1825 -0.2643
14219TIP3    H164148   2.973   4.746   0.883  1.3117  0.0035 -0.6634
14219TIP3    H264149   3.010   4.880   0.943  0.7790  0.1227 -0.5959
14220TIP3   OH264150   5.425   1.402   1.991 -0.0841  0.5238  0.6244
14220TIP3    H164151   5.453   1.413   1.900  0.5930  0.0437  0.7687
14220TIP3    H264152   5.466   1.320   2.020 -1.1475  0.1201  1.0437
14221TIP3   OH264153   2.298   2.294   3.972 -0.1354  0.1235 -0.0496
14221TIP3    H164154   2.321   2.201   3.970  1.0714  0.3456  1.6803
14221TIP3    H264155   2.260   2.310   3.886  1.1035 -1.6042 -1.0000
14222TIP3   OH264156   6.145   5.685  16.502 -0.6103 -0.1160  0.1835
14222TIP3    H164157   6.220   5.740  16.522 -0.5734  0.2084 -0.7931
14222TIP3    H264158   6.178   5.595  16.510 -0.2559  0.0181  0.2425
14223TIP3   OH264159   3.105   0.557  11.647 -0.7298  0.1890  0.0143
14223TIP3    H164160   3.014   0.587  11.645 -1.2203 -1.2764 -0.5868
14223TIP3    H264161   3.127   0.542  11.555 -0.3835 -0.9625  0.2782
14224TIP3   OH264162   2.265   6.304   4.195  0.3768  0.4453  0.0143
14224TIP3    H164163   2.212   6.335   4.269  0.7007  1.9618 -0.3506
14224TIP3    H264164   2.313   6.229   4.229 -0.7519  0.0691  0.8346
14225TIP3   OH264165   0.282   5.232  10.995 -0.0278 -0.0545 -0.4417
14225TIP3    H164166   0.355   5.178  11.026 -1.1899 -0.3975  1.9255
14225TIP3    H264167   0.298   5.318  11.033  0.1996  0.4618 -1.6556
14226TIP3   OH264168   4.597   0.350   3.194  0.0925 -0.4483 -0.0707
14226TIP3    H164169   4.578   0.431   3.146  0.1074 -0.2772  0.2100
14226TIP3    H264170   4.517   0.333   3.244 -0.1364 -0.9403 -0.5951
14227TIP3   OH264171   2.216   0.751   5.978  0.6007 -0.2848  0.1908
14227TIP3    H164172   2.198   0.843   5.998  1.4701 -0.2838  0.9954
14227TIP3    H264173   2.130   0.709   5.980  0.1295  0.5869 -0.6782
14228TIP3   OH264174   6.403   5.570  11.247 -0.0329  0.2908 -0.4175
14228TIP3    H164175   6.324   5.568  11.193 -1.8208  2.3668  1.9096
14228TIP3    H264176   6.406   5.483  11.287  0.9476 -1.0510 -3.1107
14229TIP3   OH264177   6.574   0.915   3.325  0.2174  0.1104 -0.2771
14229TIP3    H164178   6.484   0.884   3.317  0.7649 -1.7140  0.2155
14229TIP3    H264179   6.568   1.010   3.313 -2.0730  0.3773  2.1309
14230TIP3   OH264180   6.346   1.159   1.497 -0.4261 -0.4946 -0.1311
14230TIP3    H164181   6.290   1.083   1.485 -3.0351  1.1871  0.4847
14230TIP3    H264182   6.352   1.199   1.411 -1.3450  0.0244  0.0264
14231TIP3   OH264183   3.343   3.008  13.409  0.8763  0.4427  0.1531
14231TIP3    H164184   3.329   2.931  13.464 -3.2436  0.9151  0.0398
14231TIP3    H264185   3.412   2.982  13.348  2.2186 -1.7634  2.4220
14232TIP3   OH264186   6.699   6.698  13.273 -0.0730  0.2500  0.0868
14232TIP3    H164187   6.720   6.780  13.319  0.3593  0.7154 -0.9104
14232TIP3    H264188   6.776   6.643  13.287  0.1646  0.4861 -0.2942
14233TIP3   OH264189   3.503   0.910   2.227  0.0533  0.5876 -0.2680
14233TIP3    H164190   3.474   0.863   2.149 -1.8974  2.0620 -0.4993
14233TIP3    H264191   3.431   0.901   2.289  1.1470  0.3095  0.9987
14234TIP3   OH264192   3.762   2.322  15.306  0.2932  0.2928  0.0234
14234TIP3    H164193   3.690   2.304  15.366 -0.1402  0.1846 -0.5169
14234TIP3    H264194   3.791   2.411  15.328  1.6359 -0.5309  1.8833
14235TIP3   OH264195   6.634   4.914  14.406  0.1511  0.9342 -0.1752
14235TIP3    H164196   6.642   4.819  14.416 -1.9625  0.7359 -0.0320
14235TIP3    H264197   6.571   4.925  14.335  0.9033  2.2644 -0.6733
14236TIP3   OH264198   3.632   6.086   3.563  0.2820 -0.3947 -0.0958
14236TIP3    H164199   3.585   6.158   3.604 -0.0255 -1.0520  0.7530
14236TIP3    H264200   3.713   6.125   3.531  0.8581  0.0372  1.7649
14237TIP3   OH264201   0.180   2.307   2.606 -0.3064  0.5261 -0.3417
14237TIP3    H164202   0.269   2.343   2.600 -0.9344  1.9727 -1.4607
14237TIP3    H264203   0.167   2.295   2.700  1.2505 -0.2350 -0.1773
14238TIP3   OH264204   2.527   1.228  13.106  0.2343 -0.1069 -0.2407
14238TIP3    H164205   2.434   1.209  13.119  0.5296 -0.6416  1.2752
14238TIP3    H264206   2.533   1.324  13.113 -0.1038 -0.1284  0.3778
14239TIP3   OH264207   3.601   4.727   5.582 -0.3389 -0.5714  0.0565
14239TIP3    H164208   3.560   4.773   5.655  0.9307  0.2250  0.3090
14239TIP3    H264209   3.688   4.703   5.614  0.5638  0.5210 -1.4162
14240TIP3   OH264210   2.933   1.924  12.816 -0.4020  0.0183  0.0853
14240TIP3    H164211   3.021   1.889  12.807 -0.1479  0.9795 -2.0705
14240TIP3    H264212   2.889   1.899  12.734 -1.9887 -0.0308  0.9099
14241TIP3   OH264213   3.274   2.216  15.206  0.1884 -0.1636 -0.4826
14241TIP3    H164214   3.179   2.216  15.214  0.0673  0.7768 -1.5515
14241TIP3    H264215   3.296   2.127  15.180 -0.3456 -0.5113  0.2304
14242TIP3   OH264216   4.648   2.224   0.761 -0.1442  0.1028 -0.0866
14242TIP3    H164217   4.674   2.217   0.669 -0.0782 -0.1891 -0.0457
14242TIP3    H264218   4.673   2.140   0.800 -1.4366 -0.3206 -0.1268
14243TIP3   OH264219   5.004   3.545  14.407 -0.2375 -0.3374  0.0215
14243TIP3    H164220   5.044   3.624  14.441 -0.1746 -0.7863  1.0046
14243TIP3    H264221   4.914   3.570  14.386 -0.1835  0.0142  0.2213
14244TIP3   OH264222   5.941   4.961  13.079  0.0894  0.1159 -0.0842
14244TIP3    H164223   5.874   4.978  13.013 -0.9495  2.8445  1.5218
14244TIP3    H264224   6.024   4.980  13.035 -0.4417  0.1035 -1.1045
14245TIP3   OH264225   4.681   1.044   6.709 -0.0033  0.1674  0.4750
14245TIP3    H164226   4.638   1.127   6.688 -1.6896 -0.3461  1.6161
14245TIP3    H264227   4.610   0.989   6.745  1.3230 -1.3003  0.9664
14246TIP3   OH264228   0.459   5.113  15.779 -0.3231 -0.2588  0.6447
14246TIP3    H164229   0.381   5.161  15.751  1.0297  2.2252  0.8115
14246TIP3    H264230   0.476   5.146  15.867  2.6717  1.7864 -0.5504
14247TIP3   OH264231   2.503   4.245  12.504 -0.5245  0.0466 -0.3755
14247TIP3    H164232   2.513   4.301  12.427 -1.5220 -0.8940 -1.2313
14247TIP3    H264233   2.565   4.174  12.490  1.1691  1.1836  0.9989
14248TIP3   OH264234   5.230   3.596   6.223  0.1040  0.0755 -0.5097
14248TIP3    H164235   5.140   3.594   6.191  0.2328 -0.4323 -0.8497
14248TIP3    H264236   5.224   3.561   6.312 -0.0879  0.3997 -0.3938
14249TIP3   OH264237   5.978   6.378   3.389  0.1264 -0.3835 -0.2011
14249TIP3    H164238   6.051   6.437   3.373 -0.2561  0.3009  0.5013
14249TIP3    H264239   5.911   6.405   3.327 -0.6874  1.0912  1.2333
14250TIP3   OH264240   1.454   2.250   5.716  0.1472  0.5394  0.0606
14250TIP3    H164241   1.480   2.158   5.709 -1.2372  0.1938 -1.0269
14250TIP3    H264242   1.402   2.255   5.796  1.1610  0.6459  0.7349
14251TIP3   OH264243   4.228   4.119  12.539  0.3813 -0.3212 -0.1722
14251TIP3    H164244   4.248   4.056  12.608  1.4772  0.3068  0.1059
14251TIP3    H264245   4.156   4.171  12.573 -0.0840 -0.9902 -0.1262
14252TIP3   OH264246   4.407   0.720  10.567 -0.3012  0.1312  0.0344
14252TIP3    H164247   4.476   0.722  10.634 -1.4752  1.6109  1.2714
14252TIP3    H264248   4.382   0.628  10.561  1.2615 -0.3312  0.0761
14253TIP3   OH264249   4.061   5.083   2.323  0.3406 -0.8943 -0.2383
14253TIP3    H164250   4.048   5.148   2.392 -0.0891 -0.7312 -0.4749
14253TIP3    H264251   3.982   5.029   2.325  0.1386 -0.6215 -0.8963
14254TIP3   OH264252   4.256   1.072   6.598  0.0948 -0.0903 -0.0482
14254TIP3    H164253   4.315   1.074   6.673 -1.2662 -1.3746  1.1189
14254TIP3    H264254   4.173   1.040   6.633 -0.7801 -0.1074 -1.9818
14255TIP3   OH264255   0.959   3.012  13.020 -0.0942  0.2914  0.1199
14255TIP3    H164256   0.932   3.058  12.941  0.7531  2.3968  0.9769
14255TIP3    H264257   1.055   3.009  13.015 -0.0380  0.2854  0.9624
14256TIP3   OH264258   6.173   6.457   4.744  0.1123 -0.6036  0.3495
14256TIP3    H164259   6.248   6.399   4.758  0.6831 -0.9072 -3.0577
14256TIP3    H264260   6.210   6.545   4.747  0.3685 -0.6968  0.0690
14257TIP3   OH264261   5.961   0.889   5.259  0.6644 -0.7534  0.0973
14257TIP3    H164262   5.881   0.840   5.277  0.7065 -1.1338 -0.7153
14257TIP3    H264263   5.979   0.873   5.167  0.0309  1.7149 -0.5398
14258TIP3   OH264264   0.051   1.772   4.930 -0.1124  0.9595 -0.2995
14258TIP3    H164265   0.038   1.734   5.017  0.2365 -0.6161 -0.9066
14258TIP3    H264266  -0.014   1.842   4.925 -1.0944  0.1664  0.7116
14259TIP3   OH264267   3.189   6.451   1.310  0.0929 -0.5537 -0.8776
14259TIP3    H164268   3.248   6.377   1.298 -0.8625 -1.2121 -1.7922
14259TIP3    H264269   3.246   6.528   1.312  0.9328 -1.0483 -2.9255
14260TIP3   OH264270   4.939   0.473  11.507 -0.3868 -0.0425  0.2198
14260TIP3    H164271   4.908   0.442  11.592 -3.3305 -0.7486 -0.9873
14260TIP3    H264272   4.901   0.560  11.497  0.3632  0.2538 -0.2038
14261TIP3   OH264273   5.514   1.958   1.829  0.2717 -0.5051 -0.0426
14261TIP3    H164274   5.556   1.873   1.841  0.7000 -0.3898 -0.7011
14261TIP3    H264275   5.507   1.969   1.734 -1.6096 -0.6885  0.0275
14262TIP3   OH264276   5.818   5.391   4.394  0.0990  1.0706  0.3428
14262TIP3    H164277   5.780   5.451   4.458  1.6540  0.5574  1.8112
14262TIP3    H264278   5.836   5.311   4.443  0.7915  0.4462 -0.8807
14263TIP3   OH264279   2.597   4.668   3.949  0.1770 -0.1658 -0.6617
14263TIP3    H164280   2.584   4.577   3.978 -0.7771 -0.2611 -1.3448
14263TIP3    H264281   2.583   4.665   3.855 -1.9389  1.0390 -0.4359
14264TIP3   OH264282   1.435   4.410   3.191 -0.2783  0.5851 -0.3180
14264TIP3    H164283   1.412   4.320   3.170 -0.0843 -0.0956  2.1118
14264TIP3    H264284   1.519   4.424   3.147  0.1138 -0.7090 -0.0204
14265TIP3   OH264285   6.676   1.204   4.689 -0.2019  0.1618 -0.5760
14265TIP3    H164286   6.734   1.190   4.764  0.1395  2.8999 -0.2574
14265TIP3    H264287   6.589   1.209   4.728 -0.2178 -0.0300 -0.5831
14266TIP3   OH264288   2.351   2.314   1.065  0.0111  0.3055 -0.2902
14266TIP3    H164289   2.361   2.332   0.971 -0.3025  0.7834 -0.2331
14266TIP3    H264290   2.306   2.390   1.100 -1.0255 -0.4367  0.0329
14267TIP3   OH264291   4.036   0.745   6.154  0.0307 -0.7683 -0.1046
14267TIP3    H164292   4.022   0.838   6.137 -1.7315 -1.2291 -1.5412
14267TIP3    H264293   4.132   0.735   6.156  0.2575  1.0881  0.3673
14268TIP3   OH264294   3.672   0.389  11.669  0.3679 -0.3508  0.2450
14268TIP3    H164295   3.659   0.437  11.752  0.0893  0.6599 -0.3601
14268TIP3    H264296   3.616   0.435  11.606  1.8541 -0.0520 -0.8983
14269TIP3   OH264297   2.529   5.651   1.117  0.1754  0.5762 -0.6891
14269TIP3    H164298   2.474   5.707   1.173  0.7644 -1.2807  1.9513
14269TIP3    H264299   2.535   5.568   1.165  2.4872 -0.4572 -2.5634
14270TIP3   OH264300   5.592   3.748  16.156 -0.2588 -0.1173 -0.4537
14270TIP3    H164301   5.579   3.669  16.208  0.4419 -1.0107 -1.5970
14270TIP3    H264302   5.636   3.809  16.215 -0.3878 -0.7351  0.2948
14271TIP3   OH264303   1.854   3.854   5.910  0.3075  0.5033  0.1233
14271TIP3    H164304   1.833   3.784   5.972  2.7653  0.9383  1.5714
14271TIP3    H264305   1.769   3.880   5.874 -0.6418 -3.9516 -1.4265
14272TIP3   OH264306   2.264   5.511   0.455  0.2973  0.2009 -0.4165
14272TIP3    H164307   2.238   5.435   0.508  1.8373  0.1608  0.3223
14272TIP3    H264308   2.182   5.556   0.438 -0.3487 -0.1129  1.5154
14273TIP3   OH264309   0.350   0.650   1.201 -0.2484 -0.1458  0.0513
14273TIP3    H164310   0.401   0.569   1.193  0.6243  0.5902 -3.0191
14273TIP3    H264311   0.350   0.687   1.113 -3.2299  1.6755  0.6834
14274TIP3   OH264312   2.669   0.906  15.336  0.8494  0.2516  0.0256
14274TIP3    H164313   2.622   0.922  15.254 -0.8755 -3.8957 -0.0441
14274TIP3    H264314   2.603   0.920  15.404  0.4952 -1.9450  0.2002
14275TIP3   OH264315   3.020   6.560   2.855  0.2399 -0.1374  1.0189
14275TIP3    H164316   3.040   6.654   2.860 -0.2379 -0.0546  1.5750
14275TIP3    H264317   3.053   6.524   2.938 -1.1958 -0.1181  1.6361
14276TIP3   OH264318   4.494   3.374  15.972 -0.3817 -0.1925  0.6296
14276TIP3    H164319   4.449   3.403  15.893  0.3232 -0.1680  0.2266
14276TIP3    H264320   4.486   3.448  16.032 -1.1417 -0.3092  0.6828
14277TIP3   OH264321   3.274   3.129  13.967 -0.3947  0.0334  0.0488
14277TIP3    H164322   3.179   3.131  13.976 -0.2491  0.6322  2.0353
14277TIP3    H264323   3.293   3.044  13.929 -1.6578 -0.8211  1.2119
14278TIP3   OH264324   4.729   4.407  11.100 -0.2527  0.0287  0.1262
14278TIP3    H164325   4.711   4.498  11.125  0.6049  0.0865  0.5697
14278TIP3    H264326   4.766   4.413  11.012  2.1147  0.3740  1.0596
14279TIP3   OH264327   5.876   0.851   3.902  0.2719  0.3005  0.1747
14279TIP3    H164328   5.969   0.832   3.895 -0.2489 -1.8894 -2.7442
14279TIP3    H264329   5.871   0.947   3.903  2.5997  0.6004  4.3275
14280TIP3   OH264330   2.374   5.523  12.540  0.4657  0.4350 -0.0614
14280TIP3    H164331   2.287   5.487  12.524  0.6293 -0.0503  0.0982
14280TIP3    H264332   2.430   5.445  12.549  0.6132  0.6890  1.6011
14281TIP3   OH264333   1.610   2.666   0.597  0.1875  0.5851 -0.3989
14281TIP3    H164334   1.627   2.591   0.655  0.3356  2.8953  2.8281
14281TIP3    H264335   1.695   2.684   0.556  0.2680 -0.6705 -0.8199
14282TIP3   OH264336   2.018   6.759  13.104 -0.0059  0.2291 -0.0309
14282TIP3    H164337   2.014   6.663  13.104 -0.4737  0.2503 -0.3857
14282TIP3    H264338   1.934   6.787  13.139  0.5680  0.5022  1.2110
14283TIP3   OH264339   6.468   6.295  14.951  0.6159 -0.0628 -0.2140
14283TIP3    H164340   6.404   6.334  15.010  0.9496  2.4802 -1.4227
14283TIP3    H264341   6.543   6.273  15.007  0.5252  1.3425  0.4775
14284TIP3   OH264342   3.510   4.722   4.915  0.2194 -0.3283 -0.1984
14284TIP3    H164343   3.547   4.730   5.003  1.1023 -1.3618 -0.4404
14284TIP3    H264344   3.416   4.709   4.928  0.2804 -0.0138  0.5652
14285TIP3   OH264345   6.437   4.273   1.134  0.4928 -0.7203 -0.2757
14285TIP3    H164346   6.488   4.301   1.057  0.9598 -2.5663 -0.6886
14285TIP3    H264347   6.380   4.348   1.153  1.0019  0.1309 -1.8551
14286TIP3   OH264348   2.196   2.313   3.275 -0.2754  0.7846 -0.4314
14286TIP3    H164349   2.123   2.375   3.283 -0.2025  0.8430 -0.1995
14286TIP3    H264350   2.270   2.358   3.315 -0.3747  0.3034  0.3284
14287TIP3   OH264351   0.540   5.164  11.065  0.3094  0.1661  0.1862
14287TIP3    H164352   0.565   5.094  11.125  0.1818  0.7873  0.9785
14287TIP3    H264353   0.622   5.188  11.021  0.1563 -1.2342 -0.9346
14288TIP3   OH264354   0.556   1.210  12.877  0.1715 -0.1189  0.1354
14288TIP3    H164355   0.537   1.304  12.887  1.1511  0.1442 -0.3180
14288TIP3    H264356   0.552   1.175  12.966 -0.0845  0.3849  0.3255
14289TIP3   OH264357   1.724   5.495   6.226  0.2106  0.3350 -0.1261
14289TIP3    H164358   1.644   5.443   6.233  0.5313 -0.1889 -0.3762
14289TIP3    H264359   1.712   5.565   6.291 -0.9719  0.9583 -0.9802
14290TIP3   OH264360   0.147   4.416  11.666  0.5550  0.5631 -0.5394
14290TIP3    H164361   0.093   4.483  11.623  0.9763  0.9192 -0.5216
14290TIP3    H264362   0.120   4.420  11.758 -0.8204 -0.6555 -0.8533
14291TIP3   OH264363   6.635   2.931  10.330  0.0502  0.3773  0.0177
14291TIP3    H164364   6.573   2.904  10.399  0.2308 -0.2214 -0.0552
14291TIP3    H264365   6.589   2.913  10.248 -1.0027  2.9688 -0.0621
14292TIP3   OH264366   5.360   5.209  10.589  0.1956  0.1723  0.4184
14292TIP3    H164367   5.291   5.256  10.543  0.3618  0.4169  0.4143
14292TIP3    H264368   5.429   5.275  10.603 -0.9604  0.9026  3.4744
14293TIP3   OH264369   2.439   4.721   3.016  0.4705 -0.6394  0.1462
14293TIP3    H164370   2.525   4.693   2.986  0.5630 -0.2167  0.0163
14293TIP3    H264371   2.439   4.816   3.006  0.4679 -0.4853  1.3697
14294TIP3   OH264372   3.466   1.188  15.762  0.3669 -0.1388  0.1072
14294TIP3    H164373   3.419   1.127  15.820 -0.0287 -0.6490 -0.7259
14294TIP3    H264374   3.551   1.201  15.804 -0.2922  0.3295  1.3377
14295TIP3   OH264375   4.528   1.788  16.743 -0.0039  0.0016 -0.0740
14295TIP3    H164376   4.559   1.762  16.656  1.4295 -0.2011  0.4697
14295TIP3    H264377   4.592   1.750  16.803 -0.2718  1.2036  1.0025
14296TIP3   OH264378   5.506   1.321   4.592  0.1778 -0.4281 -0.5862
14296TIP3    H164379   5.577   1.385   4.601 -1.7492  1.8097 -0.5339
14296TIP3    H264380   5.549   1.243   4.557  2.7343  0.6552 -0.0965
14297TIP3   OH264381   0.415   3.574   4.480 -0.1833 -0.6107 -0.1694
14297TIP3    H164382   0.342   3.512   4.474 -1.6133  0.7184  1.9553
14297TIP3    H264383   0.374   3.660   4.481  1.1822  0.1536  2.5926
14298TIP3   OH264384   5.690   2.980   0.878  0.3722  0.6071 -0.1991
14298TIP3    H164385   5.641   2.975   0.961 -2.1579  1.2914 -1.5414
14298TIP3    H264386   5.688   2.890   0.845  2.8459 -0.0489  1.1387
14299TIP3   OH264387   1.736   2.753   1.047  0.3953  0.2198 -0.0927
14299TIP3    H164388   1.736   2.739   1.142 -0.6218 -1.6699 -0.3307
14299TIP3    H264389   1.671   2.692   1.014  0.2313  1.3370 -1.9676
14300TIP3   OH264390   3.192   0.308   3.367  0.0550 -0.1706  0.6474
14300TIP3    H164391   3.188   0.217   3.395 -1.3446 -0.7369 -1.1835
14300TIP3    H264392   3.110   0.346   3.396  0.1094  0.1703  0.3603
14301TIP3   OH264393   2.362   3.408   2.890  0.4694  0.7796 -0.3192
14301TIP3    H164394   2.289   3.367   2.936  0.0532  2.2059  0.3428
14301TIP3    H264395   2.437   3.396   2.948  0.1508  1.7312  0.3088
14302TIP3   OH264396   3.753   3.095   3.020  0.0447  0.4076 -0.1321
14302TIP3    H164397   3.687   3.084   2.951  1.0029  1.0852 -1.2113
14302TIP3    H264398   3.817   3.154   2.981  1.4300 -0.4464  0.7789
14303TIP3   OH264399   4.648   6.578  14.748 -0.6199 -0.5033  0.1385
14303TIP3    H164400   4.613   6.504  14.699 -0.6900  0.3235 -1.1090
14303TIP3    H264401   4.736   6.552  14.773 -0.4323 -0.7882 -0.8029
14304TIP3   OH264402   4.340   3.433  12.968  0.2581 -0.4047 -0.6132
14304TIP3    H164403   4.415   3.454  13.023  0.3988 -2.1572 -0.0829
14304TIP3    H264404   4.375   3.436  12.878  1.2063 -1.9391 -0.3387
14305TIP3   OH264405   5.428   3.679   2.204  0.1597  0.0128  0.1908
14305TIP3    H164406   5.448   3.586   2.214  0.2589  0.0358  0.2162
14305TIP3    H264407   5.335   3.682   2.182  0.3076 -0.1258 -0.4601
14306TIP3   OH264408   4.735   4.624   3.918  0.0842  0.2503  0.0116
14306TIP3    H164409   4.695   4.644   4.003  1.1471 -0.3654  0.6764
14306TIP3    H264410   4.791   4.548   3.935  2.2456  1.6138 -0.6731
14307TIP3   OH264411   5.133   1.043   5.447  0.1599  0.7057  1.1607
14307TIP3    H164412   5.066   0.983   5.481 -1.4359  2.9872  2.3089
14307TIP3    H264413   5.084   1.111   5.402  1.8367  1.6360  0.6415
14308TIP3   OH264414   5.048   2.676  17.070 -0.8432  0.1958 -0.3839
14308TIP3    H164415   4.999   2.655  17.149 -0.3522  0.6173  0.0406
14308TIP3    H264416   4.989   2.732  17.019 -0.2561  2.0559  0.8586
14309TIP3   OH264417   5.998   5.357   5.107  0.1353  0.8172 -0.5600
14309TIP3    H164418   5.906   5.371   5.083  0.0661 -1.7002 -2.1542
14309TIP3    H264419   6.047   5.408   5.043 -0.1688 -0.0678 -1.5358
14310TIP3   OH264420   6.368   6.387   5.686  0.2406  0.5000  0.0580
14310TIP3    H164421   6.309   6.422   5.753  0.2539  2.5322 -0.9312
14310TIP3    H264422   6.311   6.363   5.613  0.4961  1.1825 -0.3738
14311TIP3   OH264423   1.421   1.244   6.110  0.2422 -0.1157  0.3390
14311TIP3    H164424   1.403   1.150   6.114  0.8186 -0.3715 -1.7458
14311TIP3    H264425   1.341   1.286   6.141 -1.2659 -1.2954 -1.6598
14312TIP3   OH264426   0.454   0.212  15.304 -0.0111  0.3449 -0.0995
14312TIP3    H164427   0.389   0.142  15.303 -0.0192  0.3292  0.9526
14312TIP3    H264428   0.405   0.291  15.283 -0.0019  0.0552 -1.2913
14313TIP3   OH264429   6.245   5.501   4.919 -0.4381  0.2680  0.2549
14313TIP3    H164430   6.259   5.515   4.825  0.9137 -0.5573  0.3055
14313TIP3    H264431   6.332   5.477   4.953 -0.4747  2.3684  2.0775
14314TIP3   OH264432   5.083   2.503  15.984  0.2055 -0.0759 -0.0836
14314TIP3    H164433   5.119   2.457  15.908  0.6124  0.3257 -0.1383
14314TIP3    H264434   4.990   2.480  15.983  0.2161 -0.1208 -0.6700
14315TIP3   OH264435   3.840   1.156   1.115  0.0875  0.0232 -0.3080
14315TIP3    H164436   3.789   1.217   1.168  1.3860  0.5474  0.3955
14315TIP3    H264437   3.879   1.210   1.046 -1.1424 -0.5597 -1.4996
14316TIP3   OH264438   3.743   5.449  13.122 -0.4589  0.2620  0.7432
14316TIP3    H164439   3.754   5.414  13.033 -1.5992 -0.5607  0.9018
14316TIP3    H264440   3.771   5.540  13.116 -0.7013  0.2709 -0.5149
14317TIP3   OH264441   5.803   4.164   2.718 -0.4978 -0.0846 -0.2050
14317TIP3    H164442   5.807   4.153   2.813 -0.8950  0.4936 -0.1169
14317TIP3    H264443   5.796   4.075   2.684 -0.3393 -0.2956  0.3068
14318TIP3   OH264444   3.350   0.381   2.947 -0.1391 -0.5907  0.2037
14318TIP3    H164445   3.285   0.442   2.984  0.2473 -0.3968  0.5761
14318TIP3    H264446   3.413   0.438   2.903  1.1609 -0.5618  1.9942
14319TIP3   OH264447   3.865   5.112  13.329  0.0980 -0.1894 -0.2542
14319TIP3    H164448   3.856   5.078  13.418 -0.0363  0.8010  0.1224
14319TIP3    H264449   3.777   5.143  13.306  0.1320 -0.4355 -0.7356
14320TIP3   OH264450   2.570   4.905   1.913 -0.0901 -0.0699  0.0235
14320TIP3    H164451   2.477   4.905   1.935 -0.0883 -0.7919  0.0273
14320TIP3    H264452   2.605   4.982   1.959 -0.4429 -0.5159  1.0624
14321TIP3   OH264453   0.929   2.128   5.018  0.5941  0.0395  0.3588
14321TIP3    H164454   1.008   2.174   5.047  1.3640 -1.1431  0.1988
14321TIP3    H264455   0.866   2.198   4.998  0.8001  0.9763  2.6673
14322TIP3   OH264456   1.864   2.471   3.709  0.2968  0.4316  0.0151
14322TIP3    H164457   1.877   2.381   3.740 -2.0103 -0.1181 -0.4439
14322TIP3    H264458   1.896   2.526   3.781  3.5765 -0.6280 -0.4594
14323TIP3   OH264459   3.116   6.378   4.536  0.1410  0.3509  0.3431
14323TIP3    H164460   3.112   6.306   4.599 -0.0053  0.1506  0.1081
14323TIP3    H264461   3.209   6.392   4.521  0.1756  0.3871  0.5886
14324TIP3   OH264462   5.379   4.278   0.289 -0.1986 -0.1641  0.2941
14324TIP3    H164463   5.314   4.209   0.281  0.9522 -1.1144 -1.5711
14324TIP3    H264464   5.421   4.281   0.203 -0.2181  2.9063  0.2870
14325TIP3   OH264465   5.213   1.539   6.474 -0.2539 -0.0480 -0.1924
14325TIP3    H164466   5.212   1.626   6.514 -0.8466  0.5192 -1.3990
14325TIP3    H264467   5.121   1.511   6.477 -0.1542 -0.3942 -0.3185
14326TIP3   OH264468   2.614   6.774   1.528  0.3712 -0.0820 -0.4328
14326TIP3    H164469   2.544   6.723   1.487 -1.3639  2.0376 -0.2918
14326TIP3    H264470   2.615   6.856   1.479  2.7548 -0.0161 -0.3672
14327TIP3   OH264471   2.367   3.416   5.329 -0.1463 -0.4637  0.2625
14327TIP3    H164472   2.409   3.381   5.407 -0.4056 -0.6440  0.3225
14327TIP3    H264473   2.279   3.440   5.358  0.2847  1.0315  0.4308
14328TIP3   OH264474   2.462   5.091  11.256  0.0594 -0.2174  0.1829
14328TIP3    H164475   2.543   5.090  11.205 -1.0092  2.6329 -1.8182
14328TIP3    H264476   2.407   5.024  11.214 -0.2278  1.0200 -1.5364
14329TIP3   OH264477   1.659   1.769   0.756  0.3724  0.3559  0.0179
14329TIP3    H164478   1.732   1.765   0.819 -0.1810  0.7342  0.6948
14329TIP3    H264479   1.696   1.734   0.675  1.8133  2.0341 -0.1238
14330TIP3   OH264480   0.061   6.143  11.731  0.0625 -0.0409  0.0039
14330TIP3    H164481   0.147   6.176  11.756 -0.0571  0.3573 -0.0949
14330TIP3    H264482   0.005   6.221  11.728 -0.6175 -0.4424  1.3412
14331TIP3   OH264483   1.172   5.561  13.070  0.0896 -0.4234 -0.1326
14331TIP3    H164484   1.165   5.610  12.989  1.9700 -0.4308 -0.3442
14331TIP3    H264485   1.113   5.486  13.059 -1.2790  0.6817 -0.6017
14332TIP3   OH264486   3.602   3.973  15.027  0.0235 -0.2888 -0.2577
14332TIP3    H164487   3.629   3.947  15.115  1.0086  1.2808 -0.0540
14332TIP3    H264488   3.511   3.945  15.021  0.2573 -1.3868  0.8469
14333TIP3   OH264489   1.018   6.353  11.060  0.4631 -0.1210  0.3974
14333TIP3    H164490   0.936   6.327  11.017  0.3967  1.9760 -0.8357
14333TIP3    H264491   1.010   6.317  11.149 -1.7817  0.0007  0.3078
14334TIP3   OH264492   1.170   4.956  14.386  0.2852 -0.6869 -0.0344
14334TIP3    H164493   1.078   4.973  14.366  0.4326  1.4353  0.8505
14334TIP3    H264494   1.217   5.030  14.349  1.6432 -1.6598 -0.3238
14335TIP3   OH264495   3.531   5.362   1.800  0.6626 -0.6716 -0.9882
14335TIP3    H164496   3.557   5.416   1.875  1.5284 -0.8949 -1.1186
14335TIP3    H264497   3.493   5.283   1.839 -0.0007 -0.2681 -0.7967
14336TIP3   OH264498   6.066   6.308  10.960 -0.1554 -0.7887 -0.7266
14336TIP3    H164499   6.156   6.284  10.937  0.5346  0.7693  0.1898
14336TIP3    H264500   6.057   6.281  11.052  0.6387  2.1680  0.3357
14337TIP3   OH264501   1.595   2.059   3.750  0.4604 -0.6605  0.1461
14337TIP3    H164502   1.634   2.144   3.729  0.7164 -1.2887 -2.1261
14337TIP3    H264503   1.505   2.066   3.719  0.4532 -1.1904  0.0435
14338TIP3   OH264504   5.255   4.389   5.754 -0.4041  0.7038  0.0438
14338TIP3    H164505   5.349   4.403   5.749 -0.3869  0.4018 -0.7424
14338TIP3    H264506   5.219   4.437   5.679 -0.8522  0.6927  0.2473
14339TIP3   OH264507   0.755   5.175   1.556  0.2780 -0.1305  1.1951
14339TIP3    H164508   0.661   5.155   1.549  0.6279 -1.7338  0.8376
14339TIP3    H264509   0.757   5.257   1.606 -1.4128  1.3354 -0.9281
14340TIP3   OH264510   3.642   4.098   4.500  0.1363  0.7184 -0.0912
14340TIP3    H164511   3.568   4.137   4.546  0.3603 -0.8639  1.7867
14340TIP3    H264512   3.708   4.086   4.569  0.9532 -0.6829 -1.0816
14341TIP3   OH264513   6.027   3.332  15.075 -0.4072 -0.0999 -0.3222
14341TIP3    H164514   6.004   3.308  14.985 -4.1171 -0.2659  0.5203
14341TIP3    H264515   5.982   3.267  15.129  2.1849 -0.3517  1.7405
14342TIP3   OH264516   4.163   3.074   2.283  0.5077 -0.1581  0.6761
14342TIP3    H164517   4.075   3.111   2.283  0.5870  0.0397  0.9428
14342TIP3    H264518   4.156   2.994   2.232 -0.0674 -0.7230  1.6094
14343TIP3   OH264519   6.009   4.654   5.376  0.4401 -0.4495 -0.1382
14343TIP3    H164520   6.035   4.563   5.365  2.1471 -0.1729  1.1651
14343TIP3    H264521   5.917   4.650   5.401  0.3114 -1.7511 -0.7347
14344TIP3   OH264522   0.526   0.947   6.449 -0.3512  0.4815  0.2494
14344TIP3    H164523   0.602   0.986   6.406 -0.0883  0.7256  0.9341
14344TIP3    H264524   0.451   0.994   6.411 -0.1031  0.9027  0.2786
14345TIP3   OH264525   4.079   6.350  11.661 -0.5204  0.6706  0.1553
14345TIP3    H164526   4.063   6.409  11.735  1.8633  0.8052  0.6239
14345TIP3    H264527   4.051   6.264  11.692  0.8930  0.6377  1.4451
14346TIP3   OH264528   1.964   4.917   0.961 -0.0786  0.0476  0.2710
14346TIP3    H164529   2.008   4.948   0.883  2.0717 -2.9058  0.1337
14346TIP3    H264530   2.035   4.892   1.021 -1.6246 -0.5078  1.9834
14347TIP3   OH264531   3.241   6.085  16.052 -0.0136  0.1975 -0.5445
14347TIP3    H164532   3.291   6.142  15.995  0.8063  0.3686  0.3249
14347TIP3    H264533   3.274   5.997  16.034  2.2332  0.5152  1.5720
14348TIP3   OH264534   3.335   1.682   3.437  0.2323  0.6619 -0.2664
14348TIP3    H164535   3.288   1.731   3.370 -0.1952 -0.7595 -1.0229
14348TIP3    H264536   3.336   1.592   3.406 -2.5573 -0.6885  2.9609
14349TIP3   OH264537   1.956   5.775   3.123  0.5080  0.8556  0.5328
14349TIP3    H164538   1.942   5.868   3.141 -0.2338  1.0134 -0.7393
14349TIP3    H264539   1.918   5.762   3.036  1.8607 -0.3391  0.0867
14350TIP3   OH264540   0.884   0.892  15.332  0.4928 -0.1677  0.0536
14350TIP3    H164541   0.975   0.909  15.306  0.1976  1.2456 -0.1222
14350TIP3    H264542   0.863   0.809  15.290  1.1213  0.4123 -1.4822
14351TIP3   OH264543   1.768   0.409   5.555  0.3821  0.3187  0.0333
14351TIP3    H164544   1.676   0.437   5.555  0.1140 -0.5311  0.7625
14351TIP3    H264545   1.765   0.316   5.574  1.3324 -0.0000 -1.2780
14352TIP3   OH264546   4.686   1.881   1.351  0.2387 -0.1890  0.6325
14352TIP3    H164547   4.598   1.879   1.311  0.5439 -1.7515 -0.0193
14352TIP3    H264548   4.690   1.967   1.394 -0.8845  0.7293 -0.9596
14353TIP3   OH264549   5.841   4.962   2.626 -0.0939 -0.2961  0.2747
14353TIP3    H164550   5.887   4.879   2.615 -0.0719 -0.4316  1.3446
14353TIP3    H264551   5.910   5.024   2.650 -0.0500  0.1323 -0.8774
14354TIP3   OH264552   4.020   2.554  12.524 -0.4410  0.3580  0.3157
14354TIP3    H164553   3.970   2.636  12.530  0.2995  0.8533 -0.0808
14354TIP3    H264554   4.044   2.547  12.432  0.3261  0.1997  0.5169
14355TIP3   OH264555   3.735   6.807  16.893 -0.2115  0.4098  0.0250
14355TIP3    H164556   3.744   6.803  16.798 -1.7987 -0.0797 -0.1245
14355TIP3    H264557   3.813   6.855  16.922  1.0741 -0.7358 -1.3655
14356TIP3   OH264558   3.500   1.315  15.073  0.3772  0.3317 -0.4546
14356TIP3    H164559   3.551   1.362  15.007  0.6088  1.2870  0.3829
14356TIP3    H264560   3.565   1.268  15.125  0.2044 -0.3173 -0.8055
14357TIP3   OH264561   0.814   6.821  13.706 -0.6583  0.4962  0.4187
14357TIP3    H164562   0.727   6.782  13.714 -0.5613 -0.1689 -1.4287
14357TIP3    H264563   0.828   6.830  13.612  2.2240 -1.6307  0.5206
14358TIP3   OH264564   1.034   1.818  16.258  0.0337 -0.2384 -0.4216
14358TIP3    H164565   0.948   1.857  16.243  0.6543  0.7125 -1.6825
14358TIP3    H264566   1.050   1.830  16.352 -1.2748 -0.6125 -0.1264
14359TIP3   OH264567   1.946   0.716  16.969 -0.5861  0.1731 -0.1213
14359TIP3    H164568   1.875   0.700  16.907 -1.9979  1.4628  1.0890
14359TIP3    H264569   1.904   0.714  17.055  1.2395 -1.1142  0.8135
14360TIP3   OH264570   4.433   2.410  13.528  0.4371  0.2798  0.0187
14360TIP3    H164571   4.349   2.432  13.487  0.4359 -1.7032 -1.1678
14360TIP3    H264572   4.480   2.494  13.533 -1.0611  1.1857 -0.5755
14361TIP3   OH264573   3.069   4.460   5.244 -0.4428 -0.5173  0.4517
14361TIP3    H164574   2.981   4.423   5.239 -1.3484  1.3289  1.7700
14361TIP3    H264575   3.076   4.516   5.167 -0.9293  0.3585  1.0399
14362TIP3   OH264576   4.950   5.968  16.773 -0.3442 -0.0633  0.0581
14362TIP3    H164577   5.017   5.946  16.838 -0.5946  0.5482  0.5307
14362TIP3    H264578   4.899   5.887  16.763  0.3494 -0.4873 -0.1871
14363TIP3   OH264579   3.267   5.637  10.139 -0.3642  0.0889  0.0790
14363TIP3    H164580   3.207   5.696  10.185 -1.6974 -1.0671 -0.0950
14363TIP3    H264581   3.306   5.584  10.209  0.0206  0.4332  0.1340
14364TIP3   OH264582   5.790   1.177  12.945  0.3367  0.3470 -0.2457
14364TIP3    H164583   5.836   1.191  12.862  1.1851 -1.1714 -0.0722
14364TIP3    H264584   5.859   1.153  13.006 -0.5503 -0.9358  0.2890
14365TIP3   OH264585   1.094   3.374  12.950  0.5742 -0.2287  0.1162
14365TIP3    H164586   1.074   3.283  12.927 -0.7100  0.3516 -1.2535
14365TIP3    H264587   1.010   3.409  12.982  0.6658  0.8555 -0.7565
14366TIP3   OH264588   5.279   6.392   3.684  0.0012 -0.0256 -0.2411
14366TIP3    H164589   5.269   6.426   3.595 -0.6871  0.2859 -0.0538
14366TIP3    H264590   5.204   6.428   3.732  2.4746  3.3027  1.5679
14367TIP3   OH264591   1.983   0.540   5.949  0.3663 -0.2070  0.3347
14367TIP3    H164592   1.923   0.478   5.908  1.6490 -0.8201 -0.6857
14367TIP3    H264593   2.033   0.487   6.011 -0.4734  0.4038  1.5716
14368TIP3   OH264594   5.282   2.234  14.243  0.2172 -0.8078 -0.0561
14368TIP3    H164595   5.265   2.326  14.222  1.5329 -0.1666  1.5397
14368TIP3    H264596   5.222   2.214  14.314  0.8877 -0.7634  0.5283
14369TIP3   OH264597   1.730   6.768   5.699 -0.0153 -0.1542 -0.3342
14369TIP3    H164598   1.664   6.730   5.756 -1.2107  0.7279 -1.0898
14369TIP3    H264599   1.802   6.705   5.701 -0.1914 -0.3623  1.7740
14370TIP3   OH264600   5.148   4.690  13.959  0.6135  0.6746 -0.0806
14370TIP3    H164601   5.229   4.695  13.908  0.1503  1.3798 -0.7715
14370TIP3    H264602   5.098   4.619  13.918  0.3858  1.0184 -0.4074
14371TIP3   OH264603   3.698   4.539  16.655  0.3879 -0.1815  0.0587
14371TIP3    H164604   3.617   4.539  16.706  0.8481  1.2346  0.8372
14371TIP3    H264605   3.675   4.493  16.574 -1.8227  1.9847 -0.6803
14372TIP3   OH264606   3.583   0.400   0.536 -0.4825 -0.3307  0.3279
14372TIP3    H164607   3.602   0.336   0.604  3.3073 -0.2183 -0.4168
14372TIP3    H264608   3.595   0.352   0.454 -1.6568  0.3650 -0.2856
14373TIP3   OH264609   0.424   5.876  12.532 -0.7848  0.2858  0.2298
14373TIP3    H164610   0.368   5.837  12.600  0.1301  0.2626  1.0019
14373TIP3    H264611   0.510   5.882  12.574 -1.0225  3.9821  0.5117
14374TIP3   OH264612   3.751   0.724  10.915 -0.0982  0.9399  0.0586
14374TIP3    H164613   3.692   0.768  10.854  0.5096 -0.0163 -1.2747
14374TIP3    H264614   3.838   0.741  10.881  0.1906 -0.5318  0.0021
14375TIP3   OH264615   0.499   0.486   2.091 -0.0337  0.1398 -0.6083
14375TIP3    H164616   0.424   0.429   2.110 -0.7264  0.6731 -1.6357
14375TIP3    H264617   0.492   0.557   2.155 -0.1050 -0.0712 -0.3776
14376TIP3   OH264618   3.952   0.940  15.471  0.1136  0.4634 -0.1303
14376TIP3    H164619   3.876   0.903  15.517  0.4754 -1.2239 -0.8140
14376TIP3    H264620   4.028   0.906  15.518  0.4938 -1.3558 -1.9368
14377TIP3   OH264621   6.069   4.651   1.358  0.4311 -0.6951 -0.3345
14377TIP3    H164622   6.030   4.596   1.427 -0.2536 -0.6145 -0.6509
14377TIP3    H264623   5.997   4.708   1.330  1.4130  1.1765  0.7927
14378TIP3   OH264624   2.002   2.694   0.288 -0.2367 -0.0981  0.3633
14378TIP3    H164625   2.041   2.659   0.207  0.6751  0.4235  0.5648
14378TIP3    H264626   2.035   2.783   0.294 -0.7423  0.0544  1.0343
14379TIP3   OH264627   3.187   3.769   5.488 -0.2770 -0.4291  0.1268
14379TIP3    H164628   3.097   3.747   5.515 -0.2335 -1.7497 -0.7490
14379TIP3    H264629   3.224   3.687   5.457  0.8080  0.3672 -0.7603
14380TIP3   OH264630   4.024   1.258  15.992  0.3027  0.2209  0.1186
14380TIP3    H164631   3.990   1.286  16.077  1.0892  0.3250  0.4078
14380TIP3    H264632   4.103   1.311  15.979 -0.8438  1.6224 -1.5793
14381TIP3   OH264633   5.656   2.858  15.349  1.0689  0.6372 -0.2247
14381TIP3    H164634   5.663   2.795  15.421 -0.4332  0.7664  0.0663
14381TIP3    H264635   5.638   2.805  15.271 -0.4712  0.6750  0.0667
14382TIP3   OH264636   1.046   1.486  11.736  0.0946  0.2910  0.5220
14382TIP3    H164637   0.962   1.448  11.759  0.6070  0.3242  2.6439
14382TIP3    H264638   1.108   1.414  11.745  0.2478  0.0815 -1.7257
14383TIP3   OH264639   1.168   3.615  11.492 -0.2912 -0.1752 -0.1297
14383TIP3    H164640   1.186   3.615  11.586  0.1944  1.1778 -0.2055
14383TIP3    H264641   1.143   3.525  11.473  0.8017 -0.7639  1.0640
14384TIP3   OH264642   3.901   0.847  12.311 -0.3974  0.6860  0.4547
14384TIP3    H164643   3.839   0.798  12.257 -0.2048  0.9517 -0.0155
14384TIP3    H264644   3.847   0.906  12.364 -0.6467 -0.1766  1.1878
14385TIP3   OH264645   3.092   1.725   0.364  0.0209 -0.0387 -0.0623
14385TIP3    H164646   3.012   1.776   0.357 -2.3286 -2.8156  3.2616
14385TIP3    H264647   3.094   1.671   0.285 -1.1470  0.3966 -0.3942
14386TIP3   OH264648   4.728   1.159  13.410 -0.2005  0.1546 -0.6702
14386TIP3    H164649   4.748   1.208  13.330  0.0447  0.5462 -0.3722
14386TIP3    H264650   4.635   1.176  13.426 -0.1732  0.3290 -0.6963
14387TIP3   OH264651   2.826   1.570   5.746 -0.2251  0.0259  0.3858
14387TIP3    H164652   2.749   1.579   5.690  0.4733 -2.7684 -1.2062
14387TIP3    H264653   2.796   1.519   5.820  0.2069 -1.8438 -0.6725
14388TIP3   OH264654   2.633   2.420  16.296 -0.2667  0.3863 -0.0451
14388TIP3    H164655   2.551   2.416  16.345 -0.5484  0.6897 -0.4812
14388TIP3    H264656   2.673   2.503  16.324  0.1625 -0.0196  0.5776
14389TIP3   OH264657   4.108   4.567  17.118  0.3110  0.2453  0.2817
14389TIP3    H164658   4.035   4.580  17.057  0.9502  0.8707 -0.3770
14389TIP3    H264659   4.079   4.607  17.200 -0.1934  0.2461  0.1047
14390TIP3   OH264660   5.434   0.163   1.522 -0.5292 -0.0829  0.5239
14390TIP3    H164661   5.361   0.128   1.575 -1.4444  0.9989  0.0172
14390TIP3    H264662   5.469   0.235   1.575  0.1309 -0.5498  0.7284
14391TIP3   OH264663   6.129   5.846  17.003 -0.0590 -0.2229 -0.4483
14391TIP3    H164664   6.077   5.858  17.082  0.7674  0.0310  0.0768
14391TIP3    H264665   6.090   5.771  16.959 -0.3078 -0.6009  0.3953
14392TIP3   OH264666   5.958   5.214  15.159  0.1344  0.3460 -0.6643
14392TIP3    H164667   5.927   5.203  15.069  0.2217 -0.7318 -0.5835
14392TIP3    H264668   5.899   5.160  15.211  1.6834 -1.2194 -0.4191
14393TIP3   OH264669   5.624   2.705  16.725 -0.0350  0.3918  0.1910
14393TIP3    H164670   5.641   2.759  16.649  0.9041  2.8903  2.0502
14393TIP3    H264671   5.543   2.739  16.762 -0.7474 -1.1067  0.1043
14394TIP3   OH264672   6.188   2.213   2.559 -0.5527  0.0122 -0.0289
14394TIP3    H164673   6.245   2.139   2.584  0.4239  0.4167 -0.9783
14394TIP3    H264674   6.174   2.260   2.642 -0.9123 -1.0348  0.5277
14395TIP3   OH264675   5.265   1.523   2.181 -0.5116  0.1907  0.4702
14395TIP3    H164676   5.317   1.495   2.106  2.3844 -0.2721  2.4586
14395TIP3    H264677   5.226   1.606   2.153 -0.4607 -0.5158 -1.8856
14396TIP3   OH264678   5.650   6.272   5.418 -0.1810  0.0456  0.1957
14396TIP3    H164679   5.635   6.293   5.510  3.5248  0.6854  0.8048
14396TIP3    H264680   5.688   6.352   5.381 -0.6112 -0.5471 -1.6517
14397TIP3   OH264681   6.288   3.400  12.266 -0.2053  0.1367  0.1355
14397TIP3    H164682   6.208   3.416  12.216  0.4570 -1.3238 -1.4949
14397TIP3    H264683   6.354   3.455  12.223  0.1179 -0.2636  0.1085
14398TIP3   OH264684   0.580   2.717  13.428  0.0492 -0.0747 -0.1780
14398TIP3    H164685   0.531   2.799  13.433  2.2565  1.2301  2.8757
14398TIP3    H264686   0.518   2.651  13.460 -0.9601  0.8115 -0.2317
14399TIP3   OH264687   5.858   2.224  14.335  0.5929 -0.3379 -0.2039
14399TIP3    H164688   5.879   2.203  14.244  0.0635  0.0083 -0.4093
14399TIP3    H264689   5.767   2.255  14.332  0.6765 -0.0263  0.3979
14400TIP3   OH264690   2.545   0.795   3.226  0.2943  0.1260 -0.3887
14400TIP3    H164691   2.497   0.875   3.205 -0.6147 -0.1495  0.5428
14400TIP3    H264692   2.569   0.758   3.142 -2.2975 -0.4158 -0.9739
14401TIP3   OH264693   1.913   1.166   5.186 -0.3735  0.6881 -0.4376
14401TIP3    H164694   1.885   1.141   5.098  0.5245  1.7254 -1.0300
14401TIP3    H264695   1.858   1.240   5.209 -0.6994  0.3363 -0.0524
14402TIP3   OH264696   1.815   5.325   4.894 -0.2536  0.2127  0.0730
14402TIP3    H164697   1.745   5.372   4.941 -1.4144  0.0927 -1.4771
14402TIP3    H264698   1.835   5.380   4.819 -1.1683 -1.3783 -1.4189
14403TIP3   OH264699   3.100   2.031   2.397 -0.3238  0.3105 -0.3859
14403TIP3    H164700   3.078   1.944   2.365 -1.6318 -0.4497  2.2531
14403TIP3    H264701   3.019   2.081   2.387  0.1459  0.9693 -1.0192
14404TIP3   OH264702   0.228   3.484  10.458  0.4840  0.2333 -0.3781
14404TIP3    H164703   0.273   3.568  10.451  1.1970 -0.1393 -0.4232
14404TIP3    H264704   0.149   3.503  10.508  1.5912  0.6008  1.3650
14405TIP3   OH264705   3.047   3.905  13.593 -0.1581  0.0122 -0.3676
14405TIP3    H164706   3.051   3.951  13.677  0.0784  0.3145 -0.5445
14405TIP3    H264707   2.957   3.920  13.563  0.0821  0.8511 -0.6966
14406TIP3   OH264708   4.505   5.993   0.660 -0.0877  0.2928  0.2273
14406TIP3    H164709   4.566   5.927   0.694 -0.8182 -0.7221 -0.3805
14406TIP3    H264710   4.532   6.006   0.569 -0.3833  0.3079  0.1413
14407TIP3   OH264711   5.230   4.944  12.067  0.7551 -0.4684 -0.0653
14407TIP3    H164712   5.260   4.857  12.041  0.1060 -0.7565  0.1412
14407TIP3    H264713   5.238   4.997  11.988  0.6219 -0.8546 -0.3385
14408TIP3   OH264714   3.997   3.813  11.023 -0.6843  0.1560 -0.0983
14408TIP3    H164715   3.983   3.760  10.944 -0.4437 -2.0373  1.2493
14408TIP3    H264716   3.912   3.811  11.068 -0.7077  1.0682 -0.0821
14409TIP3   OH264717   5.745   5.573   0.546 -0.6509 -0.3670 -0.0711
14409TIP3    H164718   5.839   5.553   0.544 -0.5255  0.1085  0.5941
14409TIP3    H264719   5.741   5.668   0.529 -1.1791 -0.7467 -2.5017
14410TIP3   OH264720   2.428   3.155  15.184  0.7148 -0.4643 -0.5420
14410TIP3    H164721   2.428   3.237  15.233 -0.4901 -0.0631 -1.1582
14410TIP3    H264722   2.336   3.129  15.182  0.6483 -0.2550 -2.8760
14411TIP3   OH264723   5.308   2.704  12.021  0.0472  0.6260 -0.2416
14411TIP3    H164724   5.392   2.671  12.052 -0.3249 -0.8839 -0.7767
14411TIP3    H264725   5.321   2.718  11.927 -0.4866 -0.3221 -0.4719
14412TIP3   OH264726   2.657   4.171   0.700 -0.5890 -0.4024  0.1344
14412TIP3    H164727   2.677   4.129   0.617  1.3812  0.2066  0.2575
14412TIP3    H264728   2.709   4.124   0.765 -1.2573 -0.1703  0.8574
14413TIP3   OH264729   5.191   3.206   0.344 -0.6479  0.4572  0.1545
14413TIP3    H164730   5.117   3.214   0.283 -1.2637  0.7703  0.9298
14413TIP3    H264731   5.245   3.137   0.306 -0.8920  0.8178 -0.8795
14414TIP3   OH264732   0.357   5.675   3.170 -0.0907 -0.0572  0.1861
14414TIP3    H164733   0.431   5.722   3.133 -1.6243  1.3191 -1.3423
14414TIP3    H264734   0.353   5.594   3.120  1.1429 -0.7709  1.1981
14415TIP3   OH264735   1.646   5.883  11.643 -0.4620 -0.1662 -1.0339
14415TIP3    H164736   1.571   5.825  11.638 -0.1485 -0.5754 -1.0397
14415TIP3    H264737   1.628   5.938  11.720  0.3248 -1.8523  0.4346
14416TIP3   OH264738   4.024   5.659  10.464 -0.1661  0.0822 -0.1937
14416TIP3    H164739   4.046   5.717  10.391  1.4492  0.4352  0.5336
14416TIP3    H264740   4.012   5.573  10.424 -0.0659  0.4117 -0.9556
14417TIP3   OH264741   2.526   1.592  15.869  0.3511  0.1442  0.2310
14417TIP3    H164742   2.603   1.635  15.831  1.3714  0.3259  2.3804
14417TIP3    H264743   2.480   1.663  15.915  0.1544 -0.4000  0.8864
14418TIP3   OH264744   6.076   6.477   3.904  0.2767 -0.1321 -0.5241
14418TIP3    H164745   6.156   6.428   3.924  1.4309  1.3453 -1.2645
14418TIP3    H264746   6.006   6.413   3.911  1.7481 -2.0398 -1.9481
14419TIP3   OH264747   6.117   0.768   3.172  0.2886  0.7341 -0.4933
14419TIP3    H164748   6.084   0.851   3.138  1.3096  2.0200  1.4909
14419TIP3    H264749   6.137   0.716   3.094  1.6372  3.1461 -1.8622
14420TIP3   OH264750   0.794   3.343  15.737 -0.2186  0.3777 -0.3168
14420TIP3    H164751   0.795   3.376  15.647  0.6815 -1.1049 -0.8902
14420TIP3    H264752   0.882   3.360  15.770 -0.6847  1.3447  0.4683
14421TIP3   OH264753   0.633   4.327  15.757 -0.1134 -0.0249 -0.4251
14421TIP3    H164754   0.705   4.294  15.811 -0.1813  2.1435  1.1459
14421TIP3    H264755   0.674   4.393  15.701 -0.4251 -0.7277 -1.4961
14422TIP3   OH264756   5.094   5.835   3.006 -0.0515  0.1755  0.0607
14422TIP3    H164757   5.134   5.919   2.983  0.0493 -0.1139 -0.8612
14422TIP3    H264758   5.168   5.775   3.013 -0.2341 -0.1782 -0.8505
14423TIP3   OH264759   1.363   3.321  13.452  1.0299  0.1864  0.7793
14423TIP3    H164760   1.410   3.255  13.400  2.3611 -0.2639  2.4843
14423TIP3    H264761   1.318   3.374  13.386  1.7934 -0.9871 -0.7779
14424TIP3   OH264762   1.774   1.135  14.667 -0.2664  0.2400 -0.6554
14424TIP3    H164763   1.794   1.043  14.688  0.1806  0.1557 -1.3986
14424TIP3    H264764   1.858   1.180  14.677 -0.8557  0.9787  1.6575
14425TIP3   OH264765   3.786   2.616   5.802 -0.1191  0.2856  0.3674
14425TIP3    H164766   3.811   2.572   5.884 -1.1107 -0.6191  0.2117
14425TIP3    H264767   3.696   2.587   5.787  0.7048 -1.2457 -2.1337
14426TIP3   OH264768   3.468   0.837   4.589  0.0365  0.7405 -0.2872
14426TIP3    H164769   3.532   0.835   4.660 -0.7878  0.1472  0.4579
14426TIP3    H264770   3.480   0.755   4.542  0.5425  1.1071 -0.8127
14427TIP3   OH264771   6.296   5.504   0.939  0.3583 -0.0273 -0.3686
14427TIP3    H164772   6.309   5.416   0.905 -0.3051 -1.8343  3.5197
14427TIP3    H264773   6.209   5.502   0.978  0.0634  2.6032 -0.7245
14428TIP3   OH264774   5.345   6.241  16.369 -0.2538 -0.0538  0.8051
14428TIP3    H164775   5.354   6.336  16.380  0.0648  0.0043  0.1540
14428TIP3    H264776   5.396   6.203  16.441  0.8761  0.2850  0.2141
14429TIP3   OH264777   6.238   3.768   1.195  0.2546 -0.4321  0.0158
14429TIP3    H164778   6.187   3.830   1.247  1.0931 -2.6420  3.8583
14429TIP3    H264779   6.200   3.682   1.216  1.6771 -1.6077 -1.8825
14430TIP3   OH264780   0.447   6.275  16.432 -0.1018 -0.0399  0.0638
14430TIP3    H164781   0.413   6.311  16.514 -4.2309 -3.2551  0.0760
14430TIP3    H264782   0.499   6.200  16.459 -1.1542 -0.8776 -0.1861
14431TIP3   OH264783   5.696   2.404   5.941 -0.1210 -0.3444 -0.4737
14431TIP3    H164784   5.697   2.499   5.950  5.3090 -0.0809 -0.1726
14431TIP3    H264785   5.723   2.371   6.027  0.3951 -1.9452 -1.1984
14432TIP3   OH264786   4.877   4.588   2.781 -0.7829  0.2510 -0.1389
14432TIP3    H164787   4.964   4.617   2.809 -0.0676 -0.7443 -1.2580
14432TIP3    H264788   4.827   4.579   2.863  0.5344 -0.3729  0.6227
14433TIP3   OH264789   1.646   4.018  11.298  0.3843  0.7341  0.0761
14433TIP3    H164790   1.660   3.955  11.228 -1.6067  0.0929  0.1953
14433TIP3    H264791   1.730   4.063  11.307  2.3087 -2.6446  0.7821
14434TIP3   OH264792   0.368   5.731   3.916 -0.3318  0.0575  0.5321
14434TIP3    H164793   0.446   5.757   3.867  0.2121  2.1277  2.3309
14434TIP3    H264794   0.334   5.655   3.869 -0.3040  2.2563 -3.4390
14435TIP3   OH264795   0.396   0.757   2.740 -0.1639  0.6356  0.1378
14435TIP3    H164796   0.330   0.702   2.782  0.2211  1.9119  2.5519
14435TIP3    H264797   0.469   0.697   2.722 -0.4179  0.0025  1.1455
14436TIP3   OH264798   1.012   3.591   1.833 -0.2166 -0.3186  0.2716
14436TIP3    H164799   0.936   3.533   1.837 -0.0990 -0.4962 -0.0394
14436TIP3    H264800   1.073   3.555   1.898 -0.8913  0.5464  1.4096
14437TIP3   OH264801   5.621   0.343  11.584  0.0196 -0.0722  0.0909
14437TIP3    H164802   5.573   0.386  11.655  0.3839  0.1509  0.2078
14437TIP3    H264803   5.555   0.324  11.518  0.0351  1.9020 -0.5732
14438TIP3   OH264804   3.156   2.154  13.901  0.5225  0.4599 -0.1028
14438TIP3    H164805   3.244   2.168  13.936  0.8722  0.7430 -1.0654
14438TIP3    H264806   3.132   2.065  13.928  0.7896  0.6614  0.8105
14439TIP3   OH264807   5.600   1.638   3.489  0.4347  0.6905 -0.2258
14439TIP3    H164808   5.522   1.690   3.469  0.3219  0.4703 -0.3582
14439TIP3    H264809   5.607   1.640   3.584 -0.3258 -0.1541 -0.1432
14440TIP3   OH264810   6.529   5.440   6.643  0.3244  0.1398 -0.3316
14440TIP3    H164811   6.588   5.419   6.716  2.8453  1.4208 -1.8795
14440TIP3    H264812   6.509   5.533   6.655 -0.5883 -0.0447 -0.3911
14441TIP3   OH264813   3.627   1.809   3.075  0.5232 -0.3422  0.9303
14441TIP3    H164814   3.703   1.862   3.052  0.3788 -0.6384 -0.2795
14441TIP3    H264815   3.600   1.843   3.160 -1.4880  3.7397 -1.0534
14442TIP3   OH264816   5.750   0.513  12.242 -0.2549 -0.6209 -0.0717
14442TIP3    H164817   5.728   0.588  12.187  0.2928  1.8875  2.8863
14442TIP3    H264818   5.667   0.483  12.277 -0.5266 -1.7955 -1.5961
14443TIP3   OH264819   5.411   0.237  13.671 -0.7742 -0.0354 -0.2981
14443TIP3    H164820   5.359   0.314  13.647 -1.7169 -1.4135 -3.1226
14443TIP3    H264821   5.377   0.167  13.616  1.2578 -2.0749  0.8721
14444TIP3   OH264822   6.177   3.331  16.584  0.3842  0.5506 -0.0522
14444TIP3    H164823   6.224   3.287  16.513  1.9358  0.5003  0.9455
14444TIP3    H264824   6.085   3.327  16.558  0.8643  0.1993 -1.8582
14445TIP3   OH264825   3.003   2.135  12.521 -0.5203  0.2122 -0.3881
14445TIP3    H164826   3.078   2.121  12.464 -1.1686 -1.7257 -0.8276
14445TIP3    H264827   2.942   2.065  12.499 -1.7087  0.6761  1.2049
14446TIP3   OH264828   6.420   5.286   2.661  0.0123 -0.2003  0.0547
14446TIP3    H164829   6.374   5.217   2.613 -0.2450 -1.0138  1.4326
14446TIP3    H264830   6.390   5.367   2.620 -1.3146 -0.7976 -0.2105
14447TIP3   OH264831   3.493   0.541   3.452  0.7387  0.2951  0.1100
14447TIP3    H164832   3.419   0.574   3.400 -0.3511 -0.9035  0.8335
14447TIP3    H264833   3.461   0.544   3.543  1.8401  0.3928  0.5050
14448TIP3   OH264834   5.509   5.810   6.335 -0.1688  0.0077  0.1858
14448TIP3    H164835   5.515   5.873   6.407  0.0396  1.4724 -1.0703
14448TIP3    H264836   5.415   5.803   6.318 -0.1983 -0.0799  0.3915
14449TIP3   OH264837   0.643   4.940   4.731 -0.1299  0.8226 -0.1139
14449TIP3    H164838   0.681   4.957   4.644  1.9085  3.9016  1.1931
14449TIP3    H264839   0.564   4.994   4.733 -0.6562  0.0736 -0.3163
14450TIP3   OH264840   1.252   3.604  15.988  0.1875 -0.1310 -0.6494
14450TIP3    H164841   1.211   3.670  16.043  1.3808  0.1671 -0.0960
14450TIP3    H264842   1.297   3.546  16.049  1.2738  0.0310 -1.2752
14451TIP3   OH264843   2.782   0.145  15.434 -0.1419  0.6492  0.4198
14451TIP3    H164844   2.865   0.151  15.481  0.5636  2.4681 -0.9740
14451TIP3    H264845   2.789   0.209  15.364 -0.6177 -2.7527 -3.0688
14452TIP3   OH264846   0.517   0.022  12.847 -0.2124  0.1704  0.3033
14452TIP3    H164847   0.520  -0.070  12.822  2.3310  0.1576  0.4270
14452TIP3    H264848   0.563   0.067  12.777  1.0274  0.9844  1.5970
14453TIP3   OH264849   0.833   1.022   4.208 -0.4943 -0.0890  0.0514
14453TIP3    H164850   0.800   1.110   4.226  1.5425  0.5827  0.8033
14453TIP3    H264851   0.829   0.978   4.293  1.4133  0.3627  0.4263
14454TIP3   OH264852   2.048   2.321   0.670  0.0750 -0.2333 -0.6775
14454TIP3    H164853   2.055   2.381   0.744 -0.8268 -0.7505 -0.1605
14454TIP3    H264854   2.028   2.377   0.595 -1.0568  0.1021 -0.1474
14455TIP3   OH264855   6.654   6.825  13.697 -0.5938 -0.4044  0.3204
14455TIP3    H164856   6.575   6.771  13.699 -0.1490 -1.0672  0.1976
14455TIP3    H264857   6.689   6.813  13.609  0.2014 -0.9461  0.6980
14456TIP3   OH264858   4.049   5.642   1.021 -0.2647 -0.1884 -0.0676
14456TIP3    H164859   4.055   5.608   0.932 -1.4969  0.0792 -0.2658
14456TIP3    H264860   4.137   5.631   1.057  0.0120 -1.1417 -1.0055
14457TIP3   OH264861   6.697   5.565   5.894  0.5615 -0.5153  0.1593
14457TIP3    H164862   6.690   5.613   5.812 -0.3992 -0.7562  0.0829
14457TIP3    H264863   6.789   5.539   5.900  0.9016  0.5546 -0.2324
14458TIP3   OH264864   2.831   2.165   2.004 -0.4448  0.6623 -0.3242
14458TIP3    H164865   2.778   2.093   2.039  2.9769 -1.2006  1.4753
14458TIP3    H264866   2.837   2.228   2.076  0.6739  0.2835 -0.0630
14459TIP3   OH264867   1.771   5.487   0.567 -0.1895 -0.5597  0.3306
14459TIP3    H164868   1.780   5.536   0.485  1.4028 -0.7376  0.3772
14459TIP3    H264869   1.768   5.554   0.635  1.5998 -0.4706  0.3610
14460TIP3   OH264870   6.193   1.206  14.924  0.2774  0.7050 -0.5524
14460TIP3    H164871   6.264   1.246  14.873 -0.6538  1.5037 -1.2759
14460TIP3    H264872   6.184   1.118  14.889  1.0688  0.5240 -0.2966
14461TIP3   OH264873   6.057   5.255  16.475  0.0630 -0.0686  0.0182
14461TIP3    H164874   6.133   5.199  16.491 -0.5289 -1.3543 -1.4479
14461TIP3    H264875   5.986   5.194  16.455 -0.5888  1.1597 -1.6697
14462TIP3   OH264876   1.851   6.620  13.605 -0.4410  0.2038  0.5264
14462TIP3    H164877   1.894   6.701  13.579  0.3772  0.5913  2.8998
14462TIP3    H264878   1.793   6.646  13.677 -2.1314 -0.9015 -0.3760
14463TIP3   OH264879   4.640   3.931   5.263 -0.9210  0.0639  0.2290
14463TIP3    H164880   4.728   3.939   5.225 -1.2332  3.6691 -0.0783
14463TIP3    H264881   4.655   3.890   5.349  0.6516 -1.7678 -0.8259
14464TIP3   OH264882   3.877   2.747  13.725 -0.5451 -0.0089 -0.1470
14464TIP3    H164883   3.818   2.677  13.694 -0.9419 -1.3288  3.1972
14464TIP3    H264884   3.823   2.799  13.785  1.2405 -0.4434  1.9602
14465TIP3   OH264885   3.480   2.541   4.242  0.1851 -0.7208 -0.0913
14465TIP3    H164886   3.416   2.609   4.222  0.6401  0.0921  1.0835
14465TIP3    H264887   3.494   2.548   4.336  2.6640 -0.2221 -0.4199
14466TIP3   OH264888   6.586   3.719   5.934 -0.1800 -0.4070  0.0084
14466TIP3    H164889   6.554   3.702   5.845  0.6322  0.1191 -0.4060
14466TIP3    H264890   6.681   3.728   5.923 -0.3794  4.0820  0.1460
14467TIP3   OH264891   0.074   4.843   3.002 -0.0816 -0.7914 -0.1823
14467TIP3    H164892   0.145   4.884   2.952  0.1307  0.2600  0.9220
14467TIP3    H264893   0.114   4.819   3.086 -1.3187  1.2579  1.0999
14468TIP3   OH264894   1.611   0.371   3.057  0.5450 -0.3302  0.1900
14468TIP3    H164895   1.616   0.326   3.141  0.0632 -0.0289  0.3816
14468TIP3    H264896   1.587   0.461   3.079  0.6888 -0.1791 -0.2491
14469TIP3   OH264897   2.857   3.019  11.827 -0.0379 -0.4027  0.0497
14469TIP3    H164898   2.768   3.009  11.859  0.0151  0.5393  0.5461
14469TIP3    H264899   2.912   2.986  11.899  0.0258 -0.5074 -0.0465
14470TIP3   OH264900   6.470   2.231   2.075  0.1316  0.2805  0.3591
14470TIP3    H164901   6.518   2.289   2.133  0.7057  0.2911 -0.1241
14470TIP3    H264902   6.532   2.162   2.053 -0.2948 -0.0883  0.2854
14471TIP3   OH264903   5.651   4.603   3.490 -0.1824 -0.4051 -0.4364
14471TIP3    H164904   5.681   4.513   3.475  1.9267 -0.0609  1.2246
14471TIP3    H264905   5.708   4.656   3.434  1.6450  0.1654  1.8207
14472TIP3   OH264906   3.022   3.991  12.840 -0.0387 -0.0428 -0.1840
14472TIP3    H164907   3.085   3.978  12.769 -0.2742 -1.1110 -0.2186
14472TIP3    H264908   3.073   4.024  12.913  0.8877 -2.3297  0.2945
14473TIP3   OH264909   3.063   1.827   1.461  0.0365  0.0390  0.6304
14473TIP3    H164910   3.089   1.918   1.455  0.5816 -0.2211 -2.6662
14473TIP3    H264911   3.146   1.778   1.458 -0.3668 -0.6015 -0.5859
14474TIP3   OH264912   3.222   2.778  13.503 -0.1716 -0.6543 -0.3667
14474TIP3    H164913   3.229   2.798  13.596  1.7194  0.3141 -0.6709
14474TIP3    H264914   3.283   2.706  13.489  0.3052 -0.1210 -1.0403
14475TIP3   OH264915   3.385   6.270   5.455  0.9420 -0.1846  0.1325
14475TIP3    H164916   3.320   6.241   5.392  0.8506  1.4757 -0.5856
14475TIP3    H264917   3.462   6.293   5.402  2.0213 -1.7610  0.9280
14476TIP3   OH264918   6.778   1.302   3.403 -0.3464  0.1927  0.3158
14476TIP3    H164919   6.872   1.285   3.399 -0.2219  1.0930 -1.0976
14476TIP3    H264920   6.758   1.305   3.497  0.7431 -1.4551  0.6497
14477TIP3   OH264921   1.436   0.170  14.585 -0.3689 -0.1671 -0.1072
14477TIP3    H164922   1.401   0.153  14.672 -0.7368 -1.4247 -0.4744
14477TIP3    H264923   1.461   0.084  14.552  2.0471  0.5342 -0.3160
14478TIP3   OH264924   3.682   0.802   4.770  0.3471 -0.0173  0.7302
14478TIP3    H164925   3.734   0.878   4.792 -1.8190  1.3783  1.3445
14478TIP3    H264926   3.657   0.764   4.854 -0.1535 -0.2730  0.4711
14479TIP3   OH264927   3.132   4.123   3.627 -0.1912  0.1438  0.1000
14479TIP3    H164928   3.219   4.156   3.647 -0.7168  0.8532  1.3316
14479TIP3    H264929   3.089   4.114   3.712 -0.7517 -1.8632 -0.3203
14480TIP3   OH264930   3.471   2.860   2.514  0.1186 -0.1853 -0.8873
14480TIP3    H164931   3.488   2.795   2.582 -2.3685 -0.8210 -0.7696
14480TIP3    H264932   3.515   2.939   2.545 -0.4323 -0.6226  1.2056
14481TIP3   OH264933   2.111   2.824   1.882  0.4071  0.2267  0.7024
14481TIP3    H164934   2.112   2.734   1.848 -1.6757  0.4164 -0.0452
14481TIP3    H264935   2.093   2.814   1.975  2.6027 -0.1767  1.1312
14482TIP3   OH264936   4.956   2.205  12.620  0.3006 -0.5752 -0.8347
14482TIP3    H164937   5.009   2.135  12.582  0.8092  0.1976 -1.6100
14482TIP3    H264938   4.893   2.161  12.675  1.4669 -1.5654 -0.2481
14483TIP3   OH264939   2.553   4.157   3.884  0.2959 -0.3757 -0.1448
14483TIP3    H164940   2.475   4.188   3.839  0.5431 -0.8195 -0.8960
14483TIP3    H264941   2.589   4.090   3.826  1.1830 -0.2388  0.2310
14484TIP3   OH264942   2.919   5.252   6.124 -0.0399  0.8382  0.0300
14484TIP3    H164943   2.988   5.257   6.191 -0.3232 -1.3262  0.5776
14484TIP3    H264944   2.845   5.213   6.169  0.4373 -2.7501 -1.9249
14485TIP3   OH264945   5.333   6.698  12.512 -0.4712  0.4823  0.2129
14485TIP3    H164946   5.377   6.753  12.577  1.2874 -0.1370 -0.3889
14485TIP3    H264947   5.338   6.609  12.548  1.1134  0.0265 -0.9985
14486TIP3   OH264948   5.218   1.018  13.218 -0.3126 -0.8658 -0.0399
14486TIP3    H164949   5.294   0.962  13.231 -0.3170 -0.9881 -0.5071
14486TIP3    H264950   5.248   1.083  13.154  0.0331  0.3294  1.2877
14487TIP3   OH264951   0.802   5.453  13.274  0.1197 -0.4732  1.0897
14487TIP3    H164952   0.880   5.507  13.284  0.1100 -0.0297 -0.7620
14487TIP3    H264953   0.736   5.494  13.330  0.3144  1.0774  0.2337
14488TIP3   OH264954   2.984   2.289   4.739  0.1909 -0.0165  0.5379
14488TIP3    H164955   2.992   2.384   4.751  2.5379 -0.1314  0.2338
14488TIP3    H264956   2.917   2.263   4.802 -0.2244  1.7835  0.9009
14489TIP3   OH264957   6.257   0.526   1.420  0.8131  0.2571  0.1665
14489TIP3    H164958   6.234   0.592   1.354  0.3215  0.0614  0.1376
14489TIP3    H264959   6.175   0.510   1.467  1.1291  0.2945  0.7371
14490TIP3   OH264960   0.006   6.182   1.226 -0.0249  0.4847 -0.1970
14490TIP3    H164961  -0.063   6.127   1.190 -0.1452  0.3490  0.2377
14490TIP3    H264962   0.088   6.145   1.192 -0.1277  0.2624 -0.1972
14491TIP3   OH264963   2.765   0.096   4.838 -0.0173  0.5279  0.2267
14491TIP3    H164964   2.848   0.074   4.880 -0.0568  0.7036  0.3981
14491TIP3    H264965   2.698   0.071   4.902 -0.1489 -0.5125 -0.2910
14492TIP3   OH264966   3.560   6.225  10.785 -0.3476  0.2706  0.3622
14492TIP3    H164967   3.559   6.281  10.708  2.1094  1.0815  0.8354
14492TIP3    H264968   3.557   6.285  10.859 -0.3859 -0.3661  0.8884
14493TIP3   OH264969   3.262   3.909  16.107  0.0286  0.5667 -0.4694
14493TIP3    H164970   3.231   3.874  16.023 -0.7757 -0.2406  0.1554
14493TIP3    H264971   3.183   3.931  16.155  0.3690 -1.2047  1.0246
14494TIP3   OH264972   5.692   2.340  12.165 -0.5705  0.2519 -0.0242
14494TIP3    H164973   5.703   2.352  12.259  0.3789  0.0430 -0.0982
14494TIP3    H264974   5.687   2.245  12.153 -2.2498  0.2980 -0.0456
14495TIP3   OH264975   6.274   0.217   3.722 -0.2206 -0.3600 -0.3277
14495TIP3    H164976   6.183   0.215   3.750 -0.0449  0.5803  0.3919
14495TIP3    H264977   6.277   0.161   3.645 -1.3973 -0.4263 -0.3457
14496TIP3   OH264978   0.022   0.653   3.314 -0.2809  0.1664  0.3873
14496TIP3    H164979  -0.014   0.652   3.402 -0.5407  0.1384  0.2808
14496TIP3    H264980   0.100   0.708   3.320 -1.4575  1.9386  0.1766
14497TIP3   OH264981   3.866   6.233   1.186  0.5210 -0.1706 -0.1746
14497TIP3    H164982   3.841   6.270   1.270  0.7972  0.6910 -0.4612
14497TIP3    H264983   3.911   6.304   1.141  0.2330 -0.5689 -1.1176
14498TIP3   OH264984   4.210   6.732   5.849  0.1057  0.0998 -0.1172
14498TIP3    H164985   4.232   6.664   5.913  0.7607 -0.1587 -0.6086
14498TIP3    H264986   4.294   6.763   5.816 -0.1838  1.1557  0.0904
14499TIP3   OH264987   0.265   6.100  16.246  0.4707 -0.3523  0.2316
14499TIP3    H164988   0.282   6.006  16.258 -0.5060 -0.4296  1.1330
14499TIP3    H264989   0.346   6.142  16.274  0.7461 -0.9022  0.2884
14500TIP3   OH264990   3.167   1.856  15.460  0.6187 -0.0976  0.2308
14500TIP3    H164991   3.145   1.935  15.510 -0.4537 -0.3656  0.2105
14500TIP3    H264992   3.250   1.826  15.497  0.7659  0.7344  0.6006
14501TIP3   OH264993   0.051   6.423  14.290 -0.0607  0.2755 -0.0403
14501TIP3    H164994  -0.017   6.487  14.270 -0.8091  0.3954  2.5113
14501TIP3    H264995   0.017   6.375  14.366  1.7716 -1.1456 -0.0559
14502TIP3   OH264996   6.197   6.132  12.909 -0.7249  0.3532 -0.2011
14502TIP3    H164997   6.196   6.176  12.994 -1.2703  0.3959 -0.2246
14502TIP3    H264998   6.133   6.179  12.856 -2.3718 -1.3083  0.2117
14503TIP3   OH264999   6.681   2.699   5.699  0.5442  0.0516 -0.4921
14503TIP3    H165000   6.679   2.739   5.612  0.8654 -0.1231 -0.5822
14503TIP3    H265001   6.612   2.744   5.748  0.4077  0.1976 -0.8159
14504TIP3   OH265002   1.667   0.249  11.965 -0.4466 -0.0645  0.5011
14504TIP3    H165003   1.577   0.251  11.933 -0.6574  0.4727  1.1079
14504TIP3    H265004   1.663   0.292  12.050  0.6575  1.4430 -0.1654
14505TIP3   OH265005   5.941   1.268   5.662 -0.0326  0.0956  0.1144
14505TIP3    H165006   5.876   1.330   5.694  0.6603  0.4621  0.8858
14505TIP3    H265007   6.014   1.276   5.725  0.5242 -0.6903 -0.4076
14506TIP3   OH265008   0.256   5.385  17.205 -0.1116 -0.2259  0.0481
14506TIP3    H165009   0.269   5.309  17.262 -0.4810 -0.0999  0.3078
14506TIP3    H265010   0.167   5.414  17.225 -0.2785 -0.2295 -0.6551
14507TIP3   OH265011   1.471   6.212  17.065  0.3432 -0.4918  0.3909
14507TIP3    H165012   1.461   6.126  17.106  0.5599 -0.5466  0.3328
14507TIP3    H265013   1.407   6.267  17.109  2.4325  0.1799  2.8143
14508TIP3   OH265014   1.487   0.931   0.796 -0.2086 -0.3163 -0.8308
14508TIP3    H165015   1.439   0.969   0.870 -0.2446 -1.7628 -0.0779
14508TIP3    H265016   1.432   0.857   0.768  0.9193 -1.1872 -0.8064
14509TIP3   OH265017   1.172   0.653  11.703  0.1850 -0.6139  0.3281
14509TIP3    H165018   1.240   0.707  11.743 -0.1912  0.5496 -0.5441
14509TIP3    H265019   1.108   0.638  11.773  0.1630  0.3203  0.5203
14510TIP3   OH265020   5.584   0.393  10.620  0.0190  0.1538  0.3195
14510TIP3    H165021   5.597   0.474  10.569 -0.1532 -0.2776 -0.4169
14510TIP3    H265022   5.614   0.416  10.708  0.5218  0.8497 -0.0215
14511TIP3   OH265023   2.217   3.231   3.315 -0.1624 -0.2313 -0.0342
14511TIP3    H165024   2.244   3.297   3.251  0.9965 -0.2857  0.3764
14511TIP3    H265025   2.290   3.170   3.320 -1.0405 -1.3246 -0.0851
14512TIP3   OH265026   2.649   1.245   0.247 -0.6518 -0.0013  0.5382
14512TIP3    H165027   2.597   1.325   0.238 -0.8436 -0.0321  1.3452
14512TIP3    H265028   2.739   1.273   0.230 -0.6665  0.4704  1.2087
14513TIP3   OH265029   5.935   3.947  15.268 -0.5867  0.1550 -0.0454
14513TIP3    H165030   5.989   3.998  15.207  0.2788 -0.1874  0.4125
14513TIP3    H265031   5.956   3.856  15.248 -3.3486 -0.1575 -1.9791
14514TIP3   OH265032   4.818   2.708   4.273 -0.8316 -0.3440  0.1833
14514TIP3    H165033   4.874   2.784   4.256  0.2840 -1.5096 -1.7093
14514TIP3    H265034   4.852   2.672   4.355 -0.9155  0.7699  0.7308
14515TIP3   OH265035   3.740   5.594  16.218 -0.2269  0.0815 -0.2710
14515TIP3    H165036   3.766   5.669  16.165 -0.8515 -0.2540 -1.0749
14515TIP3    H265037   3.819   5.541  16.227  0.1577  0.7125  0.1055
14516TIP3   OH265038   4.129   5.224   5.809  0.2200  0.0499  0.2187
14516TIP3    H165039   4.111   5.150   5.866 -1.9657  1.3394  1.3362
14516TIP3    H265040   4.161   5.293   5.867 -0.1300  0.7611 -0.4065
14517TIP3   OH265041   2.714   4.426  16.120 -0.8458  0.1815 -0.4738
14517TIP3    H165042   2.634   4.401  16.075  0.2610 -2.3232 -1.2113
14517TIP3    H265043   2.688   4.438  16.211 -2.3191  1.0591 -0.9776
14518TIP3   OH265044   1.001   4.341  15.398  0.0087 -0.4265  0.0201
14518TIP3    H165045   1.094   4.319  15.411  0.2592 -1.0740 -2.4663
14518TIP3    H265046   0.960   4.258  15.374 -1.3555 -0.2359  1.5355
14519TIP3   OH265047   1.197   4.173  16.829  0.0674 -0.2356  0.5639
14519TIP3    H165048   1.210   4.227  16.751  1.8534 -1.4678 -0.0655
14519TIP3    H265049   1.103   4.156  16.831 -0.1980  0.9434 -0.5309
14520TIP3   OH265050   0.766   3.699   1.977  0.6373  0.3460  0.3995
14520TIP3    H165051   0.749   3.607   1.960  0.0555  0.7770 -1.6003
14520TIP3    H265052   0.704   3.722   2.047  1.2526 -0.9025  1.3923
14521TIP3   OH265053   3.026   5.326   1.796 -0.2380  0.0630  0.8532
14521TIP3    H165054   3.063   5.287   1.717 -1.1352  0.9627 -0.0298
14521TIP3    H265055   3.052   5.418   1.791 -1.9141  0.5462  0.6069
14522TIP3   OH265056   1.920   3.627   5.567  0.7842 -0.6460 -0.7486
14522TIP3    H165057   1.927   3.609   5.661 -0.7417  0.3958 -0.3956
14522TIP3    H265058   1.853   3.566   5.536 -0.8182  0.9212 -0.5312
14523TIP3   OH265059   2.515   0.801   4.852 -0.1339 -0.2964 -0.1840
14523TIP3    H165060   2.605   0.801   4.885 -0.1313  0.4031 -0.1786
14523TIP3    H265061   2.463   0.767   4.925  0.2213 -1.5961 -0.4990
14524TIP3   OH265062   2.770   6.382   4.834  0.4400 -0.0955 -0.6300
14524TIP3    H165063   2.682   6.376   4.872  0.0352 -2.9608 -1.7271
14524TIP3    H265064   2.762   6.445   4.763 -1.6277 -2.3041 -2.5617
14525TIP3   OH265065   2.551   4.139   3.015  0.1284 -0.6714 -0.0747
14525TIP3    H165066   2.554   4.057   3.063  1.9654 -0.9571 -0.6043
14525TIP3    H265067   2.643   4.166   3.006 -0.4642  2.2996  1.5029
14526TIP3   OH265068   2.187   5.412   5.024  0.3087 -0.1055  0.1091
14526TIP3    H165069   2.145   5.326   5.017  0.0784 -0.0079  0.2715
14526TIP3    H265070   2.130   5.461   5.084  0.6334  0.0404  0.3003
14527TIP3   OH265071   0.620   0.155  11.561 -0.1378  0.2073 -0.2610
14527TIP3    H165072   0.525   0.163  11.548 -0.5097 -3.4563 -1.1503
14527TIP3    H265073   0.658   0.173  11.475 -0.5052 -2.0345 -0.9773
14528TIP3   OH265074   0.504   3.498  15.775 -0.4606  0.1354  0.2520
14528TIP3    H165075   0.508   3.536  15.863  0.5405  1.7720 -0.4580
14528TIP3    H265076   0.526   3.406  15.788  1.4593  0.7162  1.5374
14529TIP3   OH265077   1.968   2.635  10.750 -0.8667  0.0536 -0.4203
14529TIP3    H165078   2.054   2.660  10.718 -0.0270 -2.1414 -0.0676
14529TIP3    H265079   1.918   2.612  10.671  0.4754 -3.1809 -0.5081
14530TIP3   OH265080   2.511   0.178  13.176  0.1866  0.1916  0.4942
14530TIP3    H165081   2.449   0.221  13.235  0.1232 -0.0208  0.5829
14530TIP3    H265082   2.531   0.095  13.219  0.3484  0.1556  0.3484
14531TIP3   OH265083   4.350   6.073   4.540 -0.3476 -0.0987  0.0884
14531TIP3    H165084   4.340   6.137   4.470  0.1651 -0.1167 -0.0081
14531TIP3    H265085   4.384   6.124   4.614  2.3925 -0.6088 -0.6932
14532TIP3   OH265086   3.286   3.225   2.302 -0.0877  0.3991  0.3394
14532TIP3    H165087   3.206   3.252   2.257 -0.2992  1.1628  1.1491
14532TIP3    H265088   3.257   3.156   2.362 -0.5972  2.1490  2.2183
14533TIP3   OH265089   5.308   1.910   0.211 -0.0205 -0.1061  0.2736
14533TIP3    H165090   5.240   1.977   0.221 -0.5503 -0.8978  2.3653
14533TIP3    H265091   5.266   1.828   0.236  0.1046 -1.6876 -3.8568
14534TIP3   OH265092   4.720   1.491   0.570 -0.4919 -0.5582 -0.1321
14534TIP3    H165093   4.691   1.575   0.604  1.8498  0.0924  0.4938
14534TIP3    H265094   4.702   1.495   0.476  1.0349  1.3716 -0.4164
14535TIP3   OH265095   1.596   4.468   1.968 -0.2845 -0.0813  0.4152
14535TIP3    H165096   1.610   4.554   2.007 -1.7897  0.5279 -0.3307
14535TIP3    H265097   1.501   4.461   1.958 -0.2460 -2.0549  0.9433
14536TIP3   OH265098   5.097   5.112   3.133 -0.3423 -0.0711  0.6667
14536TIP3    H165099   5.002   5.121   3.143 -0.7597 -0.9376 -1.7167
14536TIP3    H265100   5.108   5.085   3.042  2.2225  0.1036  0.8668
14537TIP3   OH265101   1.802   1.676  12.025  0.0517  0.1881 -0.3982
14537TIP3    H165102   1.735   1.643  11.966 -1.3002  2.5610 -0.2875
14537TIP3    H265103   1.795   1.771  12.020  3.0629  0.5327  0.0530
14538TIP3   OH265104   0.598   4.177  14.381 -0.2884 -0.3565  0.5697
14538TIP3    H165105   0.581   4.088  14.349  1.2333 -0.5288  0.1681
14538TIP3    H265106   0.518   4.225  14.361 -0.7387 -1.3766 -0.1732
14539TIP3   OH265107   4.111   0.869  14.617 -0.7064 -0.3600 -0.5041
14539TIP3    H165108   4.174   0.935  14.645  1.0321 -2.6097  1.2437
14539TIP3    H265109   4.045   0.867  14.686 -0.3042 -1.0007 -0.1327
14540TIP3   OH265110   3.202   1.775   5.590 -0.1571 -0.0261  0.0497
14540TIP3    H165111   3.182   1.744   5.502  0.2145 -1.3966  0.4144
14540TIP3    H265112   3.199   1.696   5.644 -0.1772  0.7579  1.2324
14541TIP3   OH265113   6.619   6.429  15.324 -0.5559  0.6010  0.0473
14541TIP3    H165114   6.676   6.460  15.394  1.1117  0.4183 -1.1652
14541TIP3    H265115   6.612   6.335  15.337 -0.4886  0.6091  0.1371
14542TIP3   OH265116   6.776   0.068  16.612 -0.5633 -0.5128 -0.0969
14542TIP3    H165117   6.780   0.042  16.704  0.2438 -2.5647 -0.6599
14542TIP3    H265118   6.854   0.121  16.599  0.2163 -1.6096  0.0240
14543TIP3   OH265119   1.591   4.578   3.630 -0.0901 -0.2736  0.0802
14543TIP3    H165120   1.685   4.560   3.627  0.4850  2.2499 -2.4194
14543TIP3    H265121   1.575   4.630   3.551 -3.1621  1.2677  1.5459
14544TIP3   OH265122   3.887   0.343   0.440 -0.1207  0.1554 -0.5754
14544TIP3    H165123   3.924   0.279   0.501  0.4405 -0.8219 -1.8847
14544TIP3    H265124   3.810   0.299   0.402 -1.1230  1.1738  0.2037
14545TIP3   OH265125   1.682   6.349  15.425 -0.7669  0.1415 -0.4071
14545TIP3    H165126   1.711   6.423  15.480 -0.0894 -0.7719  0.5074
14545TIP3    H265127   1.587   6.348  15.435 -0.7377  0.6094 -0.0485
14546TIP3   OH265128   4.512   2.365  14.490  0.4427  0.4104  0.2023
14546TIP3    H165129   4.471   2.362  14.404 -0.6280  1.3481  0.6504
14546TIP3    H265130   4.540   2.275  14.507 -0.9524 -0.1428 -0.3516
14547TIP3   OH265131   2.630   2.966  11.957  0.2009 -0.1163  0.0153
14547TIP3    H165132   2.668   2.878  11.971 -1.2739 -0.8183 -0.2638
14547TIP3    H265133   2.660   3.017  12.033  1.9714 -0.5316 -0.3629
14548TIP3   OH265134   5.641   6.601  14.542 -0.5757  0.1211  0.1591
14548TIP3    H165135   5.601   6.678  14.502  0.8348  0.9887  0.3753
14548TIP3    H265136   5.724   6.632  14.577 -0.5813 -1.2004  1.4475
14549TIP3   OH265137   5.052   4.504  11.030 -0.0401 -0.2430 -0.0902
14549TIP3    H165138   5.138   4.522  11.067  0.8525  0.7365 -2.4466
14549TIP3    H265139   5.029   4.417  11.064  1.2423  0.0313  1.6322
14550TIP3   OH265140   3.464   1.205  16.200 -0.1777 -0.1904  0.2531
14550TIP3    H165141   3.425   1.183  16.116 -0.2389  0.1596  0.1872
14550TIP3    H265142   3.438   1.134  16.259 -0.6129 -0.1456  0.1190
14551TIP3   OH265143   2.500   4.612  13.296  0.2099 -0.2230  0.3534
14551TIP3    H165144   2.510   4.683  13.359  0.5005  1.5341 -1.5606
14551TIP3    H265145   2.406   4.605  13.282  0.1481 -0.5913  0.9386
14552TIP3   OH265146   2.782   6.149   5.000 -0.5203  0.3173  0.0601
14552TIP3    H165147   2.737   6.177   4.921  1.4033 -0.8628 -1.5403
14552TIP3    H265148   2.734   6.071   5.028 -1.1656  0.6986  0.0358
14553TIP3   OH265149   1.112   1.816  14.919  0.9578 -0.5538 -0.1780
14553TIP3    H165150   1.047   1.841  14.854  1.0763 -1.3347 -0.6166
14553TIP3    H265151   1.190   1.793  14.867  1.3149 -0.4102  0.2869
14554TIP3   OH265152   4.206   4.180   2.763  0.3517 -0.7118  0.6913
14554TIP3    H165153   4.151   4.174   2.841  0.1737 -2.4627  0.4750
14554TIP3    H265154   4.147   4.160   2.690  0.1316  2.4399 -0.1617
14555TIP3   OH265155   4.948   2.140  13.144 -0.1210  0.0472 -0.1351
14555TIP3    H165156   5.002   2.095  13.210  0.9595  2.4286  0.7292
14555TIP3    H265157   5.008   2.199  13.099 -2.0422  3.9507  1.8645
14556TIP3   OH265158   2.935   5.967  11.408 -0.5029 -0.1073  0.2788
14556TIP3    H165159   2.968   5.974  11.319 -0.0324  0.0460  0.4595
14556TIP3    H265160   2.878   6.043  11.419 -1.1726 -0.5398 -0.1362
14557TIP3   OH265161   1.523   2.471   3.480  0.7208 -0.4892 -0.1821
14557TIP3    H165162   1.443   2.466   3.428 -0.7001  1.4572  1.6429
14557TIP3    H265163   1.559   2.558   3.460  1.3943 -0.6385  0.3558
14558TIP3   OH265164   0.768   0.173   5.327 -0.2342 -0.1844 -0.2588
14558TIP3    H165165   0.768   0.244   5.391  0.5173  0.9426 -1.4282
14558TIP3    H265166   0.678   0.143   5.323 -0.4503  0.3161  0.6923
14559TIP3   OH265167   5.057   2.719  11.628  0.1733  0.4402 -0.1820
14559TIP3    H165168   5.045   2.644  11.570 -1.2339  0.9554 -0.5817
14559TIP3    H265169   4.969   2.751  11.646  0.6899  1.4172  0.7740
14560TIP3   OH265170   5.201   6.293   0.690 -0.2971  0.4756  0.1158
14560TIP3    H165171   5.248   6.357   0.637  0.2577 -0.2820 -0.3099
14560TIP3    H265172   5.244   6.296   0.775  1.5768 -1.2736 -0.6751
14561TIP3   OH265173   0.064   4.885   6.620  0.5219  0.0742 -0.5728
14561TIP3    H165174   0.135   4.934   6.661 -2.0366  1.8986  2.0392
14561TIP3    H265175   0.064   4.913   6.528  1.6722  1.8551 -0.0582
14562TIP3   OH265176   5.783   3.853  10.842  0.0842 -0.2470  0.3555
14562TIP3    H165177   5.766   3.854  10.748 -0.6930  2.2003  0.4427
14562TIP3    H265178   5.869   3.895  10.851 -0.7277  1.3952  0.8051
14563TIP3   OH265179   4.993   4.471   6.097  0.2049 -0.4961 -0.3918
14563TIP3    H165180   5.040   4.447   6.178  0.4030 -0.4873 -0.5034
14563TIP3    H265181   4.905   4.493   6.126  0.7589  1.3116  0.0793
14564TIP3   OH265182   4.602   0.433   1.225 -0.1554  0.4105 -0.4522
14564TIP3    H165183   4.694   0.450   1.247 -0.2662 -0.0174  0.3675
14564TIP3    H265184   4.555   0.505   1.267 -0.3924 -0.5486  1.0031
14565TIP3   OH265185   0.404   5.405   1.753  0.1197  0.3246  0.4654
14565TIP3    H165186   0.385   5.376   1.842  0.5440 -0.6293  0.2588
14565TIP3    H265187   0.322   5.390   1.705 -0.2886  1.3705  0.8088
14566TIP3   OH265188   6.146   6.675   0.106  0.0526 -0.6913 -0.0198
14566TIP3    H165189   6.224   6.675   0.051 -0.2720 -0.1204 -0.4934
14566TIP3    H265190   6.157   6.750   0.164  0.4466 -1.3597  0.7836
14567TIP3   OH265191   6.059   6.744   5.644  0.0647  0.7985 -0.2789
14567TIP3    H165192   5.974   6.770   5.681  1.0845  0.9654  2.1608
14567TIP3    H265193   6.041   6.663   5.597 -1.4725  0.9226  0.0348
14568TIP3   OH265194   3.860   1.995   5.013  0.6626  0.2557 -0.2829
14568TIP3    H165195   3.952   2.015   5.031  0.8137 -1.9960  1.9109
14568TIP3    H265196   3.840   1.920   5.069 -2.6866  0.9899 -0.3031
14569TIP3   OH265197   4.025   0.752   0.677 -0.0559  0.3738 -0.1716
14569TIP3    H165198   3.988   0.669   0.647  0.5873  0.2996 -0.7783
14569TIP3    H265199   3.977   0.772   0.757 -1.1402  0.0839 -0.7236
14570TIP3   OH265200   1.528   4.048  15.158  0.0654  0.2308 -0.0292
14570TIP3    H165201   1.442   4.032  15.195  0.4190 -3.2141 -0.3823
14570TIP3    H265202   1.589   4.023  15.227  0.7338 -0.1537 -0.7318
14571TIP3   OH265203   4.663   5.212   1.429 -0.5706  0.8092 -0.2610
14571TIP3    H165204   4.644   5.298   1.392 -1.1910 -0.2560 -2.5532
14571TIP3    H265205   4.755   5.197   1.409 -1.0801 -0.0634 -2.1239
14572TIP3   OH265206   3.032   4.667   4.743 -0.1670 -0.0039  0.3479
14572TIP3    H165207   2.958   4.608   4.728  0.4669 -0.5608 -0.7735
14572TIP3    H265208   2.994   4.755   4.741 -1.0435 -0.3488  1.5010
14573TIP3   OH265209   0.402   3.042  12.553  0.2813  0.1873 -0.1764
14573TIP3    H165210   0.475   3.030  12.613 -0.2856  0.8513  0.6639
14573TIP3    H265211   0.442   3.039  12.466  0.8724 -2.7888  0.0672
14574TIP3   OH265212   0.333   2.562  16.759 -0.1728 -0.1260 -0.2952
14574TIP3    H165213   0.312   2.655  16.766  1.7004  0.4896 -1.8627
14574TIP3    H265214   0.306   2.537  16.671  0.9182 -0.5987 -0.5144
14575TIP3   OH265215   5.626   2.670  13.463 -0.3735 -0.2112 -0.3279
14575TIP3    H165216   5.691   2.736  13.484  0.7462 -1.3516 -0.0828
14575TIP3    H265217   5.544   2.719  13.452  0.6788  1.3774 -1.5807
14576TIP3   OH265218   5.255   6.590  14.532  0.3984  0.1085  0.1571
14576TIP3    H165219   5.251   6.527  14.460 -0.8528  0.1500  0.1674
14576TIP3    H265220   5.338   6.636  14.519  1.0339 -1.1082 -0.2098
14577TIP3   OH265221   6.267   0.638   2.378  0.1062 -0.4505  0.0088
14577TIP3    H165222   6.245   0.580   2.305  0.5560  0.4136 -0.8465
14577TIP3    H265223   6.355   0.610   2.405  0.9919  0.7774 -1.4324
14578TIP3   OH265224   1.387   6.822  14.079 -0.3382 -0.0985 -0.6221
14578TIP3    H165225   1.473   6.791  14.104  0.5925  1.4213 -1.7832
14578TIP3    H265226   1.371   6.898  14.134 -0.9865 -0.4145 -0.3549
14579TIP3   OH265227   0.360   1.246  16.614 -0.3579  0.4202  0.2134
14579TIP3    H165228   0.405   1.267  16.696 -0.6338  0.8519  0.2551
14579TIP3    H265229   0.276   1.211  16.642 -0.1173 -0.2361  0.1318
14580TIP3   OH265230   1.724   6.733  11.985  0.8078  0.4445  0.0207
14580TIP3    H165231   1.704   6.657  11.930  1.5983  0.0599  0.2481
14580TIP3    H265232   1.721   6.808  11.924  0.8953  0.1211 -0.3849
14581TIP3   OH265233   4.063   6.197   1.481  0.9011  0.3586  0.0807
14581TIP3    H165234   4.011   6.276   1.497  0.5017  0.3920 -1.2535
14581TIP3    H265235   4.002   6.136   1.440  0.8662 -1.1542  2.2037
14582TIP3   OH265236   6.478   5.356   5.045 -0.0786 -0.1809  0.0025
14582TIP3    H165237   6.558   5.409   5.045  0.1451 -0.5189 -0.1102
14582TIP3    H265238   6.505   5.272   5.009 -0.5038 -0.2702 -0.1104
14583TIP3   OH265239   3.426   3.018  11.844 -0.2567  0.2449 -0.0062
14583TIP3    H165240   3.382   3.098  11.815  0.6940  0.6043 -0.5247
14583TIP3    H265241   3.413   2.957  11.771 -0.3930  0.1598  0.0905
14584TIP3   OH265242   0.770   2.532  14.489  0.5401 -0.1813  0.7907
14584TIP3    H165243   0.802   2.622  14.486 -0.8772  0.3709  1.7952
14584TIP3    H265244   0.833   2.486  14.545  0.7169  0.4029  1.0761
14585TIP3   OH265245   0.093   1.791   4.373  0.6861 -0.4245  0.4191
14585TIP3    H165246   0.176   1.798   4.327  0.5433 -0.9619  0.0714
14585TIP3    H265247   0.093   1.865   4.433  1.1639 -0.0964  0.0221
14586TIP3   OH265248   3.094   1.458  15.350  0.1787  0.1481 -0.7401
14586TIP3    H165249   3.187   1.477  15.357  0.1881 -0.0240 -0.3130
14586TIP3    H265250   3.064   1.510  15.275  0.0528  2.4680  0.7954
14587TIP3   OH265251   0.566   0.452  12.981 -0.1934  0.2535 -0.1779
14587TIP3    H165252   0.474   0.426  12.979 -0.0179 -0.4285 -2.5096
14587TIP3    H265253   0.570   0.529  12.924  0.5638  0.8430  0.6263
14588TIP3   OH265254   2.872   4.193  14.216 -0.4634  0.4735 -0.1784
14588TIP3    H165255   2.787   4.231  14.240 -0.1230  0.8006  0.5335
14588TIP3    H265256   2.849   4.116  14.165 -1.1982  2.7245 -3.6238
14589TIP3   OH265257   0.962   6.160   0.756 -0.5434 -0.3955 -0.1101
14589TIP3    H165258   0.974   6.102   0.681 -3.4657 -2.8551  1.1106
14589TIP3    H265259   1.031   6.134   0.817  0.0879 -0.3789 -0.8005
14590TIP3   OH265260   0.348   4.541   4.170  0.0765 -0.1435  0.2119
14590TIP3    H165261   0.370   4.621   4.123  0.4938  0.1555  0.8958
14590TIP3    H265262   0.393   4.472   4.122  0.6651  0.1809  0.2780
14591TIP3   OH265263   1.775   1.107  15.429 -0.4633 -0.3304  0.0897
14591TIP3    H165264   1.816   1.194  15.433 -1.6752  0.2835 -0.2078
14591TIP3    H265265   1.802   1.064  15.510 -0.5851  0.6773  0.6910
14592TIP3   OH265266   1.001   1.170   4.494  0.5094  0.0790  0.2373
14592TIP3    H165267   0.915   1.175   4.454 -0.2346  0.1202  1.7581
14592TIP3    H265268   0.994   1.222   4.574  0.7396 -2.8892  2.3915
14593TIP3   OH265269   3.323   0.073   1.018  0.1260  0.1660 -0.5914
14593TIP3    H165270   3.339   0.140   1.085  0.1502 -0.4916  0.0670
14593TIP3    H265271   3.384   0.003   1.039 -1.7153 -1.2443  0.3650
14594TIP3   OH265272   4.037   3.565   5.364 -0.2848 -0.4168  0.4481
14594TIP3    H165273   4.042   3.638   5.302 -0.0126 -0.2179  0.7044
14594TIP3    H265274   4.008   3.491   5.310  1.1340 -0.5479 -0.1918
14595TIP3   OH265275   2.260   5.550  13.894  0.5612  0.1808  0.4670
14595TIP3    H165276   2.180   5.576  13.939  0.2301 -1.3408  0.8299
14595TIP3    H265277   2.231   5.524  13.806  0.8730  0.9214  0.1319
14596TIP3   OH265278   1.272   3.019  12.242 -0.8254  0.4318  0.3572
14596TIP3    H165279   1.359   2.992  12.272 -1.3118 -0.2432  1.2393
14596TIP3    H265280   1.275   3.012  12.147  0.1764  0.7106  0.3635
14597TIP3   OH265281   2.801   4.661  13.069 -0.2247 -0.4468  0.5579
14597TIP3    H165282   2.883   4.671  13.021 -0.0339 -2.4366  0.3889
14597TIP3    H265283   2.819   4.699  13.155  0.3044  0.6797 -0.0288
14598TIP3   OH265284   3.879   6.796   3.157 -0.1583  0.3338  0.2503
14598TIP3    H165285   3.910   6.875   3.112 -0.4797  0.3634  0.0792
14598TIP3    H265286   3.784   6.797   3.145 -0.2726  0.4520  1.1089
14599TIP3   OH265287   4.110   6.168   4.948  0.0496 -0.1562 -0.6520
14599TIP3    H165288   4.100   6.214   5.031 -0.2232 -2.4163  0.6400
14599TIP3    H265289   4.204   6.149   4.942 -0.2521 -2.5004  0.6672
14600TIP3   OH265290   1.908   4.489  16.052 -0.4974 -0.3852  0.0854
14600TIP3    H165291   1.922   4.583  16.066  1.0313 -0.4830 -0.6049
14600TIP3    H265292   1.981   4.446  16.097  0.0877 -1.0937 -1.4466
14601TIP3   OH265293   4.932   2.036   5.947 -0.5367  0.3427  0.4419
14601TIP3    H165294   4.874   2.020   6.021 -0.7314 -1.7427 -0.1121
14601TIP3    H265295   5.013   1.991   5.969 -1.0314 -1.4425 -1.1076
14602TIP3   OH265296   3.584   0.703  11.136 -0.8990 -0.0678  0.2017
14602TIP3    H165297   3.659   0.686  11.193 -0.1425  0.8588 -0.4810
14602TIP3    H265298   3.623   0.718  11.050 -1.9296 -0.2141 -0.3044
14603TIP3   OH265299   5.459   5.448   3.828 -0.0726  0.3947 -0.4636
14603TIP3    H165300   5.409   5.506   3.770  2.9100  1.4273 -2.2523
14603TIP3    H265301   5.550   5.467   3.807  1.1235 -3.7795  0.1461
14604TIP3   OH265302   0.198   0.879  16.718  0.2178  0.4007  0.2473
14604TIP3    H165303   0.236   0.798  16.683  0.2146 -0.0609  1.2528
14604TIP3    H265304   0.155   0.920  16.643 -0.5167 -0.9594 -0.1194
14605TIP3   OH265305   5.481   3.369   1.274  0.0439 -0.4050 -0.3536
14605TIP3    H165306   5.548   3.319   1.227  0.6459  0.4155 -0.4104
14605TIP3    H265307   5.454   3.437   1.211  0.1333  0.0921  0.1323
14606TIP3   OH265308   2.101   2.573  12.559  0.3690  0.8444  0.1176
14606TIP3    H165309   2.120   2.480  12.553  1.7632  0.9303  2.0100
14606TIP3    H265310   2.183   2.615  12.534 -0.1823  1.5662 -0.5148
14607TIP3   OH265311   4.588   2.061  15.155  0.2912  0.6416 -0.1660
14607TIP3    H165312   4.581   2.051  15.060 -0.0745  1.1567 -0.2012
14607TIP3    H265313   4.615   2.152  15.168  1.7803  0.1759  0.1840
14608TIP3   OH265314   0.135   3.531   4.426 -0.0067 -0.0184  0.6607
14608TIP3    H165315   0.044   3.554   4.447 -0.1693  0.9786 -0.9220
14608TIP3    H265316   0.173   3.614   4.395  0.1287 -1.2625 -2.9373
14609TIP3   OH265317   4.988   1.500   3.775  0.3606 -0.3031 -0.2710
14609TIP3    H165318   5.068   1.488   3.725 -0.2300 -1.3709 -1.0064
14609TIP3    H265319   4.921   1.522   3.710 -0.3442 -1.3849  0.0524
14610TIP3   OH265320   2.225   2.269  14.600  0.0737 -0.1434  0.2166
14610TIP3    H165321   2.286   2.248  14.529  1.0077  1.6106  0.4340
14610TIP3    H265322   2.261   2.226  14.677  0.3576 -0.1377  0.0886
14611TIP3   OH265323   0.087   2.185   4.858  0.0084  0.4613  0.2444
14611TIP3    H165324   0.092   2.215   4.948 -0.4164 -1.3947  0.9345
14611TIP3    H265325   0.177   2.162   4.834  0.0519  0.5248  0.3487
14612TIP3   OH265326   2.682   2.143  12.706 -0.5111 -0.0600  0.8702
14612TIP3    H165327   2.588   2.142  12.726 -0.3495  0.0106  1.6401
14612TIP3    H265328   2.725   2.137  12.791  0.1842 -0.8463  0.4762
14613TIP3   OH265329   4.113   0.424  11.733 -1.0759 -0.4239  0.4577
14613TIP3    H165330   4.160   0.381  11.804 -3.5297 -1.3429  1.6111
14613TIP3    H265331   4.081   0.506  11.771 -0.2786  0.3195 -0.3954
14614TIP3   OH265332   3.035   3.638  11.549 -0.4978 -0.0902  0.2357
14614TIP3    H165333   3.056   3.559  11.598  2.8758  0.3825 -0.2506
14614TIP3    H265334   3.028   3.707  11.615  0.8514 -0.0467  0.3571
14615TIP3   OH265335   3.996   3.876   0.065 -0.4123 -0.0225 -0.1883
14615TIP3    H165336   3.947   3.811   0.115  0.5172 -1.5653 -1.1890
14615TIP3    H265337   4.062   3.908   0.125 -0.7815 -0.1213  0.2752
14616TIP3   OH265338   3.722   3.631  11.559  0.3805 -0.2275  0.0546
14616TIP3    H165339   3.746   3.719  11.587  0.8092 -0.5007  0.5732
14616TIP3    H265340   3.627   3.631  11.558  0.2958  1.2877 -3.3457
14617TIP3   OH265341   1.323   3.452  12.789 -0.2209  0.2550 -0.1875
14617TIP3    H165342   1.364   3.502  12.860  2.1712 -1.7011 -0.0627
14617TIP3    H265343   1.236   3.432  12.822  0.4268  0.3843  1.7387
14618TIP3   OH265344   5.876   0.591  12.734  0.1505 -0.6260 -0.1947
14618TIP3    H165345   5.866   0.675  12.779  1.8360 -0.2174 -0.5176
14618TIP3    H265346   5.799   0.585  12.678  0.4184  1.1237 -0.8164
14619TIP3   OH265347   4.960   4.081   2.994  0.3821 -0.2874  0.1162
14619TIP3    H165348   4.950   4.148   2.925 -0.2488 -1.8302 -1.3582
14619TIP3    H265349   4.946   4.129   3.076  2.6960  1.9621 -0.6534
14620TIP3   OH265350   5.773   4.808   4.352 -0.0399  0.0117 -0.2815
14620TIP3    H165351   5.688   4.772   4.328 -0.1783  0.5828 -0.6805
14620TIP3    H265352   5.800   4.757   4.428 -1.3042  0.6169  0.6233
14621TIP3   OH265353   1.307   1.424  12.109 -0.1809  0.0756 -0.7333
14621TIP3    H165354   1.354   1.440  12.191 -1.0857 -0.8616  0.0002
14621TIP3    H265355   1.324   1.331  12.090  0.2740  0.3607 -1.7877
14622TIP3   OH265356   5.460   2.933  17.196  0.3598 -0.1501  0.1743
14622TIP3    H165357   5.521   2.869  17.233  1.9393  1.3537  0.2918
14622TIP3    H265358   5.435   2.895  17.112  0.7617 -1.2114  0.5088
14623TIP3   OH265359   4.456   2.007  11.748  0.4317 -0.3772 -0.2386
14623TIP3    H165360   4.545   2.016  11.781  1.0533 -2.6902 -1.0658
14623TIP3    H265361   4.402   2.057  11.809  1.9920 -1.0564  1.8059
14624TIP3   OH265362   6.399   3.105   5.910  0.1679 -0.5093  0.0104
14624TIP3    H165363   6.371   3.150   5.990  0.5981  0.4311 -0.3412
14624TIP3    H265364   6.357   3.019   5.914 -0.6546 -0.0913  0.7373
14625TIP3   OH265365   0.213   0.944   4.257  0.1083  0.2924 -0.0439
14625TIP3    H165366   0.182   0.858   4.287 -0.0614 -0.1826 -1.4819
14625TIP3    H265367   0.150   0.969   4.189  1.0938  0.7651 -0.8130
14626TIP3   OH265368   3.970   1.136   3.581  0.4388  0.5368 -0.0255
14626TIP3    H165369   4.000   1.085   3.505 -0.3813  1.1903 -0.8066
14626TIP3    H265370   4.037   1.204   3.592  0.7732  0.1928  0.1082
14627TIP3   OH265371   0.914   2.633  11.711 -0.3222 -0.6511 -0.3336
14627TIP3    H165372   0.909   2.540  11.737  0.3146 -1.1753 -1.9635
14627TIP3    H265373   0.832   2.650  11.666 -0.0712 -0.6646 -0.7930
14628TIP3   OH265374   1.623   6.709  14.526 -0.2355 -0.3096 -0.4331
14628TIP3    H165375   1.702   6.658  14.545 -0.6318 -1.0434 -0.7023
14628TIP3    H265376   1.654   6.799  14.521  0.8278 -0.7051 -1.7648
14629TIP3   OH265377   5.492   2.292   4.901 -0.6585 -0.3177 -0.6598
14629TIP3    H165378   5.473   2.382   4.928 -0.7240 -0.5823  0.2341
14629TIP3    H265379   5.572   2.298   4.849  1.5208 -0.1175  2.4329
14630TIP3   OH265380   3.803   4.256  10.936 -0.3446 -0.5359 -0.0344
14630TIP3    H165381   3.870   4.306  10.983 -0.6986  0.8167 -0.9310
14630TIP3    H265382   3.783   4.309  10.859 -2.4830 -0.8808  0.2266
14631TIP3   OH265383   5.277   4.425   4.801  0.0810 -0.5123 -0.2967
14631TIP3    H165384   5.184   4.448   4.806  0.3258  0.9473 -1.4908
14631TIP3    H265385   5.322   4.506   4.825  1.0520 -1.1394  0.0399
14632TIP3   OH265386   0.346   4.646  14.279 -0.1511 -0.2281 -0.6035
14632TIP3    H165387   0.293   4.592  14.338  0.7321  0.2790  0.6824
14632TIP3    H265388   0.390   4.708  14.336 -0.3205  1.1909 -1.9408
14633TIP3   OH265389   2.133   6.681  10.778  0.1392 -0.4757  0.0957
14633TIP3    H165390   2.186   6.726  10.712 -0.5647 -0.0746 -0.2051
14633TIP3    H265391   2.052   6.658  10.732 -1.6526  2.4208  1.5340
14634TIP3   OH265392   5.475   3.997  11.466 -0.4920 -0.1355  0.2437
14634TIP3    H165393   5.431   3.964  11.388  1.0138 -0.9731 -0.3026
14634TIP3    H265394   5.565   3.964  11.458  0.4448  2.1116  0.9209
14635TIP3   OH265395   4.007   0.930  14.373  0.0529  0.4659 -0.5216
14635TIP3    H165396   3.923   0.888  14.351 -0.4812  1.7443 -0.9952
14635TIP3    H265397   4.024   0.902  14.463  0.2211 -1.5385 -1.1341
14636TIP3   OH265398   6.610   5.681  11.587  0.2719  0.3803  0.0323
14636TIP3    H165399   6.650   5.752  11.536  0.6136 -0.6874 -1.2503
14636TIP3    H265400   6.551   5.725  11.648 -0.0146  1.7304 -1.1717
14637TIP3   OH265401   5.984   1.439   0.291 -0.0837 -0.1500 -0.0059
14637TIP3    H165402   6.042   1.498   0.243  2.0571 -2.2596 -0.2416
14637TIP3    H265403   6.007   1.451   0.383 -0.5979  0.3235  0.0618
14638TIP3   OH265404   0.547   5.794   1.910  0.2997  0.0342 -0.4222
14638TIP3    H165405   0.484   5.866   1.902  2.4973  2.1297 -0.1617
14638TIP3    H265406   0.625   5.826   1.863  1.4717 -2.0734 -0.0317
14639TIP3   OH265407   4.587   1.183  14.522  0.2575 -0.7298  0.3584
14639TIP3    H165408   4.544   1.122  14.462  1.1728 -0.4383 -0.6151
14639TIP3    H265409   4.516   1.236  14.558 -0.3538 -1.2617 -0.0495
14640TIP3   OH265410   3.961   2.071   5.956 -0.7262  0.1180 -0.3607
14640TIP3    H165411   3.973   2.151   6.007 -0.7132 -0.0781 -0.0556
14640TIP3    H265412   3.887   2.027   5.997 -0.6107 -0.1218 -0.4080
14641TIP3   OH265413   5.466   4.835   4.209 -0.1499 -0.2571 -0.0602
14641TIP3    H165414   5.376   4.812   4.183 -0.6618  1.0597  0.4489
14641TIP3    H265415   5.520   4.765   4.173 -1.1631 -0.0598 -2.0835
14642TIP3   OH265416   5.549   1.576  15.232 -0.1380 -0.5007  0.7374
14642TIP3    H165417   5.590   1.662  15.226  0.1739 -0.7498 -1.4276
14642TIP3    H265418   5.458   1.591  15.206 -0.1579 -0.7944  0.6356
14643TIP3   OH265419   2.088   6.022  11.943  0.0742  0.3919  0.1998
14643TIP3    H165420   2.123   5.962  11.878 -2.9766 -2.1179  0.6214
14643TIP3    H265421   2.028   6.078  11.894 -2.8003 -1.9850  0.7064
14644TIP3   OH265422   6.767   4.206   4.949 -0.4207  0.5615 -0.1810
14644TIP3    H165423   6.748   4.290   4.991  0.3494  0.5736  0.1733
14644TIP3    H265424   6.819   4.158   5.014  1.9971  1.1139 -1.5723
14645TIP3   OH265425   3.926   0.165   5.303 -0.5666 -0.1364  0.6223
14645TIP3    H165426   3.840   0.207   5.306 -0.6185 -0.2768  1.4121
14645TIP3    H265427   3.939   0.133   5.392  0.8395  0.9393  0.8346
14646TIP3   OH265428   6.143   5.108   0.041 -0.3100  0.0429 -0.2209
14646TIP3    H165429   6.205   5.177   0.063 -0.6835  0.7169 -1.2214
14646TIP3    H265430   6.195   5.043  -0.007 -0.0025 -0.3039  0.5535
14647TIP3   OH265431   2.528   5.167  11.513 -0.0923  0.2946 -0.2702
14647TIP3    H165432   2.502   5.144  11.424  0.1753  0.3274 -0.3589
14647TIP3    H265433   2.620   5.140  11.518 -0.1778  0.0563  0.0792
14648TIP3   OH265434   6.783   5.223   4.635 -1.1501  0.1103  0.0931
14648TIP3    H165435   6.779   5.210   4.730 -2.0465 -1.2964 -0.1011
14648TIP3    H265436   6.773   5.317   4.623 -2.5364  0.1734  1.3487
14649TIP3   OH265437   4.958   2.302  14.000  0.6102  1.0196  0.1503
14649TIP3    H165438   4.996   2.309  14.087  0.7939  3.1297 -0.0257
14649TIP3    H265439   4.928   2.212  13.993 -0.0323  0.9746  2.6515
14650TIP3   OH265440   5.535   1.443   2.671  0.3831 -0.4333  0.2466
14650TIP3    H165441   5.502   1.439   2.582  1.8351 -0.8384 -0.3093
14650TIP3    H265442   5.529   1.535   2.695  1.5738 -0.0270 -0.9261
14651TIP3   OH265443   2.664   2.693  11.862 -0.4875 -0.0963 -0.5172
14651TIP3    H165444   2.592   2.633  11.842 -0.6910  0.2004 -0.6931
14651TIP3    H265445   2.695   2.723  11.777  2.4311 -3.1396 -0.7004
14652TIP3   OH265446   2.195   0.817   0.590 -0.1284  0.3508 -0.4408
14652TIP3    H165447   2.270   0.781   0.542  0.6895  2.1141 -0.5977
14652TIP3    H265448   2.209   0.912   0.587 -1.7616  0.6592  0.5584
14653TIP3   OH265449   5.694   5.955   6.513  0.0578 -0.2341 -0.2611
14653TIP3    H165450   5.603   5.971   6.540  0.0180  1.4287 -1.2928
14653TIP3    H265451   5.735   5.917   6.591 -1.5047 -1.0373  0.2225
14654TIP3   OH265452   4.288   2.955   1.767 -0.2038  0.2689  0.0488
14654TIP3    H165453   4.303   2.871   1.812  0.8810 -0.0491 -0.8783
14654TIP3    H265454   4.323   3.021   1.827  2.2981 -0.2338 -0.7418
14655TIP3   OH265455   2.741   2.446  12.376 -0.1423  0.2247 -0.7203
14655TIP3    H165456   2.793   2.526  12.381 -0.0593  0.1754 -0.7834
14655TIP3    H265457   2.677   2.464  12.307 -1.8003  1.1964  0.9692
14656TIP3   OH265458   3.703   5.301   1.139  0.0916  0.0129 -0.0619
14656TIP3    H165459   3.641   5.353   1.190  1.4043  0.3980  1.1988
14656TIP3    H265460   3.728   5.357   1.066  0.6939  0.7577  0.7056
14657TIP3   OH265461   1.369   1.778  15.075 -0.4438  0.0416 -0.3387
14657TIP3    H165462   1.351   1.810  14.986 -0.9167  1.5303  0.2624
14657TIP3    H265463   1.344   1.851  15.132  0.9635 -0.4518  0.9631
14658TIP3   OH265464   1.619   0.867   2.141  0.1412  0.1268 -0.9045
14658TIP3    H165465   1.685   0.836   2.203  0.3868  0.3365 -1.0566
14658TIP3    H265466   1.537   0.868   2.191  0.6309  1.9238 -0.0496
14659TIP3   OH265467   2.920   0.788  13.007  0.3939 -0.4810 -0.1523
14659TIP3    H165468   2.899   0.728  12.936 -3.5974  1.5099 -0.9261
14659TIP3    H265469   2.917   0.875  12.968 -2.3230  0.7334  2.3112
14660TIP3   OH265470   5.141   4.977  14.921  0.3660 -0.4311 -1.2231
14660TIP3    H165471   5.225   4.936  14.901  0.7815  0.2950 -1.0128
14660TIP3    H265472   5.102   4.921  14.988  0.7967 -0.6375 -1.1412
14661TIP3   OH265473   4.079   1.732  16.318  0.2972  0.3657 -0.3718
14661TIP3    H165474   4.068   1.680  16.238 -0.8094  0.2890 -0.1783
14661TIP3    H265475   4.004   1.710  16.372  0.4802  1.2193  0.2534
14662TIP3   OH265476   3.443   5.318  13.074 -0.8090  0.5906 -0.1764
14662TIP3    H165477   3.472   5.366  12.996  0.1601  0.6980  0.2259
14662TIP3    H265478   3.495   5.356  13.146  0.7067 -1.6720  0.0306
14663TIP3   OH265479   5.339   3.552  12.726 -0.1147 -0.2640 -0.1381
14663TIP3    H165480   5.293   3.622  12.680  0.1792 -0.4497 -0.7216
14663TIP3    H265481   5.430   3.583  12.731 -0.4865  0.6530  2.0680
14664TIP3   OH265482   0.804   2.473   1.126  0.3051 -0.0740  0.2321
14664TIP3    H165483   0.729   2.474   1.065  1.3584  1.0196 -1.1074
14664TIP3    H265484   0.840   2.385   1.116  0.3927  0.0472 -0.6792
14665TIP3   OH265485   4.697   0.952   6.105  0.0751  0.1808 -0.3319
14665TIP3    H165486   4.781   0.997   6.113 -0.0696  0.1598  1.9256
14665TIP3    H265487   4.644   1.009   6.049  1.4937  0.2753 -1.6545
14666TIP3   OH265488   2.978   5.443   5.513 -0.1550 -0.1139  0.4192
14666TIP3    H165489   3.007   5.465   5.602 -1.9727  1.2138  0.7306
14666TIP3    H265490   2.889   5.411   5.524 -1.2460  2.1796 -1.1069
14667TIP3   OH265491   3.825   5.061   1.777  0.1167  0.0260  0.2548
14667TIP3    H165492   3.816   5.107   1.860 -0.6193  0.6202 -0.1432
14667TIP3    H265493   3.908   5.092   1.740 -0.4208  1.1522 -0.0624
14668TIP3   OH265494   4.344   5.290   0.629 -0.3944 -0.1013  0.1415
14668TIP3    H165495   4.316   5.318   0.716  1.7304 -2.9220  1.9135
14668TIP3    H265496   4.423   5.238   0.645  0.4618 -0.2157 -3.5749
14669TIP3   OH265497   5.957   3.663  15.648  0.0740 -0.4996  0.3652
14669TIP3    H165498   5.991   3.592  15.701  1.4810  0.1762  0.4172
14669TIP3    H265499   5.894   3.707  15.705  1.3177  0.0165  1.4027
14670TIP3   OH265500   5.169   3.469  11.446 -0.0704  0.0399 -0.3424
14670TIP3    H165501   5.127   3.543  11.490  1.4929  1.2983 -0.8669
14670TIP3    H265502   5.222   3.427  11.514  0.4511  0.5173 -0.4448
14671TIP3   OH265503   2.429   3.529   0.927  0.3226 -0.0663 -0.7985
14671TIP3    H165504   2.441   3.434   0.932  0.6236  0.0172  0.3772
14671TIP3    H265505   2.415   3.546   0.833 -2.6618 -1.5879 -0.7564
14672TIP3   OH265506   1.311   1.715  14.758 -0.5979 -0.2892 -0.6736
14672TIP3    H165507   1.407   1.712  14.766 -0.5156  0.2469 -1.4262
14672TIP3    H265508   1.294   1.777  14.688 -1.5477  0.4861  0.2048
14673TIP3   OH265509   6.613   2.026  15.296  0.2655 -0.4844  0.2819
14673TIP3    H165510   6.617   1.933  15.271 -0.7296 -0.7867  1.1634
14673TIP3    H265511   6.607   2.073  15.214  0.3226 -1.2291 -0.1615
14674TIP3   OH265512   3.492   4.661  13.750  0.2898 -0.0292  0.5165
14674TIP3    H165513   3.411   4.647  13.702  0.1353  0.9831  0.4541
14674TIP3    H265514   3.523   4.574  13.773 -1.7605 -0.3900  2.1341
14675TIP3   OH265515   0.440   0.204   3.020 -0.0342  0.0778 -0.4387
14675TIP3    H165516   0.355   0.168   3.045  0.8727 -1.2765  0.8462
14675TIP3    H265517   0.420   0.292   2.988 -2.0746 -0.6822 -1.4742
14676TIP3   OH265518   0.114   1.204  16.780  0.3011 -1.2140 -0.4515
14676TIP3    H165519   0.075   1.244  16.702  0.2322 -0.9365 -0.2771
14676TIP3    H265520   0.138   1.279  16.834  0.9569 -1.3899 -0.4991
14677TIP3   OH265521   5.068   4.788  11.593  0.1995  0.4425  0.1440
14677TIP3    H165522   4.981   4.762  11.562  0.0966  1.6687 -0.7080
14677TIP3    H265523   5.071   4.760  11.684 -0.9631  0.0795  0.0862
14678TIP3   OH265524   6.597   6.335   0.909  0.2798  0.0141 -0.4892
14678TIP3    H165525   6.541   6.412   0.901  1.5124  0.7291 -3.5894
14678TIP3    H265526   6.541   6.262   0.880  0.0779  0.2736 -0.7552
14679TIP3   OH265527   1.411   5.322  15.116  0.6701  0.3509  0.3128
14679TIP3    H165528   1.394   5.394  15.175  0.3641  0.5232  0.0180
14679TIP3    H265529   1.479   5.270  15.159 -0.5231 -0.3019  1.4695
14680TIP3   OH265530   4.367   3.034  12.769  0.1648  0.3041  0.4615
14680TIP3    H165531   4.348   3.083  12.849  0.1354  1.9176 -0.4789
14680TIP3    H265532   4.308   3.072  12.703 -0.8123 -1.9374 -0.0346
14681TIP3   OH265533   1.700   2.350  12.084  0.2119 -0.1700 -0.2108
14681TIP3    H165534   1.671   2.325  11.996  0.8960 -0.2478 -0.4216
14681TIP3    H265535   1.628   2.401  12.120 -0.6608 -1.3140 -0.2911
14682TIP3   OH265536   5.059   2.799  12.733 -0.3931  0.0908  0.4393
14682TIP3    H165537   5.021   2.858  12.668  1.0150  0.6096  0.0645
14682TIP3    H265538   5.134   2.846  12.768  0.7390 -1.4437  0.1846
14683TIP3   OH265539   3.657   3.945  11.401 -0.1656  0.0144  0.4469
14683TIP3    H165540   3.595   3.871  11.405 -0.7772  0.3828 -1.1537
14683TIP3    H265541   3.703   3.932  11.318  0.0700  1.1529  0.3857
14684TIP3   OH265542   5.823   1.842   5.180 -0.1793 -0.0518 -0.7837
14684TIP3    H165543   5.880   1.914   5.154  1.3734 -1.2759 -0.9088
14684TIP3    H265544   5.811   1.855   5.274  1.3593 -0.4574 -0.5054
14685TIP3   OH265545   0.005   6.478   1.968  0.7646  0.7680 -0.2347
14685TIP3    H165546   0.039   6.411   1.910 -0.3314 -0.0767  0.0704
14685TIP3    H265547   0.082   6.530   1.992  1.6251 -0.3410 -0.5095
14686TIP3   OH265548   4.957   5.736   2.227 -0.0470  0.5738  0.2788
14686TIP3    H165549   4.944   5.641   2.223 -0.3345  0.5497  1.4022
14686TIP3    H265550   4.979   5.761   2.137 -0.6254 -0.4557 -0.1663
14687TIP3   OH265551   4.300   1.658   4.450 -0.2488  0.6279  0.0108
14687TIP3    H165552   4.391   1.630   4.459 -0.1113  0.8476 -0.6923
14687TIP3    H265553   4.271   1.621   4.366 -0.9497  0.1777  0.4350
14688TIP3   OH265554   3.344   0.957   3.093  0.5251  0.6276 -0.0585
14688TIP3    H165555   3.381   1.044   3.102 -1.2996  1.6586 -1.8861
14688TIP3    H265556   3.313   0.952   3.003 -1.2445 -1.1587  0.5562
14689TIP3   OH265557   6.412   6.033  14.871  0.5868 -0.6632 -0.2663
14689TIP3    H165558   6.417   6.127  14.889 -1.0663 -0.7623  0.9025
14689TIP3    H265559   6.411   5.992  14.957 -3.0523 -1.4535 -0.5224
14690TIP3   OH265560   1.988   3.445  16.573  0.8146  0.6927 -0.3446
14690TIP3    H165561   1.916   3.474  16.629 -0.7111 -1.7996 -0.8156
14690TIP3    H265562   1.995   3.512  16.505  0.4988  2.1103  0.9730
14691TIP3   OH265563   3.692   1.059  12.124 -0.1831 -0.2380  0.8017
14691TIP3    H165564   3.737   1.102  12.196  0.4248 -2.7180  2.0046
14691TIP3    H265565   3.622   1.009  12.165 -0.7757 -0.5405 -0.5087
14692TIP3   OH265566   0.299   3.238  15.456 -0.1336  0.0817  0.2432
14692TIP3    H165567   0.217   3.286  15.449  1.5444  2.8497 -2.1597
14692TIP3    H265568   0.328   3.226  15.366  1.0142 -3.0280  0.8979
14693TIP3   OH265569   5.021   0.176   5.357  0.4229  1.1015 -0.3173
14693TIP3    H165570   4.927   0.196   5.366  0.3257  0.2722  0.7098
14693TIP3    H265571   5.063   0.232   5.422  0.4462  0.1784  0.4794
14694TIP3   OH265572   4.896   4.864  13.948  0.2962 -0.2698 -0.2210
14694TIP3    H165573   4.982   4.837  13.979  0.2436  1.1640  1.3143
14694TIP3    H265574   4.871   4.797  13.884  2.8711 -0.2893 -1.3225
14695TIP3   OH265575   5.795   4.711  14.500  0.3242  0.0147 -0.3480
14695TIP3    H165576   5.791   4.732  14.407  0.0689 -1.0431 -0.5848
14695TIP3    H265577   5.888   4.695  14.517  0.2383 -0.8859 -0.6810
14696TIP3   OH265578   2.223   4.041   3.077  0.3091  0.2812  0.2746
14696TIP3    H165579   2.129   4.041   3.058 -0.2055  1.6970  2.4826
14696TIP3    H265580   2.229   4.073   3.167  2.9375  0.3169  0.1501
14697TIP3   OH265581   4.532   4.305  15.145  0.1755 -0.0818 -0.1262
14697TIP3    H165582   4.492   4.268  15.224 -0.9152 -1.0912 -1.1219
14697TIP3    H265583   4.614   4.256  15.134  1.5208  1.6166  1.6072
14698TIP3   OH265584   6.516   1.964  16.081  0.4449  0.1678  0.2882
14698TIP3    H165585   6.570   1.893  16.114 -1.1089 -0.3688  1.8023
14698TIP3    H265586   6.457   1.985  16.153 -1.7239  0.3771 -1.4385
14699TIP3   OH265587   0.432   4.563  12.947  0.3592  0.1002 -0.1805
14699TIP3    H165588   0.488   4.631  12.985  1.7266  0.2049 -2.2420
14699TIP3    H265589   0.343   4.595  12.963  0.9058  1.0426  1.2152
14700TIP3   OH265590   4.782   5.691  14.137  0.0212 -0.5033 -0.0092
14700TIP3    H165591   4.809   5.705  14.046  0.4240  0.1081  0.1946
14700TIP3    H265592   4.812   5.603  14.158  0.1130 -0.5661 -0.4055
14701TIP3   OH265593   6.127   5.861   3.257  0.6635 -0.3037  0.1088
14701TIP3    H165594   6.220   5.885   3.252  1.4420 -2.7635  1.3956
14701TIP3    H265595   6.124   5.791   3.322 -2.1339 -0.2803  0.1099
14702TIP3   OH265596   0.038   2.505  15.093 -0.4828 -0.7405 -0.1521
14702TIP3    H165597  -0.022   2.503  15.167 -1.0777 -0.3280 -0.6213
14702TIP3    H265598   0.122   2.530  15.132 -0.8229 -0.3735  0.3577
14703TIP3   OH265599   5.707   6.428  15.756  0.1747 -0.0286  0.4194
14703TIP3    H165600   5.690   6.347  15.707 -0.5632  0.5115 -0.2518
14703TIP3    H265601   5.801   6.443  15.747  0.4928 -1.2732  1.3077
14704TIP3   OH265602   2.776   5.993  14.609  0.2107 -0.1441  0.0622
14704TIP3    H165603   2.861   5.987  14.652 -0.1225  2.3194  1.2499
14704TIP3    H265604   2.713   5.991  14.681 -0.6782 -0.7158 -0.7147
14705TIP3   OH265605   5.288   6.351   5.406 -0.3606 -0.1656 -0.1149
14705TIP3    H165606   5.304   6.292   5.479  0.6761  0.9468  0.5901
14705TIP3    H265607   5.250   6.429   5.445  4.0614  2.2592  0.0527
14706TIP3   OH265608   5.173   6.386   2.252  0.2607  0.1122  0.0490
14706TIP3    H165609   5.136   6.306   2.213  0.8278  0.0407 -0.3558
14706TIP3    H265610   5.248   6.355   2.303 -0.7721  0.1400  1.6591
14707TIP3   OH265611   5.086   2.353   4.163  0.2718 -0.1454  0.2388
14707TIP3    H165612   5.102   2.343   4.069  0.6496  0.0600  0.2799
14707TIP3    H265613   5.006   2.303   4.179  0.6984 -0.9226 -0.0240
14708TIP3   OH265614   6.445   3.090   4.418 -0.3477 -0.3367  0.4003
14708TIP3    H165615   6.504   3.058   4.349 -1.6140  1.2340 -1.5294
14708TIP3    H265616   6.380   3.020   4.429 -0.4801 -0.3643 -0.4788
14709TIP3   OH265617   5.581   0.295  13.883  0.3729 -0.1024  0.0266
14709TIP3    H165618   5.511   0.285  13.819  0.0058  1.9960  0.0138
14709TIP3    H265619   5.633   0.216  13.875 -1.7798 -1.5802 -0.2052
14710TIP3   OH265620   1.270   6.370  12.845 -0.6756  0.2187  0.3505
14710TIP3    H165621   1.302   6.411  12.764 -0.3484  0.6731  0.7050
14710TIP3    H265622   1.199   6.312  12.816  0.1886 -0.4935 -0.3876
14711TIP3   OH265623   1.721   0.415   3.919 -0.2889  0.5424 -0.7369
14711TIP3    H165624   1.807   0.381   3.892 -0.0516  1.5165 -1.2445
14711TIP3    H265625   1.741   0.469   3.996 -0.6366 -0.2739 -0.0588
14712TIP3   OH265626   0.733   5.039  13.377 -0.0600 -0.7014 -0.1809
14712TIP3    H165627   0.676   5.001  13.310  1.3029 -2.5873 -0.3173
14712TIP3    H265628   0.803   5.081  13.327 -1.2071  1.5730 -0.0091
14713TIP3   OH265629   0.283   6.006  13.183 -0.2851  0.2641 -0.0824
14713TIP3    H165630   0.220   6.077  13.197 -0.6900 -0.0747 -0.1908
14713TIP3    H265631   0.354   6.025  13.246 -0.4261  0.7170 -0.0535
14714TIP3   OH265632   3.523   5.046   0.202 -0.2152  0.0050  0.7984
14714TIP3    H165633   3.540   5.039   0.296  0.3314 -0.3502  0.6772
14714TIP3    H265634   3.537   4.958   0.168 -2.8832 -0.4650  0.7456
14715TIP3   OH265635   3.164   4.069  15.609 -0.1043 -0.5517 -0.2512
14715TIP3    H165636   3.124   3.983  15.619 -1.4314 -0.1331 -1.5645
14715TIP3    H265637   3.120   4.108  15.534  0.0952  1.4781  0.5965
14716TIP3   OH265638   1.816   0.507   4.264 -0.1432 -0.9583  0.1865
14716TIP3    H165639   1.779   0.453   4.333 -0.5826 -0.4769  0.3364
14716TIP3    H265640   1.907   0.478   4.256  0.3033 -0.1262  1.8877
14717TIP3   OH265641   5.810   4.004  15.016  0.1337  0.0673 -0.6119
14717TIP3    H165642   5.854   4.065  15.074  0.4510 -1.2400  0.5660
14717TIP3    H265643   5.741   4.056  14.973  1.7352  1.7351 -1.2698
14718TIP3   OH265644   3.096   2.957   3.107  0.0134 -0.1227 -0.0323
14718TIP3    H165645   3.048   2.960   3.190 -0.4283  0.0048 -0.2962
14718TIP3    H265646   3.086   3.045   3.070  0.4051 -0.1100 -0.1150
14719TIP3   OH265647   4.878   1.692   3.079  0.3641  0.4928 -0.1135
14719TIP3    H165648   4.952   1.636   3.104  0.5552  1.3539  1.3815
14719TIP3    H265649   4.913   1.748   3.010  1.2772  1.1642  0.8455
14720TIP3   OH265650   2.266   2.362   5.200 -0.2594  0.3388  0.4516
14720TIP3    H165651   2.185   2.407   5.226 -0.0787  0.8187  0.2032
14720TIP3    H265652   2.277   2.384   5.108  0.2089  0.3596  0.5117
14721TIP3   OH265653   0.146   0.417   0.435  0.1405  0.0996  0.5266
14721TIP3    H165654   0.079   0.356   0.467 -0.5962  0.7933  0.3600
14721TIP3    H265655   0.122   0.433   0.344 -0.4958  1.6477  0.9156
14722TIP3   OH265656   1.166   0.886  13.436  0.2094  0.3225  0.0237
14722TIP3    H165657   1.153   0.817  13.501 -1.4997 -0.5366 -1.1598
14722TIP3    H265658   1.177   0.966  13.487  1.4283 -0.6848  1.4036
14723TIP3   OH265659   5.413   5.837  16.852 -0.2406  0.0754  0.2517
14723TIP3    H165660   5.322   5.809  16.846 -0.2658  0.1088  0.4564
14723TIP3    H265661   5.415   5.922  16.808 -0.5977  0.7206  1.4167
14724TIP3   OH265662   1.799   2.226  11.036 -0.0635  0.8198 -0.0410
14724TIP3    H165663   1.718   2.199  10.993 -1.2586  2.8454  0.7963
14724TIP3    H265664   1.778   2.229  11.129  0.9994  1.2839  0.2011
14725TIP3   OH265665   3.680   1.085  11.866 -0.0047 -0.0433 -0.2080
14725TIP3    H165666   3.694   1.094  11.961 -0.0606 -2.2209  0.0651
14725TIP3    H265667   3.596   1.040  11.858  0.3711 -0.5944 -1.2485
14726TIP3   OH265668   6.235   5.306  11.531  0.4254 -0.2590  0.4376
14726TIP3    H165669   6.316   5.357  11.529 -0.2824  0.8777 -0.1589
14726TIP3    H265670   6.209   5.299  11.439  0.4027 -1.5391  0.5287
14727TIP3   OH265671   6.312   2.044   2.193 -0.0209 -0.2187  0.8723
14727TIP3    H165672   6.319   1.972   2.130  0.7126 -1.5982  2.4367
14727TIP3    H265673   6.367   2.113   2.157  0.8402 -1.2014  0.2557
14728TIP3   OH265674   2.682   4.436   5.905 -0.6755  0.0752  0.3942
14728TIP3    H165675   2.711   4.472   5.821  1.4103 -2.7136 -0.2177
14728TIP3    H265676   2.588   4.450   5.905 -0.8768 -0.4919 -2.7937
14729TIP3   OH265677   4.556   1.317   5.267  0.2220  0.2903 -0.1201
14729TIP3    H165678   4.648   1.339   5.281  0.7504 -1.3169 -0.8008
14729TIP3    H265679   4.542   1.335   5.174  0.5315 -1.5483 -0.5770
14730TIP3   OH265680   2.517   6.686  13.844  0.0506  0.4458 -0.1337
14730TIP3    H165681   2.601   6.676  13.800  0.9763  1.7082  1.2267
14730TIP3    H265682   2.452   6.670  13.777  1.3768 -0.7881 -1.1770
14731TIP3   OH265683   3.644   1.494   2.692  0.4431  0.0855  0.5066
14731TIP3    H165684   3.596   1.572   2.666  1.2356  0.4484  0.0893
14731TIP3    H265685   3.698   1.522   2.766  0.8348 -0.0163  0.2661
14732TIP3   OH265686   3.804   4.795   1.376 -0.3710 -0.1767 -0.4551
14732TIP3    H165687   3.833   4.716   1.422  0.5926  0.8638  0.7814
14732TIP3    H265688   3.880   4.853   1.376 -1.1622  0.8996 -1.0388
14733TIP3   OH265689   0.348   4.876  12.607 -0.0075 -0.0629  0.0993
14733TIP3    H165690   0.337   4.931  12.684 -1.3945  0.2073 -0.2658
14733TIP3    H265691   0.344   4.786  12.641  0.4477  0.0564  0.4707
14734TIP3   OH265692   5.899   3.823  10.517 -0.4420 -0.1687  0.0719
14734TIP3    H165693   5.803   3.828  10.523 -0.4325 -0.8116  0.9106
14734TIP3    H265694   5.929   3.912  10.533 -0.8504 -0.2240  1.2568
14735TIP3   OH265695   1.214   5.013  15.647 -0.1931 -0.1706  0.3861
14735TIP3    H165696   1.143   4.996  15.585 -0.3706 -0.2670  0.6149
14735TIP3    H265697   1.278   4.943  15.630 -0.7055 -0.7942  0.9997
14736TIP3   OH265698   3.351   1.192  17.111  0.3933 -0.4418 -0.3204
14736TIP3    H165699   3.420   1.258  17.120  0.8358 -0.9923  0.4919
14736TIP3    H265700   3.302   1.219  17.034  0.5142  0.8825  0.0360
14737TIP3   OH265701   4.941   0.083   4.132 -0.2624  0.0385  0.3513
14737TIP3    H165702   4.850   0.082   4.102 -0.4730 -0.4324  0.9873
14737TIP3    H265703   4.963   0.176   4.138 -0.3621  0.1460 -0.7986
14738TIP3   OH265704   4.718   5.133   3.449  0.7966  0.3543 -0.4448
14738TIP3    H165705   4.717   5.048   3.492  3.6082  0.1876 -0.5451
14738TIP3    H265706   4.748   5.194   3.516 -0.1004  1.0904 -0.6876
14739TIP3   OH265707   0.464   4.825   1.711  0.1385  0.0318 -0.3270
14739TIP3    H165708   0.427   4.910   1.738  4.0570  1.1746  2.2811
14739TIP3    H265709   0.441   4.766   1.782 -0.2728 -0.4285 -0.8308
14740TIP3   OH265710   6.548   4.493  15.806  0.3281  0.2972 -0.1028
14740TIP3    H165711   6.541   4.587  15.788  0.2149 -0.0039 -1.7716
14740TIP3    H265712   6.477   4.453  15.757  2.0355 -0.9118 -1.7187
14741TIP3   OH265713   2.797   6.094   1.943 -0.2221  0.2292  0.2666
14741TIP3    H165714   2.860   6.123   2.009  1.5521 -2.0083 -0.3165
14741TIP3    H265715   2.840   6.020   1.900 -3.5085 -1.8748  0.2675
14742TIP3   OH265716   4.390   4.882  16.769 -0.4319  0.0443 -0.0109
14742TIP3    H165717   4.320   4.869  16.833  1.5313 -0.7412  2.0981
14742TIP3    H265718   4.390   4.976  16.752 -1.4781  0.1671  0.5471
14743TIP3   OH265719   1.502   4.427   2.364 -0.1051  0.2484 -0.0105
14743TIP3    H165720   1.547   4.356   2.319 -0.4365 -0.5651  0.9199
14743TIP3    H265721   1.479   4.489   2.294  0.9543 -0.1221 -0.7111
14744TIP3   OH265722   4.068   0.538  11.472 -0.4970 -0.3918 -0.0941
14744TIP3    H165723   4.147   0.491  11.500  0.5663  1.6039  0.4868
14744TIP3    H265724   4.080   0.549  11.378  0.0655  0.1283  0.0319
14745TIP3   OH265725   4.196   2.742   0.135  0.1388  0.3998 -0.2657
14745TIP3    H165726   4.204   2.773   0.045 -0.5614  0.9981 -0.1311
14745TIP3    H265727   4.173   2.649   0.127  2.6623 -0.2633 -0.6663
14746TIP3   OH265728   4.157   1.911  13.192 -0.3346 -0.0809 -1.0567
14746TIP3    H165729   4.240   1.873  13.221 -0.2633  2.4214  2.7722
14746TIP3    H265730   4.090   1.852  13.228 -0.2546 -0.5477 -1.6536
14747TIP3   OH265731   3.940   3.081   5.662  0.3100 -0.4509  0.1834
14747TIP3    H165732   3.974   2.992   5.666 -1.8186 -1.3719 -0.9246
14747TIP3    H265733   3.882   3.088   5.737  0.0099 -0.2044 -0.0695
14748TIP3   OH265734   2.756   2.044   5.688  0.3514 -0.2545  0.0056
14748TIP3    H165735   2.741   2.127   5.642  0.2575 -0.1416  0.2348
14748TIP3    H265736   2.847   2.023   5.670 -0.2651 -1.3925 -2.1259
14749TIP3   OH265737   3.057   4.214   6.295 -0.8345 -0.4369 -0.7900
14749TIP3    H165738   3.009   4.244   6.372  0.5369 -0.2030  0.0099
14749TIP3    H265739   3.059   4.289   6.236 -0.0351  0.0924 -0.1074
14750TIP3   OH265740   4.510   4.967  14.300  0.2338  1.0762 -0.0398
14750TIP3    H165741   4.422   4.993  14.272 -0.4010 -0.0287  0.8008
14750TIP3    H265742   4.568   5.033  14.263 -0.9915  2.0678 -0.2723
14751TIP3   OH265743   4.426   6.486  14.224 -0.3844 -0.1897 -0.0243
14751TIP3    H165744   4.450   6.397  14.197  2.0390 -0.4029  2.4500
14751TIP3    H265745   4.446   6.541  14.148  1.4445 -1.3353 -0.4245
14752TIP3   OH265746   6.527   1.604  14.733  0.0489 -0.2204  0.2673
14752TIP3    H165747   6.617   1.633  14.722 -0.4847  1.0717 -1.0565
14752TIP3    H265748   6.476   1.685  14.737 -1.1684 -0.9249 -0.1547
14753TIP3   OH265749   3.729   2.636  16.663  0.5077  0.5789  0.2022
14753TIP3    H165750   3.690   2.607  16.581  2.1613  0.0475 -0.4485
14753TIP3    H265751   3.770   2.558  16.699  1.2751  1.1734  0.6555
14754TIP3   OH265752   6.585   0.368   5.382 -0.2455 -0.3481 -0.1504
14754TIP3    H165753   6.631   0.338   5.461 -0.2191 -0.6048 -0.2636
14754TIP3    H265754   6.573   0.462   5.396  2.6383  0.2890 -1.2577
14755TIP3   OH265755   4.407   3.681  13.149  0.0109 -0.5177 -0.3068
14755TIP3    H165756   4.488   3.732  13.151 -0.8481  0.8775  0.1705
14755TIP3    H265757   4.406   3.635  13.233 -0.2408  0.3725  0.1908
14756TIP3   OH265758   6.293   0.169  10.776 -0.3725 -0.4952 -0.4142
14756TIP3    H165759   6.295   0.216  10.692  2.2841  1.1682  0.4318
14756TIP3    H265760   6.383   0.138  10.787 -0.7571 -1.0134  1.6422
14757TIP3   OH265761   2.748   2.229   3.883  0.4272  0.3727  0.0880
14757TIP3    H165762   2.673   2.176   3.854  0.5255  0.1966  0.1497
14757TIP3    H265763   2.746   2.221   3.978 -1.1141  2.6115  0.3142
14758TIP3   OH265764   5.871   0.576  14.536  0.6436 -0.0400 -0.5731
14758TIP3    H165765   5.802   0.545  14.477 -0.6641  1.4911  0.0750
14758TIP3    H265766   5.895   0.662  14.502  0.1082  0.7215  0.9029
14759TIP3   OH265767   3.225   0.726   5.813  0.1919 -1.0697  0.1214
14759TIP3    H165768   3.176   0.664   5.868 -0.7394 -0.8800 -0.4587
14759TIP3    H265769   3.196   0.812   5.843  1.8163 -0.8644  1.2286
14760TIP3   OH265770   3.904   6.275  15.897  0.1459  0.0899  0.5103
14760TIP3    H165771   3.818   6.317  15.892  0.1951  0.3024  1.3021
14760TIP3    H265772   3.885   6.181  15.895 -0.0947  0.1395  0.4686
14761TIP3   OH265773   0.690   6.017   6.206 -0.3352 -0.1153 -0.0409
14761TIP3    H165774   0.776   5.996   6.171 -0.5108 -0.6968 -0.1297
14761TIP3    H265775   0.667   6.101   6.166  1.3917  1.5094  2.1001
14762TIP3   OH265776   4.116   2.827  13.126  0.0142  0.3425  0.4481
14762TIP3    H165777   4.171   2.820  13.048 -1.8467  1.0044 -1.0004
14762TIP3    H265778   4.026   2.825  13.092 -0.8633  2.4940  2.3972
14763TIP3   OH265779   4.843   5.585  14.798  0.0322  0.1275  0.1725
14763TIP3    H165780   4.868   5.672  14.831  0.3846 -0.0332  0.3339
14763TIP3    H265781   4.747   5.589  14.790  0.2018  1.1799 -1.6927
14764TIP3   OH265782   0.404   2.850  14.559  0.0299 -0.1502 -0.0872
14764TIP3    H165783   0.375   2.881  14.645  0.4074  0.7406 -0.2798
14764TIP3    H265784   0.336   2.881  14.498  0.2668  0.0523 -0.2462
14765TIP3   OH265785   3.735   4.180   5.228 -0.2123 -0.3756 -0.7070
14765TIP3    H165786   3.776   4.094   5.219  0.4826 -0.3406  1.5351
14765TIP3    H265787   3.647   4.162   5.259 -0.7772 -0.3123 -2.1874
14766TIP3   OH265788   1.104   2.122  10.050 -0.0556 -0.3912  0.5220
14766TIP3    H165789   1.061   2.208  10.047  1.5295  0.4409  0.5195
14766TIP3    H265790   1.189   2.136  10.007  0.4790 -1.8113  1.0507
14767TIP3   OH265791   2.824   0.237  11.531  0.1377  0.1043 -0.2016
14767TIP3    H165792   2.777   0.172  11.480 -0.1913 -0.1382  0.4070
14767TIP3    H265793   2.911   0.241  11.490 -0.9405  1.9792 -2.5981
14768TIP3   OH265794   2.129   0.550  11.585 -0.1848  0.5003  0.0217
14768TIP3    H165795   2.041   0.547  11.548  0.0108  1.4726 -0.5605
14768TIP3    H265796   2.184   0.577  11.512  0.6442 -0.3377  0.3162
14769TIP3   OH265797   4.963   2.758  14.461  0.1550 -0.0215 -0.0152
14769TIP3    H165798   4.890   2.732  14.518  0.7932  0.6062  1.1364
14769TIP3    H265799   4.931   2.836  14.416 -0.3715 -0.5447 -0.5698
14770TIP3   OH265800   3.151   5.541  14.670 -0.0327  0.2528  0.2309
14770TIP3    H165801   3.243   5.523  14.652  0.1524  0.3601  1.0459
14770TIP3    H265802   3.107   5.527  14.586  0.6906 -0.0194 -0.1088
14771TIP3   OH265803   4.061   4.031   2.975  0.6076  0.3859 -0.3003
14771TIP3    H165804   4.096   3.948   2.942  0.7898 -0.6503  2.2774
14771TIP3    H265805   3.969   4.030   2.950  0.3683 -1.0938  0.5277
14772TIP3   OH265806   5.917   3.946  11.144 -0.1905 -0.6870 -0.1161
14772TIP3    H165807   5.952   3.949  11.055 -0.5064  0.3765 -0.2180
14772TIP3    H265808   5.989   3.976  11.199 -0.6028  0.5676 -0.2280
14773TIP3   OH265809   1.909   6.424   4.593 -0.1469 -0.1755 -0.4278
14773TIP3    H165810   1.838   6.374   4.634  0.3322 -1.4745 -1.1270
14773TIP3    H265811   1.989   6.384   4.626  0.2551  0.4795 -0.5918
14774TIP3   OH265812   1.507   5.361  13.385  0.3028 -0.0912  0.2390
14774TIP3    H165813   1.441   5.418  13.346  0.2091 -0.6825 -0.4776
14774TIP3    H265814   1.485   5.360  13.478 -0.7925 -0.4024 -0.0074
14775TIP3   OH265815   0.417   6.805   3.325  0.1942  0.0697 -0.1082
14775TIP3    H165816   0.387   6.726   3.371  1.6731 -2.3260 -2.9365
14775TIP3    H265817   0.337   6.851   3.302 -0.7485 -0.8633  1.1148
14776TIP3   OH265818   2.912   2.761   5.957  0.9933  0.3343 -0.3904
14776TIP3    H165819   2.837   2.703   5.969  2.1317 -1.4585 -1.5238
14776TIP3    H265820   2.879   2.848   5.978 -0.6494 -0.7539  1.8781
14777TIP3   OH265821   3.230   6.320  11.002 -0.1721 -0.4035  0.5224
14777TIP3    H165822   3.248   6.354  11.089  1.3727  1.6870 -0.5078
14777TIP3    H265823   3.220   6.226  11.014  0.0995 -0.1854  2.9166
14778TIP3   OH265824   3.413   6.456  14.089  0.2320 -0.4010  0.0896
14778TIP3    H165825   3.344   6.390  14.092  0.2804 -0.4903  3.6098
14778TIP3    H265826   3.467   6.432  14.014 -1.4198 -2.5818 -0.4852
14779TIP3   OH265827   5.175   3.231  16.129 -0.1027  0.5858  0.2966
14779TIP3    H165828   5.175   3.287  16.052 -0.4444  0.7953  0.4480
14779TIP3    H265829   5.248   3.263  16.182  1.1171 -0.5506 -0.6489
14780TIP3   OH265830   2.964   2.910  11.597  0.3555 -0.2014  0.5934
14780TIP3    H165831   2.899   2.842  11.579  1.0527 -0.4251 -1.3352
14780TIP3    H265832   2.921   2.967  11.661 -1.1532 -1.1592  0.5000
14781TIP3   OH265833   4.217   3.251  15.410  0.2552  0.6756 -0.2955
14781TIP3    H165834   4.235   3.232  15.318 -0.0409 -1.4673  0.0251
14781TIP3    H265835   4.294   3.220  15.457 -0.9279 -1.4252  0.4149
14782TIP3   OH265836   0.220   4.724   2.016  0.0553 -0.2836 -0.3820
14782TIP3    H165837   0.311   4.696   2.002  0.3107 -1.0185  2.1994
14782TIP3    H265838   0.225   4.819   2.019  0.6883 -0.3030 -0.5804
14783TIP3   OH265839   5.939   0.296   2.332 -0.4128  0.7199 -0.0496
14783TIP3    H165840   5.994   0.313   2.408 -0.2409 -0.1717  0.0425
14783TIP3    H265841   5.856   0.267   2.367 -0.3029  0.2158 -0.1942
14784TIP3   OH265842   0.012   4.932  10.995  0.1828  0.1202  0.0290
14784TIP3    H165843   0.035   5.017  10.958 -0.2472 -0.1693 -0.9328
14784TIP3    H265844  -0.064   4.951  11.052  0.6543  0.5138  0.5385
14785TIP3   OH265845   3.976   4.530  15.144  0.0603  0.1526  0.4999
14785TIP3    H165846   4.040   4.601  15.155 -0.2285  0.3385  0.9767
14785TIP3    H265847   3.891   4.571  15.162 -0.1554 -0.1938  0.2756
14786TIP3   OH265848   1.941   6.286  12.273 -0.1418 -0.1838  0.4180
14786TIP3    H165849   2.011   6.228  12.245 -0.0716  0.2895 -0.4014
14786TIP3    H265850   1.972   6.322  12.357 -0.2822 -1.4653  1.0427
14787TIP3   OH265851   5.268   2.669   6.066 -0.3028  0.4973 -0.7412
14787TIP3    H165852   5.287   2.681   5.973  0.2542  0.6010 -0.6221
14787TIP3    H265853   5.354   2.660   6.107 -0.5896 -1.6081 -0.4950
14788TIP3   OH265854   2.921   4.535   4.406 -0.4984 -0.0835  0.1813
14788TIP3    H165855   2.963   4.450   4.422 -0.1754 -0.3348 -1.7259
14788TIP3    H265856   2.991   4.599   4.415 -0.3755 -0.1987  0.0611
14789TIP3   OH265857   5.962   0.315  15.318 -0.3731  0.2340 -0.5257
14789TIP3    H165858   5.945   0.408  15.304  0.5261  0.6919  1.1851
14789TIP3    H265859   6.057   0.307  15.311 -0.5555 -0.8893 -2.3111
14790TIP3   OH265860   3.840   2.463  11.886 -0.2254 -0.0251 -0.0817
14790TIP3    H165861   3.832   2.461  11.982 -1.5273  1.0007 -0.1370
14790TIP3    H265862   3.925   2.422  11.868  0.0545 -0.2139  1.5091
14791TIP3   OH265863   3.015   2.147  11.981  0.3289 -0.3790 -0.4173
14791TIP3    H165864   3.095   2.196  11.997  1.0561 -1.6940  0.1244
14791TIP3    H265865   2.953   2.212  11.948  0.7063  1.2666  1.8624
14792TIP3   OH265866   5.455   6.790  16.680  0.1901 -0.5780 -0.3722
14792TIP3    H165867   5.480   6.714  16.733 -1.0761  0.0652  1.2424
14792TIP3    H265868   5.374   6.822  16.721  1.4747  2.5511 -0.0302
14793TIP3   OH265869   5.820   5.597   2.946 -0.1650 -0.3427  0.4931
14793TIP3    H165870   5.831   5.620   3.038 -2.0457  1.8350  0.2590
14793TIP3    H265871   5.754   5.658   2.913  0.8707 -0.6301 -2.4562
14794TIP3   OH265872   0.782   5.151   3.414  0.1558  0.2361  0.1616
14794TIP3    H165873   0.790   5.098   3.334  0.0683  0.3629  0.0691
14794TIP3    H265874   0.840   5.226   3.398 -0.9297  0.9788 -0.3598
14795TIP3   OH265875   6.249   5.730   0.044 -0.2258  0.4873 -0.0728
14795TIP3    H165876   6.237   5.639   0.068  1.5877  0.5006  1.0603
14795TIP3    H265877   6.211   5.737  -0.044 -0.6418 -1.2748 -0.0645
14796TIP3   OH265878   2.767   4.595   1.158  0.6655 -0.4940  0.3847
14796TIP3    H165879   2.802   4.600   1.069 -0.7443  0.8566 -0.1248
14796TIP3    H265880   2.692   4.537   1.151  0.4352 -0.2288  0.6516
14797TIP3   OH265881   0.405   3.743  16.579  0.4741 -0.0339  0.0475
14797TIP3    H165882   0.464   3.818  16.586  0.9775 -0.5708  2.4429
14797TIP3    H265883   0.368   3.733  16.666 -1.9961 -0.7042 -0.9980
14798TIP3   OH265884   6.081   3.834   5.272  0.1605  0.5727 -0.9775
14798TIP3    H165885   6.134   3.755   5.273 -2.0272 -0.9709  0.4815
14798TIP3    H265886   6.012   3.818   5.335 -1.4398  2.9167 -1.9853
14799TIP3   OH265887   1.841   2.003   2.414  0.0915  0.5838 -0.5004
14799TIP3    H165888   1.798   2.076   2.368 -1.0830 -0.6945 -1.5043
14799TIP3    H265889   1.820   2.018   2.506  1.6010  2.6121 -0.4208
14800TIP3   OH265890   2.986   1.753  10.984 -0.1235  0.0442  0.2560
14800TIP3    H165891   3.008   1.661  10.965 -1.0648 -0.3753  1.0991
14800TIP3    H265892   3.070   1.798  10.981  0.3769 -0.8609 -0.0501
14801TIP3   OH265893   0.715   6.213   0.432 -0.1487 -0.0246 -0.1461
14801TIP3    H165894   0.698   6.126   0.470 -2.1495 -0.0588 -1.0406
14801TIP3    H265895   0.810   6.222   0.438 -0.1358 -0.9815  2.7385
14802TIP3   OH265896   4.150   4.002  10.608 -0.5722 -0.2903  0.8512
14802TIP3    H165897   4.144   3.942  10.682 -1.0185 -1.0513  0.2089
14802TIP3    H265898   4.059   4.027  10.589 -0.3490  1.1427  1.5423
14803TIP3   OH265899   0.133   3.662  13.448  0.6597  0.4314 -0.3167
14803TIP3    H165900   0.120   3.754  13.425 -1.2877  0.4950  0.8561
14803TIP3    H265901   0.212   3.661  13.501 -0.2333  1.7181  1.1044
14804TIP3   OH265902   2.090   5.112  17.221  0.3565 -0.3818 -0.4487
14804TIP3    H165903   2.061   5.192  17.265  2.8658  0.7337 -0.6746
14804TIP3    H265904   2.135   5.062  17.288  2.4838  0.4179 -1.1946
14805TIP3   OH265905   1.540   3.617   1.629  0.4433 -0.0092  0.2880
14805TIP3    H165906   1.486   3.570   1.692  0.3458 -0.1115  0.1291
14805TIP3    H265907   1.507   3.707   1.631 -0.9960 -0.4599 -1.1696
14806TIP3   OH265908   4.229   1.315   2.625  0.0550 -0.0879 -0.1450
14806TIP3    H165909   4.147   1.365   2.617 -0.8972 -1.6756 -0.7104
14806TIP3    H265910   4.243   1.277   2.539 -0.7174 -2.9339  0.8813
14807TIP3   OH265911   1.073   0.838   4.275  0.7295 -0.4020 -0.1099
14807TIP3    H165912   0.985   0.847   4.312 -0.4280 -2.5407 -2.1074
14807TIP3    H265913   1.060   0.842   4.181  2.7116 -1.2134 -0.4596
14808TIP3   OH265914   5.235   3.019   1.484  0.3162 -0.0512 -0.0419
14808TIP3    H165915   5.176   2.945   1.466 -1.5199  1.6201 -1.2314
14808TIP3    H265916   5.261   3.051   1.398  2.3016 -0.1708  0.4624
14809TIP3   OH265917   1.834   0.344   1.014  0.3279 -0.2348  0.4843
14809TIP3    H165918   1.813   0.427   0.973 -2.7154 -0.8214  0.6398
14809TIP3    H265919   1.831   0.280   0.943  4.4640 -0.1461 -0.0120
14810TIP3   OH265920   6.263   4.854   2.407  0.1659 -0.2232  0.3352
14810TIP3    H165921   6.294   4.765   2.423 -0.7779 -1.0624 -2.0073
14810TIP3    H265922   6.333   4.910   2.442  0.3801 -1.7925  2.6666
14811TIP3   OH265923   2.038   0.117  17.031  0.2442 -0.1767 -0.4270
14811TIP3    H165924   2.073   0.166  16.955  0.1514  0.6723  0.0659
14811TIP3    H265925   2.115   0.074  17.069  0.8047  1.6749  0.6439
14812TIP3   OH265926   4.174   0.715  13.327 -0.2557  0.3172 -0.3569
14812TIP3    H165927   4.119   0.641  13.301 -2.1081  1.3925  0.2951
14812TIP3    H265928   4.122   0.761  13.394  1.1375  1.8115 -0.2430
14813TIP3   OH265929   0.615   1.585  12.769  0.5953  0.0974 -0.6488
14813TIP3    H165930   0.543   1.544  12.816  0.9470 -0.7052 -0.7925
14813TIP3    H265931   0.682   1.600  12.837  1.4843 -1.9238 -0.9938
14814TIP3   OH265932   5.060   5.657   5.107  0.0696  0.6068 -0.2684
14814TIP3    H165933   5.025   5.568   5.103 -1.1892  1.1087 -1.3957
14814TIP3    H265934   5.057   5.687   5.016 -0.6518  2.2010  0.2502
14815TIP3   OH265935   2.210   2.384   4.746  0.3184  0.1054 -0.2629
14815TIP3    H165936   2.147   2.449   4.776 -0.4734 -0.6602 -0.2403
14815TIP3    H265937   2.267   2.369   4.822  0.6165  0.8807 -0.3198
14816TIP3   OH265938   6.086   0.987   3.020  0.1856 -0.1558 -0.0137
14816TIP3    H165939   6.116   0.937   2.944  1.6248 -1.0710  1.0875
14816TIP3    H265940   6.125   1.073   3.009  0.7095 -0.4040 -0.1366
14817TIP3   OH265941   1.761   6.745   3.856 -0.2436  0.1734 -0.2072
14817TIP3    H165942   1.687   6.805   3.851  0.8685  1.7288  0.7861
14817TIP3    H265943   1.820   6.775   3.785  0.7999  1.0190  0.9643
14818TIP3   OH265944   2.455   4.464  12.685 -0.1180  0.3324 -0.0283
14818TIP3    H165945   2.474   4.375  12.655  0.9357  1.3260 -2.6044
14818TIP3    H265946   2.536   4.491  12.730 -0.5387 -0.0622  1.0012
14819TIP3   OH265947   0.828   6.812  15.492  0.1828  0.8247 -0.3813
14819TIP3    H165948   0.853   6.725  15.522 -0.3045  0.0150 -2.1602
14819TIP3    H265949   0.866   6.871  15.556 -1.2941 -0.7472  2.0957
14820TIP3   OH265950   3.653   4.471   3.636  0.4243 -0.0708 -0.3292
14820TIP3    H165951   3.601   4.551   3.645  1.4121  0.7381 -1.5769
14820TIP3    H265952   3.740   4.495   3.668  0.2492 -1.2357  1.1405
14821TIP3   OH265953   4.139   4.591  12.018 -0.1759 -0.0462 -0.1888
14821TIP3    H165954   4.092   4.668  12.050 -0.7172 -0.4763  0.0776
14821TIP3    H265955   4.216   4.626  11.973  0.6229  0.5875  1.5862
14822TIP3   OH265956   6.449   2.248   3.496  0.3869  0.4462 -0.0520
14822TIP3    H165957   6.437   2.189   3.421 -0.7050  1.3171 -0.5839
14822TIP3    H265958   6.505   2.318   3.463  0.4330  0.4985  0.1376
14823TIP3   OH265959   3.018   1.531  13.875 -0.2258 -0.1722  0.1257
14823TIP3    H165960   2.971   1.611  13.849  0.1384 -0.1839 -0.5993
14823TIP3    H265961   3.065   1.556  13.955  0.8265  0.7198 -0.7329
14824TIP3   OH265962   0.489   3.572  16.031  0.0834 -0.3364  0.1767
14824TIP3    H165963   0.481   3.490  16.081 -0.2213  0.7111  1.9297
14824TIP3    H265964   0.428   3.632  16.075  0.9717  1.0978 -0.4983
14825TIP3   OH265965   4.986   6.716   1.007  0.2767  0.4313  0.2537
14825TIP3    H165966   4.983   6.715   0.911 -0.1927  0.2501  0.2665
14825TIP3    H265967   5.079   6.722   1.028  0.3955  0.2910 -0.2131
14826TIP3   OH265968   6.325   4.445  12.227 -0.6858  0.3958  0.5848
14826TIP3    H165969   6.265   4.493  12.284  0.0694  1.9235  0.1437
14826TIP3    H265970   6.408   4.493  12.234  0.4256 -1.4997  0.9578
14827TIP3   OH265971   3.961   1.172  14.604 -0.5552  0.5522  0.5859
14827TIP3    H165972   3.900   1.140  14.537 -1.9565  2.0576  1.0789
14827TIP3    H265973   4.048   1.144  14.572 -1.3462 -0.4175 -0.8572
14828TIP3   OH265974   0.533   3.238   3.621 -0.5130  0.1762 -0.2366
14828TIP3    H165975   0.484   3.315   3.590 -0.5567  0.9123  1.5510
14828TIP3    H265976   0.625   3.266   3.617 -0.5772  0.7051  1.2809
14829TIP3   OH265977   0.563   5.464   2.840 -0.5719  0.0137  0.5226
14829TIP3    H165978   0.593   5.552   2.816 -1.3985  0.7176  1.9051
14829TIP3    H265979   0.633   5.406   2.812 -0.4280  0.9799 -1.3236
14830TIP3   OH265980   4.403   6.405   5.674  0.4561  0.1998 -0.5474
14830TIP3    H165981   4.360   6.327   5.638 -1.0388  0.5116  0.4647
14830TIP3    H265982   4.378   6.406   5.766  0.1529  2.0336 -0.6065
14831TIP3   OH265983   4.226   3.441   1.783  0.1340  0.2151  0.3254
14831TIP3    H165984   4.269   3.450   1.868 -1.6966  2.2717  1.1374
14831TIP3    H265985   4.262   3.512   1.730  0.7157 -0.6031 -0.4164
14832TIP3   OH265986   5.424   4.084   5.724 -0.0766 -0.6073 -0.7813
14832TIP3    H165987   5.496   4.122   5.775  0.0384  0.6559 -1.8176
14832TIP3    H265988   5.350   4.142   5.742 -0.7662 -1.7163  0.0259
14833TIP3   OH265989   6.175   0.265  14.981 -0.3245 -0.6887  0.4031
14833TIP3    H165990   6.243   0.282  15.045 -0.2697  0.4416  0.0594
14833TIP3    H265991   6.223   0.247  14.899 -0.4333  0.1538  0.1503
14834TIP3   OH265992   6.148   6.299   3.044 -0.6675 -0.4661  0.2851
14834TIP3    H165993   6.213   6.326   3.109  1.4083 -0.5443 -1.6470
14834TIP3    H265994   6.166   6.206   3.029 -1.0256 -0.4193 -0.4748
14835TIP3   OH265995   3.764   3.917  15.761  0.1767 -0.5697 -0.1158
14835TIP3    H165996   3.680   3.923  15.808  0.1266 -2.0711  0.0363
14835TIP3    H265997   3.741   3.879  15.676  0.6708 -0.7512 -0.1674
14836TIP3   OH265998   0.791   3.231   0.519 -0.2541 -0.1688  0.1670
14836TIP3    H165999   0.825   3.279   0.595 -0.7001  1.5875 -0.6975
14836TIP3    H266000   0.697   3.225   0.536 -0.0177 -2.3028  1.0693
14837TIP3   OH266001   5.985   1.871  15.540 -0.0121 -0.4499 -0.0497
14837TIP3    H166002   5.911   1.877  15.600  0.3815  1.5786  0.3010
14837TIP3    H266003   6.060   1.904  15.590  0.4737  0.5492 -1.3619
14838TIP3   OH266004   0.661   1.021  16.665  0.2448  0.9728 -0.1599
14838TIP3    H166005   0.612   1.048  16.743 -1.6928  0.4623 -1.1300
14838TIP3    H266006   0.738   0.975  16.699  0.3755  2.2913  1.4384
14839TIP3   OH266007   0.786   4.832   1.723  0.2179 -0.1951 -0.3699
14839TIP3    H166008   0.695   4.810   1.703 -0.0295  1.7593 -1.6554
14839TIP3    H266009   0.836   4.800   1.648  0.3085  0.4931 -0.6093
14840TIP3   OH266010   4.191   2.200   6.237  0.2062  0.0464 -0.1324
14840TIP3    H166011   4.100   2.199   6.207  0.2342 -1.6075 -0.2306
14840TIP3    H266012   4.185   2.222   6.330 -0.1845  1.1478 -0.4036
14841TIP3   OH266013   3.446   4.187   0.470 -0.4522 -0.3379  0.2354
14841TIP3    H166014   3.525   4.218   0.514 -1.5446  2.6000  0.3414
14841TIP3    H266015   3.469   4.186   0.377  0.3731 -1.7862  0.4333
14842TIP3   OH266016   1.827   3.855   1.415  0.4158 -0.5640 -0.1926
14842TIP3    H166017   1.749   3.904   1.440  0.1430 -0.6335 -0.8883
14842TIP3    H266018   1.898   3.919   1.421  0.3211 -0.5111  0.4827
14843TIP3   OH266019   2.035   0.168  13.354  1.0159  1.0070  0.3688
14843TIP3    H166020   2.112   0.118  13.379  0.2749  1.1619  3.2123
14843TIP3    H266021   2.025   0.233  13.423 -0.0921  2.8212 -1.3976
14844TIP3   OH266022   4.242   0.230   1.590 -0.2562 -0.5686  0.0089
14844TIP3    H166023   4.187   0.155   1.566 -2.5077  1.1971 -0.7706
14844TIP3    H266024   4.195   0.273   1.661 -0.8192  1.8957 -1.7311
14845TIP3   OH266025   0.814   3.499  16.057 -0.0659  0.2869  0.0099
14845TIP3    H166026   0.901   3.522  16.025  0.4342 -2.5605 -1.0062
14845TIP3    H266027   0.764   3.478  15.979 -0.3891 -1.9376  0.7345
14846TIP3   OH266028   1.751   4.864   6.115 -0.1761 -0.4156 -0.6768
14846TIP3    H166029   1.779   4.851   6.024  1.5598  2.3191 -0.6586
14846TIP3    H266030   1.830   4.855   6.167 -0.6876  0.3168  0.2766
14847TIP3   OH266031   1.049   1.261   4.815  0.2852 -0.1732 -0.2104
14847TIP3    H166032   1.096   1.322   4.758  0.3790 -0.8298 -0.8388
14847TIP3    H266033   1.113   1.237   4.882  0.3641  0.1156 -0.1770
14848TIP3   OH266034   4.655   3.253  10.811 -0.1905 -0.1304  0.4629
14848TIP3    H166035   4.576   3.303  10.789 -0.5750 -0.7416  0.4152
14848TIP3    H266036   4.641   3.168  10.770 -0.3097 -0.8487  1.9105
14849TIP3   OH266037   4.065   0.853  16.391 -0.4602 -0.3699 -0.1881
14849TIP3    H166038   4.094   0.868  16.301 -0.3642 -1.0099 -0.2684
14849TIP3    H266039   4.136   0.803  16.431  0.2634  1.3397  0.7440
14850TIP3   OH266040   6.770   1.934   5.597  0.5362 -0.0053  0.1217
14850TIP3    H166041   6.816   1.944   5.681 -0.1418  3.2314  0.2415
14850TIP3    H266042   6.839   1.908   5.535  1.4149 -0.5998  1.2908
14851TIP3   OH266043   6.162   2.240  13.143 -0.6690 -1.0172 -0.0874
14851TIP3    H166044   6.122   2.161  13.107  0.1807 -1.5030 -0.0053
14851TIP3    H266045   6.257   2.225  13.135 -0.4743 -0.5133  0.9836
14852TIP3   OH266046   5.670   2.135   3.287 -0.3948  0.0770 -0.0887
14852TIP3    H166047   5.627   2.109   3.206  1.4845 -1.6955 -0.6255
14852TIP3    H266048   5.689   2.052   3.332  0.1368  0.9216  1.3418
14853TIP3   OH266049   0.229   4.923   5.106  0.1663  0.0865  0.3709
14853TIP3    H166050   0.287   4.986   5.062  0.5753  0.0070  0.7838
14853TIP3    H266051   0.289   4.859   5.145 -0.2430 -0.5028  0.0500
14854TIP3   OH266052   3.171   5.763   4.507 -0.0207 -0.4982  0.4276
14854TIP3    H166053   3.207   5.686   4.552 -0.7722 -1.4366 -0.5151
14854TIP3    H266054   3.133   5.727   4.427 -0.0114  0.9324 -0.2389
14855TIP3   OH266055   0.397   2.355   6.018 -0.6572 -0.3031  0.0012
14855TIP3    H166056   0.413   2.389   5.930  2.3267 -0.3841  0.4150
14855TIP3    H266057   0.385   2.433   6.072 -0.3622 -0.1683 -0.1262
14856TIP3   OH266058   4.885   3.414   5.549  0.6031  0.3648 -0.2708
14856TIP3    H166059   4.799   3.446   5.524  1.1152  1.0518 -1.2318
14856TIP3    H266060   4.919   3.481   5.609  0.5286  0.1779 -0.0210
14857TIP3   OH266061   5.022   0.056   0.145  0.1883  0.4147 -0.3576
14857TIP3    H166062   5.049   0.035   0.234  0.5109 -2.4588 -1.0242
14857TIP3    H266063   4.926   0.052   0.148  0.0925 -4.2564 -0.8300
14858TIP3   OH266064   6.436   3.836   0.492  0.2871 -0.2760  0.0629
14858TIP3    H166065   6.373   3.782   0.446 -0.4517  0.3077  0.3731
14858TIP3    H266066   6.388   3.871   0.567  0.3117  1.9515 -0.8843
14859TIP3   OH266067   4.453   4.069  11.553  0.2611 -0.1383  0.0823
14859TIP3    H166068   4.388   4.079  11.485  1.0917 -0.3480 -0.7635
14859TIP3    H266069   4.414   4.111  11.630 -0.0999  1.4320 -0.9018
14860TIP3   OH266070   5.912   2.577  13.754 -0.2029 -0.2925  0.2285
14860TIP3    H166071   5.974   2.559  13.825  0.8456 -0.9763 -0.8193
14860TIP3    H266072   5.956   2.544  13.676 -1.0935  0.9444 -0.8316
14861TIP3   OH266073   0.850   5.782   1.669  0.3325  0.1269  0.5997
14861TIP3    H166074   0.826   5.802   1.759 -0.8391  1.1261  0.0947
14861TIP3    H266075   0.915   5.848   1.645  0.2176  0.2139  0.5283
14862TIP3   OH266076   5.531   5.470  14.061 -0.0685 -0.6032 -0.2192
14862TIP3    H166077   5.559   5.517  14.140  1.4381 -0.9808 -0.4876
14862TIP3    H266078   5.532   5.378  14.087  1.8260 -0.8544 -1.0206
14863TIP3   OH266079   3.853   2.760  10.363  0.6087  0.0631 -0.2107
14863TIP3    H166080   3.871   2.667  10.378 -0.4189 -0.5117 -2.1838
14863TIP3    H266081   3.881   2.803  10.444  1.7828 -1.8597  0.4844
14864TIP3   OH266082   5.851   1.942   5.518  0.4043  0.2931 -0.4951
14864TIP3    H166083   5.778   1.881   5.509  1.6481 -1.7835  1.9864
14864TIP3    H266084   5.812   2.021   5.556 -0.6024 -0.7564  0.7412
14865TIP3   OH266085   1.405   0.275   5.520  0.2765  0.1179 -0.7312
14865TIP3    H166086   1.417   0.340   5.451  0.5117  2.3419  1.2518
14865TIP3    H266087   1.391   0.327   5.599  4.1727 -2.1159  1.7693
14866TIP3   OH266088   1.629   3.855   3.845  0.3287  0.4951 -0.0468
14866TIP3    H166089   1.612   3.761   3.843 -0.4235  0.6167  0.3642
14866TIP3    H266090   1.601   3.883   3.932  1.2317  0.9799  0.1024
14867TIP3   OH266091   1.185   1.736  12.307 -0.2200  0.3353 -0.1402
14867TIP3    H166092   1.232   1.653  12.298 -0.8472  0.0662 -1.1582
14867TIP3    H266093   1.245   1.793  12.356  1.0801 -0.0686 -1.1940
14868TIP3   OH266094   4.085   5.464   0.307 -0.4292 -0.1617 -0.4466
14868TIP3    H166095   4.019   5.466   0.238  0.5524 -0.0944 -1.3959
14868TIP3    H266096   4.160   5.419   0.269  0.7823  1.4043 -0.0407
14869TIP3   OH266097   0.380   5.171  16.717  0.5909 -0.2350 -0.0575
14869TIP3    H166098   0.346   5.239  16.775 -0.4004 -0.2457 -0.5936
14869TIP3    H266099   0.305   5.113  16.702  1.0704 -0.7186 -0.6484
14870TIP3   OH266100   1.512   0.841  16.346  0.2792 -0.0227  0.1389
14870TIP3    H166101   1.422   0.859  16.318  0.1726  0.2141  0.6285
14870TIP3    H266102   1.565   0.861  16.269  0.2266  2.9333  0.7425
14871TIP3   OH266103   4.652   4.055   4.644  0.0685  0.1062  0.9423
14871TIP3    H166104   4.720   4.115   4.673  1.2379 -0.7157  0.0333
14871TIP3    H266105   4.671   3.973   4.690 -1.6223  0.4391  2.3243
14872TIP3   OH266106   4.853   1.211   2.800 -0.0848  0.0508  1.0410
14872TIP3    H166107   4.871   1.118   2.811 -0.4644 -0.0156  1.0941
14872TIP3    H266108   4.895   1.234   2.716 -0.5964 -0.3237  0.6796
14873TIP3   OH266109   0.538   2.932   5.147  0.0983 -0.1353  0.3487
14873TIP3    H166110   0.452   2.929   5.188  0.0609 -1.5680  0.2311
14873TIP3    H266111   0.589   2.991   5.202 -0.7255  0.1079  0.8708
14874TIP3   OH266112   1.745   5.497   1.036  0.5038 -0.2081  0.6939
14874TIP3    H166113   1.788   5.467   0.956 -0.3586 -0.2081  0.2217
14874TIP3    H266114   1.777   5.437   1.104  0.8218 -0.5514  0.2506
14875TIP3   OH266115   5.756   3.571   4.066 -0.4695  0.0363  0.5313
14875TIP3    H166116   5.849   3.594   4.067 -0.6721  1.1161 -1.3200
14875TIP3    H266117   5.747   3.507   4.137  1.0243  2.2722  2.9147
14876TIP3   OH266118   0.809   6.032  13.647 -0.7926  0.0090  0.0176
14876TIP3    H166119   0.832   6.059  13.736 -1.8136 -2.7688  1.2190
14876TIP3    H266120   0.717   6.055  13.637 -1.1306 -1.1549  0.3245
14877TIP3   OH266121   5.045   3.160  13.789  0.4066 -0.2933 -0.9364
14877TIP3    H166122   5.009   3.150  13.877 -0.3504 -1.0806 -1.3097
14877TIP3    H266123   4.979   3.212  13.742  1.1221  0.6888 -0.8575
14878TIP3   OH266124   1.140   4.261  15.899 -0.4984 -0.0244  0.4275
14878TIP3    H166125   1.167   4.352  15.887 -0.4713  0.4800  3.5015
14878TIP3    H266126   1.045   4.265  15.900 -0.4942  0.0579  0.9218
14879TIP3   OH266127   5.508   6.682  10.746 -0.3864 -0.2679  0.1200
14879TIP3    H166128   5.477   6.666  10.835 -3.2163  0.1673 -0.6925
14879TIP3    H266129   5.453   6.755  10.715 -1.2766 -2.0394 -2.7916
14880TIP3   OH266130   5.852   1.812   2.797 -0.0405  0.0756  0.3045
14880TIP3    H166131   5.844   1.895   2.750  0.3746 -0.7822 -1.3734
14880TIP3    H266132   5.762   1.782   2.811 -0.2694 -1.3177 -3.1638
14881TIP3   OH266133   4.866   4.863  14.362 -0.0864  0.5780 -0.0009
14881TIP3    H166134   4.786   4.817  14.388  0.5628 -0.1326  0.8007
14881TIP3    H266135   4.932   4.793  14.354  0.7018  1.2711  0.3558
14882TIP3   OH266136   2.985   3.235  13.020  0.3621  0.0015  0.2011
14882TIP3    H166137   3.010   3.180  13.094  0.1494 -1.3582 -0.7046
14882TIP3    H266138   3.033   3.198  12.946  0.3839  1.1888 -0.4068
14883TIP3   OH266139   4.021   4.758   1.641 -0.3587  0.5623  0.0939
14883TIP3    H166140   4.020   4.763   1.737 -0.2563  0.0114  0.1258
14883TIP3    H266141   4.031   4.665   1.622  0.3566  0.7419 -0.4484
14884TIP3   OH266142   6.590   2.775  15.874 -0.3256  0.3782 -0.2296
14884TIP3    H166143   6.590   2.845  15.810  0.1116  1.7519  1.2015
14884TIP3    H266144   6.633   2.813  15.951 -1.3818 -0.9846  1.0954
14885TIP3   OH266145   3.958   1.924  12.185  0.4061 -0.4398 -0.6553
14885TIP3    H166146   3.970   1.950  12.093 -0.8774  0.9545 -0.4773
14885TIP3    H266147   3.961   2.007  12.233  1.7222 -1.2237  0.6600
14886TIP3   OH266148   1.173   5.451   2.043  0.4250  0.0553  0.0397
14886TIP3    H166149   1.204   5.534   2.079 -0.1819  0.9299 -1.3605
14886TIP3    H266150   1.103   5.477   1.982  0.3874 -1.4665 -0.5901
14887TIP3   OH266151   4.097   1.072  15.799  0.2672 -0.6950 -0.2925
14887TIP3    H166152   4.146   1.134  15.744 -0.1904  0.2677  0.3456
14887TIP3    H266153   4.096   1.113  15.886  1.0167 -2.2108  0.4643
14888TIP3   OH266154   3.133   1.405  13.190 -0.4873 -0.1874 -0.5408
14888TIP3    H166155   3.129   1.327  13.135 -2.3279  0.1992 -1.0243
14888TIP3    H266156   3.128   1.372  13.279 -0.7161 -0.6481 -0.7227
14889TIP3   OH266157   3.663   3.915   1.260 -0.3070  0.9701  0.2649
14889TIP3    H166158   3.690   4.004   1.240  0.2676  0.7617  0.0820
14889TIP3    H266159   3.745   3.865   1.263 -0.6817  0.2772 -0.5193
14890TIP3   OH266160   3.095   2.997  13.623 -0.0743 -0.4881  0.1746
14890TIP3    H166161   3.119   2.944  13.547  0.7334 -0.1213  0.1592
14890TIP3    H266162   3.151   2.965  13.694  0.7746  0.6310  0.0450
14891TIP3   OH266163   3.423   0.243  14.709 -0.3172 -0.1190 -0.7300
14891TIP3    H166164   3.409   0.297  14.787  0.8116  1.4349 -1.5414
14891TIP3    H266165   3.504   0.278  14.671  0.1541 -2.0659 -1.6056
14892TIP3   OH266166   3.530   4.203   3.055 -0.1583 -0.2174 -0.3391
14892TIP3    H166167   3.466   4.211   3.127  2.2409 -0.9234  2.0180
14892TIP3    H266168   3.565   4.291   3.045  0.7508 -0.4640  0.6029
14893TIP3   OH266169   1.228   0.261  14.767  0.1394 -0.3273 -0.3421
14893TIP3    H166170   1.153   0.215  14.730 -0.6657 -0.3257  1.2016
14893TIP3    H266171   1.260   0.316  14.695 -0.6534 -1.1526 -1.3513
14894TIP3   OH266172   5.683   4.914   1.566  0.2967 -0.6076 -0.1771
14894TIP3    H166173   5.771   4.919   1.530  0.3498 -2.0658 -0.3044
14894TIP3    H266174   5.626   4.930   1.490  0.4297 -2.3767 -0.6870
14895TIP3   OH266175   1.743   5.567   3.289  0.2416 -0.5733  0.7864
14895TIP3    H166176   1.816   5.621   3.258  1.1652 -2.1056  0.1566
14895TIP3    H266177   1.706   5.616   3.361  0.6121  1.2038 -0.1731
14896TIP3   OH266178   1.112   4.603  15.283  0.0760  0.4278 -0.0068
14896TIP3    H166179   1.187   4.548  15.264 -0.0328 -0.1237  1.0577
14896TIP3    H266180   1.045   4.542  15.315 -0.4171  1.0453  0.1651
14897TIP3   OH266181   1.786   2.655   1.562 -0.1100  0.1512  0.0984
14897TIP3    H166182   1.863   2.602   1.540  0.6237  1.3991 -0.4604
14897TIP3    H266183   1.796   2.673   1.656 -0.8419 -1.3977  0.5098
14898TIP3   OH266184   5.350   3.295   2.485  0.1768 -0.6525  0.0143
14898TIP3    H166185   5.311   3.275   2.570 -1.1144 -1.3369 -0.6962
14898TIP3    H266186   5.388   3.212   2.456 -2.5210 -1.4329 -1.6027
14899TIP3   OH266187   0.490   4.118   5.402 -0.1387  0.5596  0.9389
14899TIP3    H166188   0.556   4.182   5.427  1.4052 -0.6926  0.2182
14899TIP3    H266189   0.478   4.131   5.308 -0.1097  0.0587  0.8620
14900TIP3   OH266190   3.082   3.460   2.231 -0.1896 -0.6606  0.2226
14900TIP3    H166191   3.104   3.497   2.316 -0.4627 -0.1142  0.0572
14900TIP3    H266192   3.021   3.523   2.192 -2.7399 -2.4626  1.0004
14901TIP3   OH266193   3.488   3.396  15.398 -0.0479  0.2892  0.7963
14901TIP3    H166194   3.398   3.416  15.373 -0.2007 -0.7997  0.3965
14901TIP3    H266195   3.479   3.328  15.466  0.4705 -0.3331  0.2590
14902TIP3   OH266196   0.666   6.530   2.092  1.2974 -0.2333 -0.4039
14902TIP3    H166197   0.675   6.624   2.074  0.7531 -0.3139 -1.1748
14902TIP3    H266198   0.734   6.511   2.156 -0.0797  1.1732  1.5827
14903TIP3   OH266199   1.639   1.435  12.410  0.1368  0.2449  0.1145
14903TIP3    H166200   1.597   1.363  12.363  1.1810 -0.5612  0.3839
14903TIP3    H266201   1.711   1.462  12.354  2.3962 -1.7747  1.8277
14904TIP3   OH266202   0.348   1.965   2.080  0.3306 -0.8949  0.1769
14904TIP3    H166203   0.281   2.031   2.062  0.6119 -1.0021 -1.3554
14904TIP3    H266204   0.309   1.910   2.148  0.1980  0.9711  1.6862
14905TIP3   OH266205   6.675   4.811   3.836 -0.0887  0.2471 -0.0440
14905TIP3    H166206   6.686   4.757   3.758  0.2263  0.6089 -0.2565
14905TIP3    H266207   6.724   4.891   3.817 -1.3506  1.0154 -0.1203
14906TIP3   OH266208   0.617   6.686  14.326  0.2509  0.0268  0.4109
14906TIP3    H166209   0.706   6.682  14.291  1.1462 -0.7794  2.6007
14906TIP3    H266210   0.628   6.684  14.421 -2.1323 -1.0769  0.7553
14907TIP3   OH266211   2.648   4.754   6.142 -0.6531  0.4107 -0.1508
14907TIP3    H166212   2.712   4.711   6.199  0.4977  2.8983  0.5872
14907TIP3    H266213   2.563   4.731   6.180  0.0552  1.3759  2.2037
14908TIP3   OH266214   2.404   1.482   1.993 -0.2497  0.0298  0.6546
14908TIP3    H166215   2.393   1.404   1.938  0.5454  0.9270 -0.8236
14908TIP3    H266216   2.460   1.453   2.064 -0.4255 -0.8844  0.4375
14909TIP3   OH266217   4.817   6.037  16.244  0.1611 -0.2004 -0.0341
14909TIP3    H166218   4.763   5.991  16.308 -0.3609 -1.0011 -1.0283
14909TIP3    H266219   4.835   6.122  16.285 -1.4686 -0.0813  0.5240
14910TIP3   OH266220   6.627   3.569  11.676 -0.3097  0.1818  0.3429
14910TIP3    H166221   6.638   3.500  11.741  2.1090 -0.0244 -0.1762
14910TIP3    H266222   6.712   3.614  11.674 -1.1609  1.8445 -0.8070
14911TIP3   OH266223   2.869   4.999  14.398  0.1665 -0.1349  0.1218
14911TIP3    H166224   2.958   4.964  14.408  1.3479  1.7856 -2.4757
14911TIP3    H266225   2.881   5.094  14.394 -2.0571  0.1947  0.0317
14912TIP3   OH266226   4.906   6.785  15.518 -0.1219 -0.1274 -0.2454
14912TIP3    H166227   4.826   6.811  15.564 -0.1618 -0.5949 -0.0429
14912TIP3    H266228   4.976   6.832  15.563 -0.0039 -1.5342  1.1490
14913TIP3   OH266229   1.238   4.169  15.545  0.1917  0.0665 -0.1751
14913TIP3    H166230   1.283   4.091  15.579 -0.5192  0.3554  1.5589
14913TIP3    H266231   1.216   4.219  15.624 -2.6136  0.2378 -0.9617
14914TIP3   OH266232   0.131   3.040  17.154  0.3894 -0.9933  0.4636
14914TIP3    H166233   0.063   3.093  17.112 -0.4671 -0.7746  2.0675
14914TIP3    H266234   0.191   3.017  17.082 -0.4063  0.2919 -0.6588
14915TIP3   OH266235   5.720   4.045   3.699 -0.0310 -0.1978  0.5397
14915TIP3    H166236   5.691   4.083   3.782 -0.6272 -1.6299  1.0303
14915TIP3    H266237   5.756   3.960   3.723 -0.7950 -0.9137 -0.7123
14916TIP3   OH266238   5.903   3.639  14.417 -0.0782 -0.2311 -0.2267
14916TIP3    H166239   5.961   3.570  14.449 -0.2442 -0.2948 -0.0542
14916TIP3    H266240   5.893   3.621  14.324  0.0610 -0.3085 -0.2259
14917TIP3   OH266241   6.053   3.020  13.540 -0.1283 -0.2781  0.0548
14917TIP3    H166242   6.061   3.076  13.617  0.5260  1.9078 -1.5179
14917TIP3    H266243   6.142   2.992  13.522  0.1077  1.1578 -1.2178
14918TIP3   OH266244   5.031   0.317  14.859 -0.0838  0.0390  0.0838
14918TIP3    H166245   5.055   0.302  14.950 -0.6830  0.3814  0.3055
14918TIP3    H266246   4.967   0.389  14.862 -0.3009 -0.1139 -0.5809
14919TIP3   OH266247   3.432   3.983  16.321 -0.5312 -0.1305  0.2020
14919TIP3    H166248   3.467   4.064  16.284 -0.7908 -0.2123 -0.2205
14919TIP3    H266249   3.377   3.946  16.252 -0.3102 -0.7371  0.3453
14920TIP3   OH266250   4.187   1.901   1.063 -0.0238 -0.6156  0.0622
14920TIP3    H166251   4.247   1.835   1.097 -1.3822 -1.7486  0.4037
14920TIP3    H266252   4.104   1.883   1.109 -0.8997  0.1976 -1.1369
14921TIP3   OH266253   6.200   1.955  12.101  0.0834 -0.2000  0.1746
14921TIP3    H166254   6.201   2.022  12.034 -1.4505 -1.3322 -1.0517
14921TIP3    H266255   6.131   1.982  12.161 -1.2001 -1.1259 -0.8461
14922TIP3   OH266256   2.980   4.102   3.855 -0.0845 -0.2820  0.0872
14922TIP3    H166257   3.026   4.033   3.901  0.1364 -0.0670  0.1898
14922TIP3    H266258   2.899   4.060   3.823  0.9488 -1.1211 -1.5642
14923TIP3   OH266259   6.309   0.237   2.495 -0.7637 -0.1045  0.7706
14923TIP3    H166260   6.235   0.296   2.482 -0.4972 -0.2642 -1.9282
14923TIP3    H266261   6.370   0.286   2.549 -1.6576  1.0525  0.7686
14924TIP3   OH266262   2.396   0.723   0.449  0.5980 -0.3509 -0.9805
14924TIP3    H166263   2.490   0.741   0.443  1.1030 -2.5566 -0.5599
14924TIP3    H266264   2.358   0.772   0.376  2.2698 -0.5221 -2.0294
14925TIP3   OH266265   1.810   4.621   5.172  0.0208  0.0612 -0.1019
14925TIP3    H166266   1.857   4.665   5.243 -0.4191 -1.2944  1.0907
14925TIP3    H266267   1.811   4.683   5.100  1.9252  0.8591  0.5359
14926TIP3   OH266268   2.092   2.329   2.280  0.0346 -0.6373 -0.1182
14926TIP3    H166269   2.027   2.294   2.342 -1.4104 -0.3561 -1.4104
14926TIP3    H266270   2.176   2.311   2.322 -0.8642  1.2214  2.8221
14927TIP3   OH266271   6.243   2.421   3.015  0.3428  0.2092 -0.3963
14927TIP3    H166272   6.242   2.335   3.055  0.7103  1.3941  2.4228
14927TIP3    H266273   6.156   2.457   3.033  0.5318  0.7826 -0.6034
14928TIP3   OH266274   4.875   0.324  11.747  0.0725 -0.1625  0.4540
14928TIP3    H166275   4.798   0.321  11.804  0.7177 -1.2584  1.3055
14928TIP3    H266276   4.889   0.234  11.720  0.3784  0.1998 -0.6607
14929TIP3   OH266277   0.075   1.377  15.216  0.6740  0.5216  0.2284
14929TIP3    H166278   0.166   1.403  15.232  0.7943  1.1256 -1.2173
14929TIP3    H266279   0.078   1.334  15.131 -0.3256  0.0995  0.4004
14930TIP3   OH266280   6.823   5.711  15.193 -0.3648  0.1729 -0.5915
14930TIP3    H166281   6.797   5.674  15.278 -0.8827  2.2675  0.2318
14930TIP3    H266282   6.749   5.693  15.135  0.3508 -2.0447 -0.9123
14931TIP3   OH266283   5.029   3.256   3.968 -0.1027 -0.4593  0.1438
14931TIP3    H166284   5.000   3.168   3.993 -0.5307 -0.1247  0.8513
14931TIP3    H266285   5.079   3.243   3.887  0.0344 -1.3774  0.3687
14932TIP3   OH266286   1.623   2.311  13.190 -0.0918  0.2407 -0.5645
14932TIP3    H166287   1.662   2.356  13.115 -2.1973  1.3271 -1.0985
14932TIP3    H266288   1.566   2.376  13.230 -0.4634 -0.9035  0.8598
14933TIP3   OH266289   0.910   1.298  16.216  0.3264 -0.2943 -0.3798
14933TIP3    H166290   0.971   1.257  16.276  0.2054 -0.9997 -0.7202
14933TIP3    H266291   0.941   1.387  16.206  1.4622 -0.7251 -0.7687
14934TIP3   OH266292   5.489   3.886   1.807 -0.0649 -0.3424  0.1084
14934TIP3    H166293   5.492   3.801   1.763 -0.1917 -1.0640  1.4506
14934TIP3    H266294   5.579   3.900   1.837  0.1347  0.3818 -0.7825
14935TIP3   OH266295   3.793   3.673  15.060 -0.1556 -0.4144 -0.1477
14935TIP3    H166296   3.729   3.623  15.010 -1.4000  1.4874 -0.5759
14935TIP3    H266297   3.850   3.713  14.994 -1.5288  1.7416 -0.1135
14936TIP3   OH266298   1.059   3.253  10.595  0.0985 -0.3650 -0.1754
14936TIP3    H166299   1.121   3.187  10.625 -0.0143 -0.0109  0.8782
14936TIP3    H266300   1.106   3.336  10.603  0.1951 -0.2978 -1.3586
14937TIP3   OH266301   1.497   0.929  10.934  0.4739 -0.1184  0.0480
14937TIP3    H166302   1.448   0.850  10.911  0.3556  0.8082 -3.4340
14937TIP3    H266303   1.588   0.907  10.914  0.8444 -0.2101  1.7063
14938TIP3   OH266304   1.340   3.773   6.613 -0.5167 -0.1293 -0.1406
14938TIP3    H166305   1.318   3.866   6.618 -0.4075 -0.1509  0.7777
14938TIP3    H266306   1.263   3.733   6.572 -0.5836  0.3547 -0.4972
14939TIP3   OH266307   6.145   4.393   0.240  0.1332 -0.3364 -0.1160
14939TIP3    H166308   6.088   4.406   0.165  0.9681  3.4135 -0.2958
14939TIP3    H266309   6.229   4.369   0.202  0.6333  1.8365 -0.5421
14940TIP3   OH266310   4.053   5.396  10.357  0.5123 -0.7521  0.1193
14940TIP3    H166311   4.148   5.382  10.358  0.4121 -1.7162 -1.0775
14940TIP3    H266312   4.017   5.312  10.330 -0.5613  0.0865 -1.2020
14941TIP3   OH266313   4.315   1.113   6.339 -0.1573 -0.3236 -0.5853
14941TIP3    H166314   4.262   1.115   6.418 -1.7844 -0.4662 -1.6149
14941TIP3    H266315   4.405   1.118   6.370 -0.6552 -1.9562  1.3559
14942TIP3   OH266316   3.031   1.238   3.133 -0.1511 -0.3144  0.1104
14942TIP3    H166317   2.967   1.233   3.203  0.7746 -0.2435  0.9809
14942TIP3    H266318   3.093   1.305   3.161 -0.0587  0.0930 -1.0231
14943TIP3   OH266319   5.679   1.853  14.499  0.6382  0.2252 -0.1392
14943TIP3    H166320   5.714   1.895  14.420 -0.8192  0.7721 -0.5352
14943TIP3    H266321   5.701   1.761  14.490  0.1825  0.2246 -1.3746
14944TIP3   OH266322   3.701   1.112   2.621 -0.0077  0.3859  0.5764
14944TIP3    H166323   3.727   1.028   2.660 -0.7828  0.9504  2.4490
14944TIP3    H266324   3.735   1.178   2.681 -1.4432  1.3036  0.4382
14945TIP3   OH266325   5.403   1.809   3.427 -0.4233 -0.4116  0.8801
14945TIP3    H166326   5.363   1.815   3.340  0.8017  0.6591  0.3568
14945TIP3    H266327   5.420   1.900   3.452  1.8652 -0.7875  0.9425
14946TIP3   OH266328   6.626   3.342  12.775  0.0611 -0.4723  0.9237
14946TIP3    H166329   6.555   3.403  12.755  0.2857 -0.8002 -1.0642
14946TIP3    H266330   6.584   3.256  12.777  0.3198 -0.6146  0.2608
14947TIP3   OH266331   4.446   1.190   3.810 -0.6971 -0.2770  0.2425
14947TIP3    H166332   4.371   1.160   3.861 -1.4805 -1.5389 -1.5380
14947TIP3    H266333   4.450   1.129   3.736  3.5355 -1.7861  1.4341
14948TIP3   OH266334   2.784   4.232  11.593 -0.2349  0.0053 -0.3451
14948TIP3    H166335   2.794   4.137  11.586 -0.6725 -0.0448 -0.2912
14948TIP3    H266336   2.834   4.266  11.519 -0.6632 -0.3018 -0.7858
14949TIP3   OH266337   6.041   2.338   0.609  0.3647 -0.1019 -0.4154
14949TIP3    H166338   6.013   2.246   0.616 -0.7609  0.3231  1.3663
14949TIP3    H266339   6.063   2.349   0.516  0.5537 -2.1652 -0.6665
14950TIP3   OH266340   2.002   4.123   5.737  0.2014 -1.3547  0.7742
14950TIP3    H166341   1.994   4.067   5.814  0.7720  0.1216  1.9427
14950TIP3    H266342   2.014   4.061   5.665  0.0673 -2.7619  1.9049
14951TIP3   OH266343   6.211   0.672  14.373  0.2677  0.3247 -0.1199
14951TIP3    H166344   6.174   0.585  14.357 -0.5579  0.8745 -1.3993
14951TIP3    H266345   6.262   0.691  14.294 -0.4451  1.4370 -0.3320
14952TIP3   OH266346   5.910   5.006  13.346 -0.2336  0.3769 -0.2475
14952TIP3    H166347   5.829   4.959  13.362  0.3014 -0.8964 -1.1781
14952TIP3    H266348   5.920   5.006  13.251  1.4734 -0.6073 -0.1123
14953TIP3   OH266349   2.520   3.260   3.765 -0.7009  0.6349  0.7237
14953TIP3    H166350   2.482   3.331   3.816 -0.0986 -0.2207  2.4468
14953TIP3    H266351   2.520   3.185   3.824  0.7043 -0.2280 -0.2936
14954TIP3   OH266352   2.385   0.304  14.849 -0.2600 -0.7987  0.1603
14954TIP3    H166353   2.409   0.244  14.920 -0.2347 -0.9970 -0.0173
14954TIP3    H266354   2.314   0.356  14.886 -0.2889 -0.9428  0.3122
14955TIP3   OH266355   4.259   2.559  15.553 -0.2778  0.7029 -0.1718
14955TIP3    H166356   4.273   2.641  15.602 -0.7459  0.3725  0.5346
14955TIP3    H266357   4.209   2.585  15.476  1.0669  1.3452 -0.8663
14956TIP3   OH266358   2.419   0.080   4.199  0.4581  0.1912  0.2722
14956TIP3    H166359   2.361   0.019   4.153 -0.7682  1.3354  0.2376
14956TIP3    H266360   2.505   0.040   4.194 -0.4010 -1.8887  0.8384
14957TIP3   OH266361   6.757   3.962  11.193 -0.4040 -0.3187  0.1113
14957TIP3    H166362   6.666   3.942  11.170 -0.6403  0.5683  0.2559
14957TIP3    H266363   6.799   3.981  11.109 -0.6400  0.4113  0.1550
14958TIP3   OH266364   6.071   3.241   3.943  0.3538 -0.0239  0.0314
14958TIP3    H166365   6.073   3.146   3.956  0.2654  0.0661  0.7330
14958TIP3    H266366   6.151   3.260   3.893  0.0920 -0.5311 -0.5896
14959TIP3   OH266367   3.136   0.943   5.960  0.3692 -0.1044  0.2111
14959TIP3    H166368   3.125   0.931   6.054  3.1397 -0.1506  0.6207
14959TIP3    H266369   3.220   0.990   5.952  0.5468 -0.7180 -2.2533
14960TIP3   OH266370   6.028   3.939  14.236  0.0487  0.6269  0.2758
14960TIP3    H166371   6.021   3.850  14.200  0.1913 -0.3814  2.5581
14960TIP3    H266372   6.104   3.936  14.293  0.3775  2.4060 -0.0067
14961TIP3   OH266373   5.065   6.122   0.441  0.8711 -0.5339 -0.6796
14961TIP3    H166374   5.017   6.043   0.416  1.6608 -1.0545 -0.6193
14961TIP3    H266375   5.056   6.126   0.537  0.0941 -0.0514 -0.7698
14962TIP3   OH266376   4.450   5.378  12.837  0.1022 -0.4339  0.1037
14962TIP3    H166377   4.537   5.416  12.826  0.1120 -0.9077 -2.1148
14962TIP3    H266378   4.408   5.430  12.905  0.8241  2.2307 -1.3671
14963TIP3   OH266379   4.509   1.583  16.551 -0.6640 -0.1036 -0.7416
14963TIP3    H166380   4.431   1.543  16.513  1.6819 -4.7303 -1.4364
14963TIP3    H266381   4.547   1.635  16.481 -1.1308 -1.0574 -1.7298
14964TIP3   OH266382   3.504   3.580  16.435  0.2019 -0.0927  0.0562
14964TIP3    H166383   3.455   3.524  16.375 -0.2381  1.3238 -0.9750
14964TIP3    H266384   3.450   3.586  16.513  1.5790 -3.3871  1.4266
14965TIP3   OH266385   1.900   2.689  11.323  0.2160 -0.3546 -0.0113
14965TIP3    H166386   1.845   2.612  11.313 -1.6327  1.0957 -1.9905
14965TIP3    H266387   1.976   2.658  11.372 -0.5338 -3.3468 -0.5395
14966TIP3   OH266388   5.637   2.686   1.039  0.5116  0.0569 -1.1821
14966TIP3    H166389   5.611   2.719   1.125  0.5740 -0.7857 -0.8313
14966TIP3    H266390   5.715   2.634   1.056  0.0373 -0.8157 -1.6156
14967TIP3   OH266391   2.360   6.566  11.048  0.7740 -0.0119  0.1426
14967TIP3    H166392   2.266   6.551  11.033  0.6684 -0.9914  1.5485
14967TIP3    H266393   2.376   6.654  11.015 -0.8766  0.5780  0.8278
14968TIP3   OH266394   6.216   2.942   2.502  0.2912 -0.6093  0.0098
14968TIP3    H166395   6.153   2.999   2.546  0.9007 -0.6318  0.9575
14968TIP3    H266396   6.184   2.935   2.413  0.7129  2.0452 -0.4459
14969TIP3   OH266397   4.922   1.840  13.886 -0.5273  0.9149 -0.1991
14969TIP3    H166398   4.865   1.881  13.822 -0.7722  0.5086 -0.2429
14969TIP3    H266399   5.010   1.853  13.851 -0.6398  0.9492 -0.4698
14970TIP3   OH266400   1.516   4.475   1.290 -0.2173  0.6976 -0.2260
14970TIP3    H166401   1.603   4.501   1.259  0.5454 -0.1068  1.1671
14970TIP3    H266402   1.485   4.551   1.340  0.6103  0.2349  1.0495
14971TIP3   OH266403   4.618   2.874  12.717  0.6218 -0.2101  0.0246
14971TIP3    H166404   4.645   2.812  12.785  0.7494  0.0177  0.1851
14971TIP3    H266405   4.564   2.938  12.763 -0.5663 -0.9007 -0.3776
14972TIP3   OH266406   4.994   4.729   3.980 -0.3021  1.0194  0.1948
14972TIP3    H166407   4.939   4.746   3.903  1.7372  2.8416 -0.9488
14972TIP3    H266408   5.036   4.646   3.962 -1.2008  0.5466  0.2122
14973TIP3   OH266409   5.727   5.421  14.326 -0.6112  0.2842  0.2502
14973TIP3    H166410   5.672   5.494  14.353 -0.7843 -0.0242  0.7475
14973TIP3    H266411   5.774   5.453  14.250 -0.2359  1.1294  0.8192
14974TIP3   OH266412   5.300   2.425   6.755 -0.1239  0.3496  0.1663
14974TIP3    H166413   5.254   2.343   6.772  0.1152 -0.1172 -1.3462
14974TIP3    H266414   5.247   2.492   6.799 -0.8525 -0.4895  0.5816
14975TIP3   OH266415   0.591   3.347  14.706 -0.4275  1.0889  0.1704
14975TIP3    H166416   0.509   3.315  14.668  0.5504  0.4289 -1.4637
14975TIP3    H266417   0.596   3.439  14.677  0.1083  0.7074 -1.0048
14976TIP3   OH266418   1.200   6.008  15.712 -0.4527 -0.2287 -0.5677
14976TIP3    H166419   1.288   5.972  15.702 -0.8923 -1.7433  0.5960
14976TIP3    H266420   1.205   6.065  15.788 -0.3911 -0.0440 -0.7113
14977TIP3   OH266421   6.029   4.083  14.802  0.1865  0.0826 -0.0085
14977TIP3    H166422   5.951   4.045  14.761  1.4307 -0.9731 -1.4874
14977TIP3    H266423   6.014   4.177  14.799 -0.6814 -0.0697 -1.0177
14978TIP3   OH266424   1.348   2.667   0.653 -0.0613  0.2201  0.7412
14978TIP3    H166425   1.306   2.681   0.568  0.1269  2.7210  0.9777
14978TIP3    H266426   1.442   2.668   0.634 -0.0192  0.7788  0.9671
14979TIP3   OH266427   1.665   0.624  16.445 -0.1089  0.3804  0.1091
14979TIP3    H166428   1.637   0.571  16.371 -1.0003 -0.1001  0.7677
14979TIP3    H266429   1.627   0.710  16.430  0.6413  0.6070 -0.5413
14980TIP3   OH266430   0.106   0.079   2.358 -0.3793  0.3329 -0.2372
14980TIP3    H166431   0.088   0.106   2.268  0.0632 -0.3470 -0.5325
14980TIP3    H266432   0.020   0.058   2.395 -0.7131  1.8439 -0.0810
14981TIP3   OH266433   4.974   4.017  13.106  0.0979 -0.1599  0.0172
14981TIP3    H166434   4.961   3.939  13.052  2.8074 -1.8638  1.5971
14981TIP3    H266435   4.901   4.016  13.169 -0.4142 -0.8573 -0.5763
14982TIP3   OH266436   3.462   5.578  15.970 -0.1322 -0.2834 -1.0520
14982TIP3    H166437   3.459   5.500  16.025  3.7905  1.1495  1.6301
14982TIP3    H266438   3.499   5.549  15.887 -0.2505 -1.5322 -0.6762
14983TIP3   OH266439   2.553   1.451  10.611 -0.0511  0.0125  0.0590
14983TIP3    H166440   2.532   1.508  10.686 -1.5615  0.1726 -0.4423
14983TIP3    H266441   2.526   1.364  10.640 -0.5379  0.0571 -0.2525
14984TIP3   OH266442   4.506   5.945   2.044 -0.5042  0.3275  0.0757
14984TIP3    H166443   4.511   5.902   2.129  0.6877 -1.2881 -0.7524
14984TIP3    H266444   4.597   5.964   2.021 -0.8837  1.7002 -0.4019
14985TIP3   OH266445   5.597   4.323  10.807 -0.5863 -0.0031  0.0872
14985TIP3    H166446   5.598   4.315  10.902  1.0404  2.0389  0.3022
14985TIP3    H266447   5.598   4.417  10.791  0.9666 -0.3113 -1.9550
14986TIP3   OH266448   4.996   0.660  13.001 -0.2600  0.1639 -0.2287
14986TIP3    H166449   4.905   0.688  13.010 -0.4430 -0.7791  1.3625
14986TIP3    H266450   5.046   0.720  13.057  0.1240  0.7069 -1.1292
14987TIP3   OH266451   0.948   6.339  16.799 -0.2061  0.5002 -0.1465
14987TIP3    H166452   1.022   6.392  16.828 -1.9079  2.0641  1.5977
14987TIP3    H266453   0.962   6.254  16.839  0.9289  0.5922 -0.3128
14988TIP3   OH266454   0.587   5.651  14.015 -0.1289  0.2413  0.0007
14988TIP3    H166455   0.620   5.662  14.104  1.7521 -1.9043 -0.3448
14988TIP3    H266456   0.648   5.702  13.960  1.2787 -1.7539 -0.3961
14989TIP3   OH266457   1.124   1.888  15.743  0.4396  0.0541 -0.2302
14989TIP3    H166458   1.138   1.844  15.660 -1.4299  2.0109 -1.6950
14989TIP3    H266459   1.034   1.864  15.768  0.6075  0.3306  0.6650
14990TIP3   OH266460   2.768   3.781  12.516 -0.0179 -0.1127  0.3087
14990TIP3    H166461   2.731   3.864  12.488  0.9143 -0.0576 -0.8695
14990TIP3    H266462   2.780   3.790  12.610  0.1862  1.1336  0.1812
14991TIP3   OH266463   0.545   2.886   4.361 -0.2337 -0.2103 -1.0660
14991TIP3    H166464   0.551   2.982   4.365 -2.1441 -0.1023  0.3411
14991TIP3    H266465   0.592   2.856   4.438  1.1933 -0.4920 -2.0145
14992TIP3   OH266466   5.647   1.139   2.965  0.0890 -0.3815  0.0241
14992TIP3    H166467   5.606   1.121   2.880  0.5721 -0.8238 -0.1236
14992TIP3    H266468   5.731   1.180   2.943  0.7182 -1.5118  0.2397
14993TIP3   OH266469   5.655   2.412   1.397  0.4076 -0.3228  0.4881
14993TIP3    H166470   5.594   2.386   1.329 -2.8868  3.1840  1.7455
14993TIP3    H266471   5.730   2.448   1.349 -0.8042 -0.0181 -1.2716
14994TIP3   OH266472   4.607   3.786  11.453  0.8280  0.1209  0.2827
14994TIP3    H166473   4.602   3.749  11.541  0.8302  0.3156  0.3641
14994TIP3    H266474   4.522   3.829  11.441  1.7011  2.1894  1.1181
14995TIP3   OH266475   0.280   0.346   6.676  0.1237  0.2779 -0.0018
14995TIP3    H166476   0.246   0.304   6.597  2.2814  1.3535 -1.5917
14995TIP3    H266477   0.217   0.416   6.695 -0.7825 -0.4278 -0.3512
14996TIP3   OH266478   3.304   2.694   4.096 -0.2745 -0.5061  0.0498
14996TIP3    H166479   3.329   2.758   4.030 -0.0133 -1.5125 -0.8548
14996TIP3    H266480   3.289   2.745   4.176 -2.1111  0.9506 -1.1401
14997TIP3   OH266481   6.626   3.068   3.703  0.1902  0.2454  0.7182
14997TIP3    H166482   6.688   3.018   3.650  1.7827  0.6412  2.1124
14997TIP3    H266483   6.624   3.155   3.663 -2.9173 -0.8584 -1.9808
14998TIP3   OH266484   1.931   0.598  14.260 -0.3953  0.4817  0.0980
14998TIP3    H166485   1.917   0.692  14.266 -1.6048  0.3656 -0.4753
14998TIP3    H266486   2.025   0.588  14.248 -0.1317  1.5570  1.0604
14999TIP3   OH266487   4.343   4.306   3.467 -0.9877  0.4049  0.4041
14999TIP3    H166488   4.277   4.371   3.444  0.3811  1.0641 -2.0511
14999TIP3    H266489   4.313   4.225   3.426 -1.3029  0.1425  1.1235
15000TIP3   OH266490   0.991   4.619  11.262 -0.5535 -0.1789 -0.7262
15000TIP3    H166491   0.947   4.606  11.346  0.8048  2.2907  0.4956
15000TIP3    H266492   0.931   4.582  11.197 -2.6577 -0.2529  1.1424
15001TIP3   OH266493   3.789   2.258   3.154  0.0940  0.2546 -0.0762
15001TIP3    H166494   3.874   2.243   3.112  0.2683  2.0337 -0.4252
15001TIP3    H266495   3.770   2.350   3.138 -0.4037  0.7277  2.7042
15002TIP3   OH266496   1.208   6.437  16.807 -0.1691  0.1816 -0.3754
15002TIP3    H166497   1.234   6.528  16.825  1.3909 -0.5012  1.2054
15002TIP3    H266498   1.267   6.408  16.738  0.6006 -0.1472  0.3967
15003TIP3   OH266499   0.866   2.418  15.787  0.7854  0.2265 -0.0762
15003TIP3    H166500   0.857   2.349  15.852  0.5661 -1.2543 -1.6214
15003TIP3    H266501   0.830   2.496  15.830  0.5650 -0.7105  1.5235
15004TIP3   OH266502   4.976   5.476  17.026 -1.0177  0.7239  0.1041
15004TIP3    H166503   5.037   5.403  17.016  1.0927  2.5071 -1.0114
15004TIP3    H266504   4.909   5.460  16.960 -2.3329 -1.6719  1.8455
15005TIP3   OH266505   4.698   3.954   1.638 -0.2903  0.0816 -0.3481
15005TIP3    H166506   4.748   3.966   1.558 -0.5273  1.2795 -0.3304
15005TIP3    H266507   4.759   3.977   1.708  0.6862 -3.1584  0.0507
15006TIP3   OH266508   3.871   5.501  14.976 -0.1804 -1.0150  0.4216
15006TIP3    H166509   3.846   5.470  15.063  2.3381 -0.2747  1.5125
15006TIP3    H266510   3.904   5.589  14.990 -2.6517  0.4108 -1.8628
15007TIP3   OH266511   5.824   6.137   6.339  0.3160  0.3418  0.7640
15007TIP3    H166512   5.806   6.077   6.411  1.6754  0.5083  1.2826
15007TIP3    H266513   5.908   6.177   6.363 -0.4185  2.2566  0.3107
15008TIP3   OH266514   5.646   4.372   2.066 -0.2781 -0.1186  0.0410
15008TIP3    H166515   5.662   4.381   2.160 -0.0013 -0.2171  0.0041
15008TIP3    H266516   5.664   4.459   2.030  0.6483 -0.3452 -0.0656
15009TIP3   OH266517   1.299   4.928   3.022  0.5412  0.3814 -0.2013
15009TIP3    H166518   1.305   4.994   3.091 -2.0754 -0.0666  0.5553
15009TIP3    H266519   1.313   4.845   3.067 -1.3928  0.0697 -0.0827
15010TIP3   OH266520   4.067   4.180   1.194  0.5757  0.1256  0.2717
15010TIP3    H166521   3.994   4.124   1.169 -0.5478  0.6314  2.2156
15010TIP3    H266522   4.139   4.119   1.210  0.0160 -0.5599  0.2177
15011TIP3   OH266523   3.278   6.602  13.376 -0.2834 -0.0102 -0.2918
15011TIP3    H166524   3.305   6.549  13.451 -0.2393  1.6115  0.8848
15011TIP3    H266525   3.227   6.541  13.322  0.8789 -1.5993  0.3039
15012TIP3   OH266526   4.087   1.601  15.191 -0.6281 -0.1696 -0.4122
15012TIP3    H166527   4.101   1.552  15.110  0.9853 -1.7219  0.7308
15012TIP3    H266528   4.148   1.675  15.184 -3.1799  1.9794 -2.2086
15013TIP3   OH266529   5.273   5.309  14.852  1.0087  0.4342  0.5010
15013TIP3    H166530   5.319   5.268  14.925  2.6357  1.1213 -0.1007
15013TIP3    H266531   5.335   5.306  14.779 -0.0191  1.1278 -0.4391
15014TIP3   OH266532   4.403   6.428   0.075  0.2046 -0.2478 -0.3322
15014TIP3    H166533   4.337   6.480   0.122  0.6703  0.2267 -0.1953
15014TIP3    H266534   4.485   6.474   0.091  0.6546 -1.1334 -0.0572
15015TIP3   OH266535   3.093   5.117   5.740  0.5780  0.1655  0.4572
15015TIP3    H166536   3.093   5.195   5.796  1.1850  1.0357 -0.7127
15015TIP3    H266537   3.032   5.139   5.669 -1.4186 -1.5264  1.5229
15016TIP3   OH266538   0.392   4.589   0.083 -0.3942  0.5136  0.1552
15016TIP3    H166539   0.452   4.537   0.029  0.2378  0.4421  0.9088
15016TIP3    H266540   0.380   4.537   0.162 -0.7482  0.9432  0.3898
15017TIP3   OH266541   0.921   4.508   6.594  0.0238 -0.0320  0.1530
15017TIP3    H166542   0.917   4.494   6.689  0.4852  0.0607  0.1908
15017TIP3    H266543   1.013   4.493   6.572 -0.1158 -0.2224 -0.3100
15018TIP3   OH266544   3.929   0.212  13.074 -0.2278  0.2157  0.1220
15018TIP3    H166545   3.866   0.145  13.101  0.1377 -0.4519 -0.6343
15018TIP3    H266546   3.971   0.175  12.996  0.6179  0.9472  0.2204
15019TIP3   OH266547   3.343   5.688   5.896 -0.1001  0.1098  0.1894
15019TIP3    H166548   3.343   5.644   5.811 -0.6458 -0.6881  0.5868
15019TIP3    H266549   3.332   5.618   5.960  1.5690  0.5522  1.0191
15020TIP3   OH266550   1.728   3.039   0.980 -0.1706 -0.1265 -0.2051
15020TIP3    H166551   1.705   2.995   0.899 -1.4554  0.7797 -0.3605
15020TIP3    H266552   1.758   2.969   1.038 -1.3136 -1.0724 -0.7385
15021TIP3   OH266553   5.723   1.887  13.991 -0.7516  0.3566  0.0942
15021TIP3    H166554   5.682   1.972  13.983  0.2190  0.7155 -1.4778
15021TIP3    H266555   5.711   1.845  13.906 -0.6004 -0.8027  0.6122
15022TIP3   OH266556   6.257   4.893   3.864 -0.0427  0.0587 -0.4198
15022TIP3    H166557   6.328   4.873   3.803 -0.1645 -1.8641  0.0026
15022TIP3    H266558   6.177   4.882   3.813 -0.1340 -1.2957 -0.0332
15023TIP3   OH266559   0.887   5.216  13.209  0.7062  0.7106 -0.0047
15023TIP3    H166560   0.925   5.241  13.125  0.9409 -0.1797 -0.1745
15023TIP3    H266561   0.844   5.296  13.241  0.2359  0.9379 -1.1728
15024TIP3   OH266562   3.455   3.088  10.940  0.2296 -0.7950  0.3092
15024TIP3    H166563   3.537   3.054  10.903  0.5253  0.5932 -0.3821
15024TIP3    H266564   3.387   3.033  10.900  0.6720 -0.4693 -0.9656
15025TIP3   OH266565   6.326   5.891  16.526 -0.2951 -0.5756 -0.5674
15025TIP3    H166566   6.344   5.976  16.566 -1.8856 -0.3194 -0.3284
15025TIP3    H266567   6.314   5.911  16.433 -0.8674 -0.4838 -0.4814
15026TIP3   OH266568   6.708   4.778   5.435 -0.1323  0.8081  0.2756
15026TIP3    H166569   6.629   4.764   5.382 -0.2533 -0.7062  0.8196
15026TIP3    H266570   6.675   4.812   5.518 -0.6568 -2.7916  1.7449
15027TIP3   OH266571   6.559   5.175   1.034 -0.1328 -0.2993  0.3621
15027TIP3    H166572   6.464   5.162   1.028  0.0301 -0.9367 -1.6094
15027TIP3    H266573   6.593   5.141   0.951  1.8682 -0.4132  1.1668
15028TIP3   OH266574   5.208   3.759   1.008  0.8451 -0.6964  0.0452
15028TIP3    H166575   5.178   3.849   0.997  2.6176  0.0779  1.1023
15028TIP3    H266576   5.147   3.721   1.072  0.2747 -0.1619 -0.1727
15029TIP3   OH266577   1.604   1.470  17.143  0.3694 -0.5444 -0.7583
15029TIP3    H166578   1.531   1.470  17.205  0.2751 -1.7036 -0.8450
15029TIP3    H266579   1.669   1.411  17.182 -0.0360 -1.9534 -2.1217
15030TIP3   OH266580   1.553   0.630   2.616 -0.6012 -0.2350  0.1262
15030TIP3    H166581   1.479   0.645   2.674  0.9922  2.6730  1.6812
15030TIP3    H266582   1.627   0.616   2.675  0.8947  1.7228 -1.1286
15031TIP3   OH266583   5.123   0.344  16.009  0.1809 -0.4339  0.6955
15031TIP3    H166584   5.158   0.428  15.981 -0.2791  0.3886  2.4662
15031TIP3    H266585   5.200   0.291  16.029  0.4583 -0.0849  0.5502
15032TIP3   OH266586   3.341   6.040   2.168 -0.5345  0.7785  0.7943
15032TIP3    H166587   3.281   6.033   2.094  2.3415 -1.2030 -1.5656
15032TIP3    H266588   3.295   5.996   2.240 -2.0179 -0.5326 -0.8526
15033TIP3   OH266589   3.345   4.413  12.727 -0.3271 -0.4689  0.0079
15033TIP3    H166590   3.406   4.343  12.703  0.2000 -1.1926  3.0570
15033TIP3    H266591   3.307   4.384  12.810 -0.0703  2.8416  1.4213
15034TIP3   OH266592   6.750   3.651  15.935 -0.2751 -0.4401  0.4787
15034TIP3    H166593   6.800   3.682  16.011  0.6150 -1.9277  0.5202
15034TIP3    H266594   6.736   3.730  15.882 -2.0450  0.9351  2.7495
15035TIP3   OH266595   0.366   2.445  10.914 -0.0902 -0.2663  0.0030
15035TIP3    H166596   0.342   2.436  10.822  0.4656 -0.6349 -0.1127
15035TIP3    H266597   0.290   2.488  10.954 -0.4463 -0.3377 -0.5714
15036TIP3   OH266598   1.132   4.859  14.086  0.7640 -0.1611 -0.2525
15036TIP3    H166599   1.133   4.943  14.041 -0.0714  0.7081  1.2639
15036TIP3    H266600   1.152   4.880  14.177 -1.4178 -1.3005  0.5732
15037TIP3   OH266601   0.759   2.281   2.989  0.3584  0.4621 -0.4111
15037TIP3    H166602   0.846   2.247   3.007  0.0670 -0.5028 -0.7433
15037TIP3    H266603   0.758   2.368   3.027  0.5858 -0.5373  2.0607
15038TIP3   OH266604   4.077   3.694  12.153  0.0764  0.4646 -0.1535
15038TIP3    H166605   4.113   3.759  12.213  0.3313  2.1024 -1.9720
15038TIP3    H266606   3.987   3.722  12.139  0.4351  0.9434 -1.6029
15039TIP3   OH266607   0.786   2.338  12.569  0.7436  0.2139  0.4032
15039TIP3    H166608   0.865   2.284  12.580 -1.1234 -2.2304  3.8574
15039TIP3    H266609   0.794   2.405  12.637  0.4638  0.8232 -0.1582
15040TIP3   OH266610   4.889   6.444  14.716 -0.7020 -0.7648 -0.4215
15040TIP3    H166611   4.923   6.464  14.629 -0.3478 -2.2432 -0.6514
15040TIP3    H266612   4.966   6.447  14.773 -1.3103  3.1462  0.4984
15041TIP3   OH266613   5.325   2.447  12.316 -0.3843  0.1794 -0.8292
15041TIP3    H166614   5.363   2.417  12.234  1.1876  0.4005 -0.2082
15041TIP3    H266615   5.298   2.367  12.361  0.5030 -0.0712 -0.7384
15042TIP3   OH266616   3.651   0.098  15.933 -0.2798  0.0892  1.0342
15042TIP3    H166617   3.684   0.154  16.003  1.3229  0.3792  0.0946
15042TIP3    H266618   3.636   0.157  15.860 -2.5408 -0.1170  1.2758
15043TIP3   OH266619   0.548   6.141   0.729 -0.0372 -0.0790 -0.6061
15043TIP3    H166620   0.616   6.182   0.782 -1.4994 -0.3138  1.5936
15043TIP3    H266621   0.590   6.065   0.690  1.1291  0.1548  0.1465
15044TIP3   OH266622   0.027   4.267  12.700 -0.0241  0.9825 -0.5944
15044TIP3    H166623   0.009   4.317  12.620  0.6875 -0.5586 -1.7477
15044TIP3    H266624  -0.028   4.189  12.692 -1.0654  1.4826  1.1524
15045TIP3   OH266625   0.250   4.048   4.612  0.2185  0.1627 -0.5315
15045TIP3    H166626   0.222   4.127   4.566  1.6161  1.2281  0.3822
15045TIP3    H266627   0.305   4.080   4.683 -0.2472 -1.5641  0.6585
15046TIP3   OH266628   2.174   3.773  15.583 -0.4589 -0.2860 -0.1819
15046TIP3    H166629   2.171   3.690  15.630 -2.6732 -0.9025 -1.2580
15046TIP3    H266630   2.196   3.748  15.493 -0.6217  0.3620 -0.4030
15047TIP3   OH266631   5.390   4.813  11.708  0.7041  0.0707 -0.2950
15047TIP3    H166632   5.429   4.811  11.795  1.3557  0.9654 -0.5571
15047TIP3    H266633   5.383   4.906  11.686  0.7855 -0.1451 -1.2994
15048TIP3   OH266634   1.790   1.410  15.399  0.1150  0.3227 -0.0176
15048TIP3    H166635   1.761   1.434  15.487 -0.3501 -0.2793  0.0024
15048TIP3    H266636   1.797   1.492  15.352  0.0808  0.6241  0.4947
15049TIP3   OH266637   6.430   3.383   3.151  0.2956 -0.2119 -0.0569
15049TIP3    H166638   6.359   3.424   3.199  0.5938 -0.2230  0.4045
15049TIP3    H266639   6.390   3.349   3.071  0.0780  1.1428 -0.5469
15050TIP3   OH266640   3.602   3.311  11.038  0.9292 -0.3274  0.4168
15050TIP3    H166641   3.548   3.254  10.983  0.7678 -2.2519  2.4448
15050TIP3    H266642   3.662   3.252  11.083  1.0305  1.1330  2.3330
15051TIP3   OH266643   5.058   0.987  11.968 -0.4550 -0.3794 -0.2752
15051TIP3    H166644   5.145   0.974  12.007 -0.6730 -0.7604  0.0895
15051TIP3    H266645   5.034   1.077  11.989  0.0642 -0.1088 -0.8032
15052TIP3   OH266646   5.893   5.841  15.286  0.4436 -0.0957 -0.4329
15052TIP3    H166647   5.823   5.900  15.257  0.1628 -1.0938 -1.8722
15052TIP3    H266648   5.900   5.776  15.216  0.3513 -2.1198  1.3539
15053TIP3   OH266649   6.524   2.789  15.118 -0.2507  0.5045 -0.1147
15053TIP3    H166650   6.617   2.767  15.129 -0.4812 -0.0200  0.9983
15053TIP3    H266651   6.523   2.883  15.102  0.4650  0.5708  0.1772
15054TIP3   OH266652   6.387   5.955   2.201  0.2233  0.0802  0.0535
15054TIP3    H166653   6.472   5.971   2.241  0.0280  0.6169  0.2693
15054TIP3    H266654   6.325   6.001   2.258 -0.2680 -0.7166  0.1792
15055TIP3   OH266655   6.810   5.113   2.996  0.0685  0.2936 -0.1076
15055TIP3    H166656   6.857   5.040   2.955  0.9296  0.6276  0.2608
15055TIP3    H266657   6.767   5.158   2.923 -0.4910 -0.5895 -0.3374
15056TIP3   OH266658   4.817   0.190   2.310 -0.0661  0.1904  0.2499
15056TIP3    H166659   4.739   0.207   2.256  1.4615 -0.4417 -2.2920
15056TIP3    H266660   4.782   0.146   2.387 -2.3269  0.7040 -0.3851
15057TIP3   OH266661   5.364   6.754  12.244 -0.2076  0.0862 -0.0286
15057TIP3    H166662   5.445   6.743  12.193 -0.1804  0.3790 -0.0492
15057TIP3    H266663   5.365   6.681  12.306 -1.3233 -1.5947 -1.8762
15058TIP3   OH266664   4.064   5.749  12.335 -0.1741 -0.0009  0.2078
15058TIP3    H166665   4.000   5.688  12.299 -1.3374  0.4882  1.3921
15058TIP3    H266666   4.041   5.833  12.297  0.3337  0.0218 -0.0581
15059TIP3   OH266667   6.819   5.009  17.105  0.3358 -0.0997 -0.1029
15059TIP3    H166668   6.906   5.022  17.141  0.5206 -0.0427 -0.5553
15059TIP3    H266669   6.831   4.942  17.038  0.0281 -0.1058 -0.1544
15060TIP3   OH266670   0.002   1.708  15.317 -0.0755  0.4322  0.3228
15060TIP3    H166671   0.060   1.715  15.241 -0.5319 -0.5602 -0.1324
15060TIP3    H266672  -0.086   1.704  15.279 -0.2735 -0.5731  0.8669
15061TIP3   OH266673   5.176   1.334  16.120  0.4546  0.1824  0.2742
15061TIP3    H166674   5.177   1.412  16.065 -1.5000  0.6407  0.8371
15061TIP3    H266675   5.169   1.261  16.058  0.2116  0.5769 -0.1697
15062TIP3   OH266676   4.655   6.414  10.356  0.1293 -0.0691  0.2055
15062TIP3    H166677   4.565   6.443  10.342  0.1811 -0.2798 -0.6250
15062TIP3    H266678   4.649   6.318  10.355  0.8238 -0.2484 -3.6722
15063TIP3   OH266679   1.551   0.948  12.460  0.5107 -0.0954 -0.2513
15063TIP3    H166680   1.543   0.883  12.390 -0.6975  0.7476 -0.9253
15063TIP3    H266681   1.644   0.948  12.481  0.8755 -0.5094 -1.7133
15064TIP3   OH266682   2.145   2.551  12.208 -0.2036 -0.3223  0.1669
15064TIP3    H166683   2.135   2.477  12.267 -2.4212 -0.1514  0.1055
15064TIP3    H266684   2.149   2.512  12.121  1.3718 -0.4785  0.2828
15065TIP3   OH266685   2.388   1.932  12.741 -0.0461  0.3148 -0.0345
15065TIP3    H166686   2.468   1.886  12.717  0.2724  1.2353 -0.7863
15065TIP3    H266687   2.326   1.909  12.671 -0.1549  0.3382  0.0534
15066TIP3   OH266688   1.358   6.303  16.609 -0.0037  0.0903  0.0186
15066TIP3    H166689   1.447   6.318  16.577  0.5319  2.1172  2.2195
15066TIP3    H266690   1.306   6.289  16.529  1.9586  0.4977 -1.4106
15067TIP3   OH266691   0.493   1.722   5.116 -0.0755  0.2658  0.1214
15067TIP3    H166692   0.435   1.734   5.041 -0.1589  0.2414  0.1821
15067TIP3    H266693   0.581   1.737   5.081 -0.2629  2.9684  0.5717
15068TIP3   OH266694   6.377   6.208  16.182  0.0458 -0.5859 -0.4908
15068TIP3    H166695   6.306   6.231  16.241  1.4292 -0.2598  1.1547
15068TIP3    H266696   6.351   6.124  16.144 -2.7954  1.1362 -2.7312
15069TIP3   OH266697   0.280   6.592  12.165 -0.5909  0.4404 -0.1268
15069TIP3    H166698   0.323   6.535  12.101  2.6097  0.5614  1.7490
15069TIP3    H266699   0.227   6.533  12.219 -2.1204  0.1515 -1.8304
15070TIP3   OH266700   1.478   0.601  13.499 -0.4498 -0.3250  0.4285
15070TIP3    H166701   1.398   0.651  13.481  0.1925  0.0082 -1.8598
15070TIP3    H266702   1.476   0.529  13.436  2.3967  1.3532 -1.8404
15071TIP3   OH266703   1.481   5.239  13.120 -0.7656 -0.8540  0.4446
15071TIP3    H166704   1.500   5.297  13.193 -0.1580 -0.4092 -0.0595
15071TIP3    H266705   1.461   5.298  13.047  1.6053 -1.1875 -0.5718
15072TIP3   OH266706   5.123   4.612   2.911  0.3247  0.2166  0.0566
15072TIP3    H166707   5.212   4.635   2.883  0.4223 -0.1052  0.0961
15072TIP3    H266708   5.133   4.589   3.003  0.3048 -0.3864 -0.0874
15073TIP3   OH266709   4.573   0.202  13.403  0.0066 -0.1956 -0.1597
15073TIP3    H166710   4.560   0.115  13.366 -4.0456 -0.2432  0.8825
15073TIP3    H266711   4.532   0.262  13.341  1.4743  0.8679 -0.1738
15074TIP3   OH266712   6.558   0.408  15.154  0.3488  0.0919 -0.2651
15074TIP3    H166713   6.534   0.316  15.148 -0.0373  0.2745 -2.5250
15074TIP3    H266714   6.494   0.453  15.099  1.3637  1.5193 -0.3343
15075TIP3   OH266715   4.226   0.351  13.600  0.2921  0.0527  0.7075
15075TIP3    H166716   4.186   0.438  13.598  1.5385  0.6252 -1.1447
15075TIP3    H266717   4.317   0.367  13.624  0.8908 -0.5348 -1.0130
15076TIP3   OH266718   0.975   1.563   6.342 -0.0155  0.3026  0.1744
15076TIP3    H166719   1.058   1.549   6.387  0.0214  0.2986  0.1051
15076TIP3    H266720   0.912   1.579   6.412  0.1074  0.6304  0.2103
15077TIP3   OH266721   4.360   6.553   2.407  0.3906  0.2148  0.0078
15077TIP3    H166722   4.383   6.587   2.320  0.0481 -0.1015 -0.2072
15077TIP3    H266723   4.276   6.593   2.427 -0.0540 -0.5496 -0.2808
15078TIP3   OH266724   5.437   3.360   6.175  0.3205  0.4726 -0.0394
15078TIP3    H166725   5.429   3.405   6.259  0.2088  1.0859 -0.3756
15078TIP3    H266726   5.381   3.409   6.116 -0.3016 -0.4859 -0.2715
15079TIP3   OH266727   3.268   5.087   0.412  0.1749  0.2872  0.3658
15079TIP3    H166728   3.345   5.115   0.461  2.2291 -0.2532 -2.3315
15079TIP3    H266729   3.228   5.169   0.381  0.8208  0.5308  0.1658
15080TIP3   OH266730   1.657   2.046  13.684 -0.8741 -0.8050  0.6647
15080TIP3    H166731   1.588   1.981  13.674 -0.3531 -1.3359  0.4982
15080TIP3    H266732   1.645   2.105  13.609 -1.4977 -0.5494  0.9495
15081TIP3   OH266733   4.393   0.672  14.817  0.0637  0.0930  0.3115
15081TIP3    H166734   4.374   0.709  14.903  2.3117 -0.4931  1.1136
15081TIP3    H266735   4.399   0.748  14.759 -0.6173  0.5549  0.8373
15082TIP3   OH266736   0.874   1.991   4.283  0.0170 -0.1052 -0.6930
15082TIP3    H166737   0.816   2.065   4.265 -0.1690  0.2228  1.0885
15082TIP3    H266738   0.820   1.914   4.267  0.2081  0.0898 -2.5613
15083TIP3   OH266739   0.900   6.311  15.806 -0.0351  0.0931 -0.1634
15083TIP3    H166740   0.914   6.221  15.835  0.6383 -0.1797 -1.2644
15083TIP3    H266741   0.859   6.302  15.720  2.0087  0.7719 -1.2795
15084TIP3   OH266742   2.423   6.087   4.350 -0.1404 -0.3671 -0.3706
15084TIP3    H166743   2.448   6.007   4.397  0.8946  0.3501  0.3458
15084TIP3    H266744   2.453   6.158   4.406  0.4248  0.5207 -1.7488
15085TIP3   OH266745   5.437   0.124   5.892 -0.2904  0.1720 -0.1792
15085TIP3    H166746   5.343   0.137   5.885 -0.2248  1.4211  0.9197
15085TIP3    H266747   5.476   0.205   5.859  0.4007 -0.1844 -0.2777
15086TIP3   OH266748   4.943   2.991   4.055 -0.4920 -0.0768 -1.0220
15086TIP3    H166749   4.868   2.997   4.115 -0.8687  1.1081 -1.5944
15086TIP3    H266750   4.904   2.986   3.968  0.0842 -0.6005 -1.2596
15087TIP3   OH266751   3.921   0.448  12.313  0.4517  0.8136  0.2574
15087TIP3    H166752   3.857   0.420  12.379  1.9305  0.4437  1.6023
15087TIP3    H266753   3.980   0.505  12.361  0.4485  2.1388 -1.2534
15088TIP3   OH266754   6.375   3.187   5.002  0.4791  0.3377 -0.1178
15088TIP3    H166755   6.314   3.123   4.965 -0.1504  0.5443  0.5234
15088TIP3    H266756   6.397   3.152   5.088  0.8611  0.5251 -0.1385
15089TIP3   OH266757   3.489   2.695   3.036  0.5376  0.6512  0.2309
15089TIP3    H166758   3.410   2.644   3.022  0.1646  1.1415  0.4943
15089TIP3    H266759   3.458   2.785   3.049  1.2723  1.2490 -1.7696
15090TIP3   OH266760   5.602   0.741   2.247 -0.2419  0.4912 -0.2128
15090TIP3    H166761   5.618   0.712   2.157  0.4998 -0.7175  0.2780
15090TIP3    H266762   5.522   0.794   2.242 -0.6951 -0.2735 -1.4487
15091TIP3   OH266763   2.811   5.756   0.546  0.0331  0.4378  0.2255
15091TIP3    H166764   2.831   5.839   0.590  1.4899  0.4942 -0.4900
15091TIP3    H266765   2.822   5.775   0.453  0.0196 -0.4637  0.0351
15092TIP3   OH266766   2.398   5.171   6.385  0.3953 -0.0510  0.2113
15092TIP3    H166767   2.463   5.122   6.435  0.5563 -0.2994 -0.2367
15092TIP3    H266768   2.329   5.108   6.368  0.0779  0.1862  0.6006
15093TIP3   OH266769   2.766   4.154  11.220 -0.3251  0.2876  0.0204
15093TIP3    H166770   2.797   4.154  11.130 -2.4211 -0.4748 -0.7845
15093TIP3    H266771   2.769   4.061  11.246  0.1657  0.4889  0.6929
15094TIP3   OH266772   1.499   4.642   2.911 -0.3678 -0.6785 -0.3618
15094TIP3    H166773   1.513   4.593   2.830  0.0720 -1.6447  0.2741
15094TIP3    H266774   1.504   4.734   2.885  1.7893 -0.9500 -1.1070
15095TIP3   OH266775   4.562   4.776   5.107 -0.3249  0.2352  0.0019
15095TIP3    H166776   4.486   4.724   5.082 -0.4347  0.1114  0.5869
15095TIP3    H266777   4.585   4.746   5.195 -1.1357  1.9905  0.8637
15096TIP3   OH266778   3.195   6.173   1.400 -0.3790  0.2673 -0.5147
15096TIP3    H166779   3.106   6.189   1.369 -0.2996  0.3027 -0.7280
15096TIP3    H266780   3.231   6.110   1.337 -0.6748 -0.7319  0.2883
15097TIP3   OH266781   2.032   4.011  13.890  0.6693  0.2881 -0.1923
15097TIP3    H166782   1.984   3.928  13.889  0.2021  0.4293  2.6230
15097TIP3    H266783   2.109   3.994  13.943  1.6931  1.1581 -1.3205
15098TIP3   OH266784   1.549   6.164   4.198  0.5795  0.3485 -0.2736
15098TIP3    H166785   1.583   6.249   4.228  0.7385  0.5600 -1.0415
15098TIP3    H266786   1.600   6.099   4.246  3.2432  0.6073 -2.5533
15099TIP3   OH266787   2.757   2.617  15.807 -0.4456  0.5105  1.2450
15099TIP3    H166788   2.836   2.651  15.766 -1.0306 -0.0473 -0.4290
15099TIP3    H266789   2.695   2.690  15.805 -0.3152  0.6319  1.5960
15100TIP3   OH266790   1.864   2.384   1.785  0.3470 -0.0583 -0.1246
15100TIP3    H166791   1.925   2.442   1.830  0.1449  0.5963 -0.6811
15100TIP3    H266792   1.779   2.404   1.824  0.3591 -0.3781  0.0690
15101TIP3   OH266793   1.163   4.614   4.721 -0.3959  0.2219  0.7765
15101TIP3    H166794   1.246   4.651   4.754 -0.5603  1.8358 -0.4786
15101TIP3    H266795   1.190   4.543   4.663 -0.0662 -1.7154  3.1283
15102TIP3   OH266796   0.743   2.885  11.634 -0.8155  0.3283  0.1811
15102TIP3    H166797   0.686   2.808  11.635  2.0479 -1.9591  0.6649
15102TIP3    H266798   0.750   2.912  11.726 -1.0218  0.5560  0.1319
15103TIP3   OH266799   4.536   3.795  13.672  0.6466 -0.3372 -0.2831
15103TIP3    H166800   4.584   3.872  13.704 -1.9849  2.3322 -2.1708
15103TIP3    H266801   4.516   3.745  13.750  1.8526  1.2708  1.1432
15104TIP3   OH266802   4.105   6.667   2.492 -0.0656  0.8447 -0.1848
15104TIP3    H166803   4.098   6.720   2.572  0.3582  1.0280 -0.2663
15104TIP3    H266804   4.022   6.620   2.487 -0.0941  0.8314  0.3651
15105TIP3   OH266805   0.183   4.059   6.416 -0.6989  0.2009 -0.0875
15105TIP3    H166806   0.142   4.040   6.501 -1.0115 -1.6690 -0.6077
15105TIP3    H266807   0.115   4.105   6.367 -1.0663 -0.0781  0.1502
15106TIP3   OH266808   4.533   5.242  16.514 -0.3131  0.5165  0.0830
15106TIP3    H166809   4.489   5.175  16.567  0.4668  1.1544  1.6050
15106TIP3    H266810   4.610   5.266  16.565 -0.3905  2.3292 -0.5774
15107TIP3   OH266811   3.675   0.276   5.311  0.1069  0.6695  0.4376
15107TIP3    H166812   3.660   0.320   5.395 -3.8813  2.5393 -0.9930
15107TIP3    H266813   3.683   0.347   5.247 -0.4146 -0.6590 -1.1894
15108TIP3   OH266814   2.349   0.586   5.051 -0.3449 -0.0469 -0.0192
15108TIP3    H166815   2.273   0.574   4.994 -0.8875 -1.7718  0.9962
15108TIP3    H266816   2.368   0.499   5.085  1.7871  0.4355  0.1711
15109TIP3   OH266817   0.015   0.255  11.530 -0.1565 -0.2801  0.4311
15109TIP3    H166818   0.036   0.191  11.462 -1.3006  0.7409 -0.9322
15109TIP3    H266819   0.093   0.310  11.537  0.2810 -0.9052  0.5734
15110TIP3   OH266820   6.367   3.678  13.592 -0.3844  0.0598  0.0372
15110TIP3    H166821   6.427   3.662  13.665 -1.2706 -1.8424  0.4122
15110TIP3    H266822   6.342   3.770  13.601 -1.3016 -0.3587  2.8296
15111TIP3   OH266823   2.588   3.331   4.708 -0.3830 -0.2952 -0.2765
15111TIP3    H166824   2.632   3.377   4.780 -0.1534  0.7897 -1.0691
15111TIP3    H266825   2.553   3.252   4.748  2.5642 -1.4301  0.3711
15112TIP3   OH266826   5.807   5.963  12.877  0.1027 -0.0187  0.3660
15112TIP3    H166827   5.900   5.970  12.853  0.4008 -3.3881  0.0856
15112TIP3    H266828   5.760   5.976  12.794  0.5583 -1.5079 -0.1573
15113TIP3   OH266829   4.939   1.858  15.522 -0.9218  0.4182 -0.6596
15113TIP3    H166830   4.896   1.937  15.490  0.3508  0.5657 -2.1739
15113TIP3    H266831   4.872   1.790  15.518 -1.3635  0.8894 -1.7988
15114TIP3   OH266832   1.409   0.797  13.949 -0.2813 -0.7525  0.8968
15114TIP3    H166833   1.495   0.839  13.947 -0.2940 -0.6966  1.4722
15114TIP3    H266834   1.428   0.704  13.937  0.0378 -0.9814  2.8680
15115TIP3   OH266835   5.371   5.442  17.010  0.3360  0.0838  0.0394
15115TIP3    H166836   5.386   5.534  16.984 -0.6971  0.7222  1.5970
15115TIP3    H266837   5.354   5.397  16.927  1.3163  1.1880 -0.8066
15116TIP3   OH266838   6.021   2.474  16.698 -0.4930  0.4103 -0.1577
15116TIP3    H166839   5.968   2.516  16.629  1.3398  0.3774 -1.6472
15116TIP3    H266840   6.084   2.541  16.724  1.9373 -1.0430 -1.9784
15117TIP3   OH266841   1.629   1.212  13.076 -0.1558  0.3102  0.4027
15117TIP3    H166842   1.694   1.269  13.036 -1.0768  1.3188  0.3187
15117TIP3    H266843   1.577   1.269  13.132 -1.6069 -0.2743 -0.3070
15118TIP3   OH266844   6.140   1.311   5.868  0.6267 -0.3541  0.3153
15118TIP3    H166845   6.155   1.281   5.957 -0.5497 -1.2993  0.2124
15118TIP3    H266846   6.098   1.397   5.878  0.1697 -0.6172  0.6793
15119TIP3   OH266847   6.494   1.775  11.626  0.1243  0.3558  0.2424
15119TIP3    H166848   6.453   1.748  11.708  1.3931 -1.1565  0.4450
15119TIP3    H266849   6.442   1.849  11.596  0.5053  1.9902  3.1874
15120TIP3   OH266850   4.453   2.326  12.884 -0.0137  0.1167  0.2468
15120TIP3    H166851   4.508   2.281  12.820  2.0743 -0.0291  2.0001
15120TIP3    H266852   4.480   2.289  12.969 -2.3050  0.6375  1.2792
15121TIP3   OH266853   4.357   6.102   2.329  0.5307 -0.2480  0.4292
15121TIP3    H166854   4.323   6.103   2.239  0.5435  0.9439  0.4225
15121TIP3    H266855   4.413   6.024   2.332  0.7070 -0.1868 -0.6551
15122TIP3   OH266856   2.533   3.292   6.493 -0.0887  0.4633  0.1750
15122TIP3    H166857   2.511   3.202   6.517  0.0290  0.3810 -0.0272
15122TIP3    H266858   2.467   3.345   6.538 -0.8213  0.2092 -0.5631
15123TIP3   OH266859   2.325   0.674  11.121  0.1737  0.0460 -0.0250
15123TIP3    H166860   2.376   0.613  11.068  1.0980  0.9126 -0.1767
15123TIP3    H266861   2.300   0.744  11.060  0.3409  0.5150  0.4320
15124TIP3   OH266862   4.935   0.093  11.307  0.5138 -0.1945 -0.2545
15124TIP3    H166863   4.969   0.016  11.353  2.0863  0.1355 -0.7834
15124TIP3    H266864   4.879   0.137  11.370 -1.0089 -2.1133 -0.1503
15125TIP3   OH266865   1.028   4.210  12.636 -0.3340  0.6954 -0.4972
15125TIP3    H166866   1.045   4.304  12.624  0.1918  0.6043 -0.4844
15125TIP3    H266867   1.100   4.179  12.689 -1.0421  0.4718  0.3598
15126TIP3   OH266868   1.565   4.075   0.545  0.3665  1.0705  0.1119
15126TIP3    H166869   1.485   4.115   0.509 -0.8669 -0.0961  1.3993
15126TIP3    H266870   1.550   4.075   0.639  1.7633  0.5178  0.3455
15127TIP3   OH266871   2.573   1.269  17.174 -0.2606 -0.3352  0.0108
15127TIP3    H166872   2.555   1.293  17.083  0.9276 -0.2975 -0.2410
15127TIP3    H266873   2.568   1.351  17.222 -0.1624 -0.2327 -0.1524
15128TIP3   OH266874   5.331   6.149   3.549 -0.1255 -0.4920 -0.0994
15128TIP3    H166875   5.402   6.091   3.576  1.3076  0.7932 -0.9800
15128TIP3    H266876   5.323   6.212   3.620  0.0494 -0.2610 -0.2839
15129TIP3   OH266877   0.782   3.926   5.451 -0.1443 -0.5094  0.2391
15129TIP3    H166878   0.706   3.875   5.479 -1.2159  2.6962  4.1478
15129TIP3    H266879   0.857   3.870   5.472 -1.3127 -1.7360  1.3332
15130TIP3   OH266880   6.548   2.821  13.243  0.1621 -0.1726 -0.1189
15130TIP3    H166881   6.612   2.794  13.178 -0.5949 -0.5176 -0.7326
15130TIP3    H266882   6.477   2.757  13.236 -0.1990  0.1263  0.6325
15131TIP3   OH266883   5.608   2.356   2.634 -0.1342 -0.1257  0.0652
15131TIP3    H166884   5.617   2.280   2.576 -1.5988 -1.7723  1.8550
15131TIP3    H266885   5.673   2.340   2.703 -1.6055 -0.7425  1.3772
15132TIP3   OH266886   5.346   5.035  13.078  0.8916  0.2201  0.5926
15132TIP3    H166887   5.434   5.008  13.054  0.0357 -2.6685  0.3097
15132TIP3    H266888   5.328   4.987  13.160 -1.2314 -1.2730 -0.6429
15133TIP3   OH266889   2.254   6.454   3.966  0.1013  0.5497  0.1082
15133TIP3    H166890   2.281   6.417   4.050  0.9457  0.4108 -0.2114
15133TIP3    H266891   2.183   6.397   3.936  0.2854  0.1669  0.3885
15134TIP3   OH266892   3.805   2.125   0.403 -1.0175 -0.5515  0.0020
15134TIP3    H166893   3.828   2.162   0.489  1.3392 -0.5460 -0.5687
15134TIP3    H266894   3.714   2.150   0.390 -0.8467  1.1535  1.6508
15135TIP3   OH266895   4.689   5.939  15.095 -0.4024 -0.6429 -0.0134
15135TIP3    H166896   4.718   5.889  15.019  1.1116  1.0113 -0.5938
15135TIP3    H266897   4.744   5.907  15.167  0.0493 -0.3200 -0.2159
15136TIP3   OH266898   2.996   0.662   0.081 -0.5963  0.1362  0.4700
15136TIP3    H166899   2.907   0.640   0.110 -1.1205  0.7405 -0.6327
15136TIP3    H266900   2.999   0.637  -0.011  0.3233  0.3107  0.4391
15137TIP3   OH266901   1.881   4.543  15.120  0.0885  0.3879  0.1736
15137TIP3    H166902   1.801   4.522  15.072  0.3533  1.0136 -0.5579
15137TIP3    H266903   1.947   4.484  15.084 -0.4295 -1.4534  2.0770
15138TIP3   OH266904   5.289   0.192   2.112 -0.6090 -0.5332 -0.2023
15138TIP3    H166905   5.295   0.205   2.017 -2.2586 -0.8268 -0.3711
15138TIP3    H266906   5.195   0.196   2.131 -0.2191  1.3224  1.6959
15139TIP3   OH266907   3.116   3.453  12.727  0.4726  0.7729 -0.1858
15139TIP3    H166908   3.113   3.521  12.660  0.7834  0.9090 -0.0606
15139TIP3    H266909   3.099   3.372  12.680 -1.7407  1.0998 -0.0927
15140TIP3   OH266910   6.386   0.718  14.150 -0.0474  0.1806  0.2643
15140TIP3    H166911   6.480   0.713  14.131  0.1601 -0.3642  1.3141
15140TIP3    H266912   6.368   0.812  14.160  0.3700  0.2925 -0.0268
15141TIP3   OH266913   6.794   1.043  14.311 -0.5791 -0.2220  0.0283
15141TIP3    H166914   6.752   1.084  14.386 -1.3143 -0.5900 -0.1667
15141TIP3    H266915   6.788   0.949  14.328  3.3097 -0.3696  1.6965
15142TIP3   OH266916   5.625   5.138   6.631 -0.1588  0.0432  0.0133
15142TIP3    H166917   5.649   5.125   6.539  1.1776 -0.9480  0.4673
15142TIP3    H266918   5.701   5.181   6.670  0.2225 -1.4872  1.0895
15143TIP3   OH266919   2.517   6.704   1.214 -0.1488  0.0728  0.1550
15143TIP3    H166920   2.482   6.758   1.144  0.1854 -1.9427 -1.6784
15143TIP3    H266921   2.447   6.642   1.235  1.1183 -2.0282 -1.4159
15144TIP3   OH266922   2.849   0.645   5.963  0.2695  0.5890 -0.1673
15144TIP3    H166923   2.816   0.641   6.053  2.1234 -1.8873  0.5363
15144TIP3    H266924   2.793   0.585   5.914  0.8552 -0.0901 -0.0237
15145TIP3   OH266925   0.210   1.442   1.479  0.2171  0.1865 -0.0233
15145TIP3    H166926   0.265   1.374   1.518  1.3196  0.1006 -1.6180
15145TIP3    H266927   0.265   1.521   1.481 -0.5709  0.7307  0.6563
15146TIP3   OH266928   3.907   0.291  14.245  0.0736  0.5790 -0.4943
15146TIP3    H166929   3.958   0.225  14.292 -0.3250  0.9055  0.3995
15146TIP3    H266930   3.958   0.371  14.253  0.6690  0.3559 -1.7685
15147TIP3   OH266931   4.656   4.442  16.874  0.1240 -0.6369 -0.4800
15147TIP3    H166932   4.618   4.522  16.910 -0.7763 -0.7439 -1.1457
15147TIP3    H266933   4.750   4.460  16.866  0.1960 -0.2779  0.9882
15148TIP3   OH266934   4.771   2.892   0.010  0.3985  0.2023 -1.0115
15148TIP3    H166935   4.795   2.827  -0.056  1.6778  0.8621 -1.2410
15148TIP3    H266936   4.676   2.890   0.012  0.3750 -0.8268 -1.8625
15149TIP3   OH266937   0.232   0.943  11.125  0.4101  0.4479  0.4038
15149TIP3    H166938   0.199   1.003  11.058  0.0824  0.6647  0.7541
15149TIP3    H266939   0.274   0.872  11.076  0.8274  0.9806 -0.0098
15150TIP3   OH266940   6.711   6.219  13.849 -0.0700  0.0007  0.0615
15150TIP3    H166941   6.729   6.187  13.761  1.4843 -0.6684  0.5694
15150TIP3    H266942   6.655   6.151  13.888  1.3104 -1.0076  0.3755
15151TIP3   OH266943   4.112   5.921  11.740 -0.3400 -0.0108 -0.0448
15151TIP3    H166944   4.056   5.861  11.791 -2.0196 -0.9874 -2.8072
15151TIP3    H266945   4.060   6.001  11.733  0.7070  0.8152  1.3032
15152TIP3   OH266946   3.557   1.916   1.005 -0.6279  0.2296  1.4539
15152TIP3    H166947   3.643   1.941   1.039 -0.1250  0.0384  0.3746
15152TIP3    H266948   3.574   1.891   0.914 -1.9586  0.9188  0.9959
15153TIP3   OH266949   0.253   5.689   1.971 -0.5918  0.5392  0.5821
15153TIP3    H166950   0.319   5.674   2.039 -1.5057 -1.1271  1.1736
15153TIP3    H266951   0.184   5.737   2.016 -0.5274  0.7824  0.4211
15154TIP3   OH266952   2.387   6.267   2.498  0.1383 -0.5103  0.8166
15154TIP3    H166953   2.407   6.321   2.421  0.7556 -2.1068 -0.1965
15154TIP3    H266954   2.463   6.279   2.556  0.3492 -0.4137  0.5233
15155TIP3   OH266955   4.493   2.003   5.184 -0.2330  0.1134 -0.1226
15155TIP3    H166956   4.588   2.008   5.199 -0.1596 -1.5212  0.1315
15155TIP3    H266957   4.476   2.071   5.119  0.8174  1.5941  1.0713
15156TIP3   OH266958   5.892   2.920  12.447 -0.0274  0.6997  0.5971
15156TIP3    H166959   5.942   2.859  12.501  1.3132  1.5348  0.3534
15156TIP3    H266960   5.834   2.965  12.508  1.0948  1.2581  1.2796
15157TIP3   OH266961   1.430   1.024  11.255  0.3864 -0.0699  0.6582
15157TIP3    H166962   1.423   1.041  11.161  0.1320  0.4213  0.7642
15157TIP3    H266963   1.510   0.971  11.263  1.0071  0.7841  0.2796
15158TIP3   OH266964   0.324   0.632  10.801 -0.0576  0.3235 -0.0798
15158TIP3    H166965   0.354   0.687  10.728 -1.6078  0.2503 -0.8191
15158TIP3    H266966   0.253   0.683  10.841 -0.4119 -0.4188  0.2473
15159TIP3   OH266967   6.823   6.633  15.884 -0.7230  0.7949  0.3688
15159TIP3    H166968   6.767   6.671  15.816 -0.2912 -1.2281 -1.2275
15159TIP3    H266969   6.864   6.558  15.842  0.8449  0.4046  2.4195
15160TIP3   OH266970   2.756   6.577  14.329 -0.0117 -0.1445  0.0737
15160TIP3    H166971   2.717   6.491  14.313  0.0203  0.1007 -1.4981
15160TIP3    H266972   2.703   6.637  14.278  1.7950  0.3246 -1.3855
15161TIP3   OH266973   4.806   2.602  13.690  0.1384 -0.4806 -0.0631
15161TIP3    H166974   4.787   2.559  13.606 -1.9340  0.1729  0.0127
15161TIP3    H266975   4.893   2.570  13.714  0.9258 -0.4931 -2.5718
15162TIP3   OH266976   0.988   2.894   0.102 -0.0297 -0.3934  0.1870
15162TIP3    H166977   0.940   2.887   0.019  0.1854  1.0754 -0.0874
15162TIP3    H266978   1.021   2.984   0.103  0.8639 -0.7141  1.3908
15163TIP3   OH266979   0.789   1.314   4.235  0.0459  0.3779  0.1560
15163TIP3    H166980   0.808   1.373   4.307 -0.1856  1.2173 -0.4586
15163TIP3    H266981   0.798   1.368   4.156  2.1821 -0.9589 -0.5923
15164TIP3   OH266982   2.552   0.993   0.224  0.1441 -0.5545  0.0014
15164TIP3    H166983   2.458   1.013   0.229  0.3339  1.2162 -1.8961
15164TIP3    H266984   2.595   1.074   0.253  1.0771 -1.0466  0.0353
15165TIP3   OH266985   5.443   4.572   0.521 -0.3785 -0.0416 -0.7419
15165TIP3    H166986   5.359   4.530   0.501 -0.9659 -0.3415  1.9639
15165TIP3    H266987   5.481   4.518   0.590  0.3352  2.0914  0.6229
15166TIP3   OH266988   1.996   3.126  11.644 -0.0044 -0.2192 -0.1494
15166TIP3    H166989   1.997   3.067  11.719  1.0513  0.2478  0.2303
15166TIP3    H266990   1.982   3.069  11.569  1.5341 -1.0521  0.1583
15167TIP3   OH266991   6.731   1.496  10.553  0.1062 -0.4392  0.0868
15167TIP3    H166992   6.809   1.547  10.574  0.0701 -0.7764  1.1082
15167TIP3    H266993   6.753   1.450  10.472  0.1543  1.1276 -0.8267
15168TIP3   OH266994   1.407   4.003   4.274  0.2185  0.1546  0.1497
15168TIP3    H166995   1.432   4.068   4.340  1.2004 -0.6323  0.5816
15168TIP3    H266996   1.311   4.005   4.274  0.0955 -0.9103  2.7458
15169TIP3   OH266997   5.003   0.949   0.313  0.4572  0.1092  0.0024
15169TIP3    H166998   4.969   0.894   0.384 -0.0534 -0.0531 -0.3622
15169TIP3    H266999   5.048   1.021   0.358  0.7092 -0.3386  0.4857
15170TIP3   OH267000   3.058   2.920  16.739  0.5013  0.1143  0.5193
15170TIP3    H167001   3.107   2.838  16.728 -1.3132 -1.0434  0.7654
15170TIP3    H267002   3.084   2.974  16.664  0.0175 -1.5903 -0.9280
15171TIP3   OH267003   0.617   0.296   1.868 -0.3287 -0.0786 -0.1669
15171TIP3    H167004   0.671   0.218   1.884 -0.6714 -0.3600 -0.3554
15171TIP3    H267005   0.570   0.309   1.950 -1.7549 -1.2595 -0.7439
15172TIP3   OH267006   5.848   5.120  12.400  0.0867 -0.3011 -0.0986
15172TIP3    H167007   5.787   5.084  12.336 -0.2259 -0.4934  0.3001
15172TIP3    H267008   5.846   5.058  12.473 -0.8051  0.7297  0.7875
15173TIP3   OH267009   0.434   5.032   3.926 -0.3642 -0.0245 -0.1173
15173TIP3    H167010   0.485   5.100   3.971 -1.3816  0.8123 -0.2024
15173TIP3    H267011   0.482   5.019   3.843  0.5499 -0.3408  0.4468
15174TIP3   OH267012   5.797   1.704  16.634  0.2265 -0.1916  0.0697
15174TIP3    H167013   5.819   1.612  16.624  0.2139 -0.2087  0.1954
15174TIP3    H267014   5.838   1.730  16.717  0.9352  0.1329 -0.3801
15175TIP3   OH267015   3.778   4.124   3.334 -0.0013  0.1668 -0.0833
15175TIP3    H167016   3.855   4.164   3.293  0.1454  1.2569  1.1929
15175TIP3    H267017   3.718   4.197   3.349 -0.7814 -0.4907  0.0478
15176TIP3   OH267018   4.048   0.544  13.976 -0.4927  0.3171  0.3362
15176TIP3    H167019   4.081   0.633  13.962  0.8114 -0.2786 -0.5664
15176TIP3    H267020   4.049   0.533  14.071 -1.1660  1.4372  0.4872
15177TIP3   OH267021   4.893   4.022  16.764  0.1775  0.1405 -0.4761
15177TIP3    H167022   4.948   4.058  16.834 -1.7881  0.2970  1.0666
15177TIP3    H267023   4.820   4.083  16.756 -0.6637 -0.9273 -1.2863
15178TIP3   OH267024   4.838   6.815   4.501 -0.2224  0.4408  0.4875
15178TIP3    H167025   4.749   6.850   4.495  0.0098  1.1250  0.9953
15178TIP3    H267026   4.826   6.729   4.542 -0.6559  0.5348  0.5681
15179TIP3   OH267027   1.827   6.581   4.085 -0.2456 -0.2948 -0.0956
15179TIP3    H167028   1.757   6.527   4.047 -2.3240 -0.6325  3.7383
15179TIP3    H267029   1.846   6.540   4.169  1.9801  1.9597  0.6081
15180TIP3   OH267030   0.293   3.681   0.882 -0.0493 -0.1618 -0.3113
15180TIP3    H167031   0.205   3.685   0.844 -0.6303 -0.5598  0.9221
15180TIP3    H267032   0.349   3.726   0.819 -0.8106 -1.5099 -2.0184
15181TIP3   OH267033   6.650   2.812  13.909  0.2579  0.0527  0.0242
15181TIP3    H167034   6.661   2.717  13.902  0.9189  0.2017 -1.1462
15181TIP3    H267035   6.630   2.841  13.820  0.0112  1.0097  0.3805
15182TIP3   OH267036   6.505   4.028   3.964 -0.7256  0.2472 -0.1119
15182TIP3    H167037   6.554   4.092   4.016 -1.6013 -0.3568  1.5109
15182TIP3    H267038   6.564   3.952   3.958 -0.5119  0.4216 -0.2402
15183TIP3   OH267039   6.622   4.793   2.917  0.5504 -0.7912  0.0821
15183TIP3    H167040   6.601   4.887   2.922  1.1258 -0.3908 -2.9594
15183TIP3    H267041   6.712   4.787   2.949  1.0071 -0.0385 -0.9955
15184TIP3   OH267042   4.905   2.576   4.517 -1.2232  0.1586  0.4916
15184TIP3    H167043   4.933   2.611   4.601 -2.4130 -0.6108  1.2522
15184TIP3    H267044   4.979   2.524   4.487 -0.7095  0.5999  0.9840
15185TIP3   OH267045   0.990   2.444   0.732  0.1290 -0.0798  0.2180
15185TIP3    H167046   0.982   2.526   0.683 -0.2893  0.6045  1.4171
15185TIP3    H267047   0.902   2.406   0.730  0.0954 -0.0172  0.5002
15186TIP3   OH267048   2.364   0.733   2.774 -0.0715  0.1480 -0.6285
15186TIP3    H167049   2.286   0.679   2.783 -0.0166 -0.3737 -2.8019
15186TIP3    H267050   2.331   0.822   2.766 -0.3796  0.0380 -0.5741
15187TIP3   OH267051   2.967   4.416  16.013 -0.4228  0.1270  0.4361
15187TIP3    H167052   2.877   4.405  16.045 -0.3874  0.6920  0.7369
15187TIP3    H267053   2.957   4.436  15.920 -0.5474 -1.0493  0.1818
15188TIP3   OH267054   6.248   1.314  13.503  0.0169  0.0145  0.4898
15188TIP3    H167055   6.157   1.326  13.476  0.2221 -2.5093 -1.6701
15188TIP3    H267056   6.246   1.239  13.563  0.4973  1.1897  2.0624
15189TIP3   OH267057   2.550   3.117   4.902 -0.0811  0.1025  0.3111
15189TIP3    H167058   2.513   3.179   4.965  1.9325  0.3583  1.3349
15189TIP3    H267059   2.616   3.069   4.952 -0.2860 -1.5706 -0.9525
15190TIP3   OH267060   3.437   5.474   4.528  0.2209  0.3685 -0.5537
15190TIP3    H167061   3.489   5.555   4.530 -0.3418  0.7387 -0.8396
15190TIP3    H267062   3.348   5.502   4.508 -0.1675 -0.2347  0.2680
15191TIP3   OH267063   2.351   4.794  17.105 -0.3857  0.2946  0.1812
15191TIP3    H167064   2.443   4.793  17.130 -0.2086 -0.9243 -0.4272
15191TIP3    H267065   2.317   4.710  17.136 -0.7755 -0.1458 -1.3377
15192TIP3   OH267066   1.761   3.016  16.517  0.2128 -0.2422 -0.3489
15192TIP3    H167067   1.827   3.084  16.500 -0.4798  0.8998  1.2739
15192TIP3    H267068   1.785   2.980  16.602 -1.2509  0.2394  0.3067
15193TIP3   OH267069   1.023   1.505   0.294  0.4726 -0.0645  0.8887
15193TIP3    H167070   1.005   1.507   0.388 -1.5073 -1.9231  0.6251
15193TIP3    H267071   1.039   1.412   0.274  0.9779  0.3092 -0.5906
15194TIP3   OH267072   3.358   6.743  12.042 -0.3198 -0.5631  0.0130
15194TIP3    H167073   3.451   6.753  12.022 -0.6841 -0.5667 -1.9017
15194TIP3    H267074   3.318   6.822  12.006 -1.1466 -0.9336  0.1105
15195TIP3   OH267075   1.469   3.592  13.523  0.3195  0.5213 -0.2032
15195TIP3    H167076   1.429   3.646  13.591  1.7452  0.5830  0.6370
15195TIP3    H267077   1.448   3.502  13.549 -1.4739  0.5858 -1.2331
15196TIP3   OH267078   6.529   0.171  16.530  0.0891 -0.0412  0.3300
15196TIP3    H167079   6.599   0.115  16.565 -0.6608 -0.7152  0.7886
15196TIP3    H267080   6.486   0.117  16.464  1.0747  0.9904 -1.2107
15197TIP3   OH267081   2.171   5.224  14.722 -0.3371  0.9456 -0.2430
15197TIP3    H167082   2.183   5.290  14.654 -0.1313  2.0782  0.8634
15197TIP3    H267083   2.233   5.154  14.699  1.9290  2.6370  0.3941
15198TIP3   OH267084   1.396   1.742  13.028 -0.7907 -0.4917  0.1179
15198TIP3    H167085   1.471   1.800  13.041 -0.8584 -0.2501 -0.5544
15198TIP3    H267086   1.331   1.773  13.093 -1.1319  0.7224 -0.7638
15199TIP3   OH267087   5.782   4.482  13.616 -0.5732  0.3857  0.5999
15199TIP3    H167088   5.861   4.445  13.655 -0.7039 -0.5730 -0.0121
15199TIP3    H267089   5.809   4.569  13.587 -0.1526  0.6474  1.7189
15200TIP3   OH267090   2.875   0.340   0.497 -0.5138  0.8551 -0.1815
15200TIP3    H167091   2.809   0.409   0.493 -1.2693  0.2009  0.5092
15200TIP3    H267092   2.894   0.332   0.591 -1.6830 -0.9907 -0.0552
15201TIP3   OH267093   4.095   3.426   0.328  0.0014 -0.8333 -0.3491
15201TIP3    H167094   4.094   3.436   0.233  0.7242  0.3851 -0.2398
15201TIP3    H267095   4.127   3.337   0.342  0.0238 -0.9787 -1.2419
15202TIP3   OH267096   1.913   0.707   5.221  0.3516 -0.4254 -0.2701
15202TIP3    H167097   1.976   0.637   5.207 -0.1428 -1.4866  2.3100
15202TIP3    H267098   1.966   0.781   5.253  0.7738  0.2284 -2.3081
15203TIP3   OH267099   6.226   4.900   2.928  0.3305  0.5853 -0.1190
15203TIP3    H167100   6.165   4.967   2.958  0.6908  1.1749 -0.6607
15203TIP3    H267101   6.295   4.898   2.994  0.4888  0.9937 -0.2684
15204TIP3   OH267102   1.743   1.260  12.011 -0.3995 -0.2505 -0.0099
15204TIP3    H167103   1.754   1.283  11.919 -1.3844  0.1097 -0.0461
15204TIP3    H267104   1.790   1.177  12.021  0.9252  0.4145 -0.4949
15205TIP3   OH267105   6.264   1.795  10.933 -0.0022  0.1277 -0.3919
15205TIP3    H167106   6.169   1.784  10.938 -0.2471  1.7194 -1.0516
15205TIP3    H267107   6.289   1.820  11.022 -0.6213  2.3163 -0.7592
15206TIP3   OH267108   5.067   1.225  14.275  0.2767 -0.0470 -0.2623
15206TIP3    H167109   5.015   1.156  14.317 -1.8249  0.0241 -2.5168
15206TIP3    H267110   5.112   1.181  14.204 -0.0905  0.6552 -0.9471
15207TIP3   OH267111   2.411   3.912  12.483  0.6361 -0.3521 -0.0967
15207TIP3    H167112   2.415   3.865  12.400  0.4202 -0.4843 -0.0335
15207TIP3    H267113   2.502   3.918  12.512  0.7769  0.1789 -0.6119
15208TIP3   OH267114   5.957   1.299  11.595  0.3658 -0.5014  0.0812
15208TIP3    H167115   5.937   1.220  11.544 -3.3715  0.2956  0.0209
15208TIP3    H267116   5.990   1.361  11.531  1.5990 -1.3947 -0.1886
15209TIP3   OH267117   5.503   4.706   3.726  0.4617 -0.2467  0.5784
15209TIP3    H167118   5.529   4.687   3.816  2.2625 -0.6997  0.0158
15209TIP3    H267119   5.582   4.688   3.675 -0.7826 -0.8495 -1.2008
15210TIP3   OH267120   5.736   1.432   5.752  0.0500  0.5297  0.2064
15210TIP3    H167121   5.657   1.419   5.805 -0.0213  0.5009  0.0922
15210TIP3    H267122   5.741   1.527   5.741 -0.7921  0.4511 -1.0377
15211TIP3   OH267123   1.701   2.337   5.649  0.1157 -0.3388  0.1361
15211TIP3    H167124   1.609   2.342   5.673  0.4279  0.2050  1.2553
15211TIP3    H267125   1.701   2.286   5.567 -0.9848 -2.2981  1.2650
15212TIP3   OH267126   5.035   1.817  16.328 -0.3511 -0.1858  0.2782
15212TIP3    H167127   5.086   1.841  16.405 -0.8908  1.8222  0.0659
15212TIP3    H267128   4.971   1.888  16.319 -0.9974 -0.9341 -1.3959
15213TIP3   OH267129   6.002   4.095   5.225  0.3672 -0.2629 -0.5624
15213TIP3    H167130   6.021   4.002   5.235 -1.1196 -0.4518  0.9744
15213TIP3    H267131   5.940   4.114   5.295 -1.8116  1.1729 -2.7316
15214TIP3   OH267132   5.340   2.724  13.420 -0.2131 -0.6606 -0.3874
15214TIP3    H167133   5.294   2.740  13.338 -0.6876 -1.0784 -0.2054
15214TIP3    H267134   5.375   2.810  13.445 -0.8533 -0.3489 -0.5500
15215TIP3   OH267135   4.117   5.532  10.888 -0.1934  0.0822 -0.6458
15215TIP3    H167136   4.090   5.524  10.797 -0.3862 -0.3649 -0.5495
15215TIP3    H267137   4.145   5.624  10.897  2.8133 -0.5731 -1.9949
15216TIP3   OH267138   0.624   2.774  16.238 -0.5165  0.4035 -0.6514
15216TIP3    H167139   0.591   2.726  16.161  0.2270 -0.9900 -0.1326
15216TIP3    H267140   0.719   2.769  16.230 -0.4344  0.2019  0.3821
15217TIP3   OH267141   6.208   2.860   4.505 -0.1791  0.0325 -0.4293
15217TIP3    H167142   6.217   2.840   4.412  0.4125  0.0667 -0.3844
15217TIP3    H267143   6.232   2.779   4.549  0.1400  0.2028 -0.2929
15218TIP3   OH267144   1.352   0.223  15.220 -0.3386 -0.5886 -0.1262
15218TIP3    H167145   1.274   0.197  15.171 -0.2287 -1.6302  0.2304
15218TIP3    H267146   1.398   0.141  15.235 -0.6483 -0.3803  2.2042
15219TIP3   OH267147   4.495   0.078  14.016 -0.7974 -0.1585  0.2343
15219TIP3    H167148   4.422   0.017  14.018 -1.6473  0.8110 -0.0395
15219TIP3    H267149   4.563   0.034  13.965 -1.6199 -0.6327 -0.4818
15220TIP3   OH267150   2.292   1.656   0.639  0.0392 -0.3201  0.2942
15220TIP3    H167151   2.203   1.620   0.639  0.1467 -0.6055 -0.5730
15220TIP3    H267152   2.286   1.733   0.695 -0.4839 -0.9776  1.1678
15221TIP3   OH267153   2.752   3.358  12.992  0.6417  0.3248 -0.5897
15221TIP3    H167154   2.815   3.287  13.006  1.4642  1.1785  0.1730
15221TIP3    H267155   2.743   3.363  12.897  0.4353 -0.9080 -0.6512
15222TIP3   OH267156   0.728   0.607  13.240  0.0580 -0.0889 -0.1560
15222TIP3    H167157   0.772   0.527  13.210 -2.1649 -0.9569 -1.2887
15222TIP3    H267158   0.725   0.663  13.162  0.7658  0.7394  0.3918
15223TIP3   OH267159   0.001   5.709  13.611 -0.3352 -0.1447 -0.0261
15223TIP3    H167160   0.043   5.626  13.635 -1.1840 -0.3050  1.0102
15223TIP3    H267161  -0.092   5.690  13.613 -0.5047  0.0497 -2.8813
15224TIP3   OH267162   1.748   1.723   2.816 -0.0162  0.1337  0.1708
15224TIP3    H167163   1.678   1.780   2.783 -0.1548 -0.3398 -0.3579
15224TIP3    H267164   1.820   1.783   2.837  0.0662  0.4550 -0.9652
15225TIP3   OH267165   5.195   3.426  13.553 -0.6094  0.0275  0.1096
15225TIP3    H167166   5.135   3.447  13.482  1.2162  2.2760 -0.8658
15225TIP3    H267167   5.190   3.500  13.613  0.5841 -0.0941  0.4001
15226TIP3   OH267168   1.357   6.070  15.470 -0.2938  0.0961 -0.4806
15226TIP3    H167169   1.286   6.079  15.534 -1.3081 -0.0990 -1.5571
15226TIP3    H267170   1.338   6.136  15.403  1.5818  1.3351  0.1242
15227TIP3   OH267171   4.704   1.292  14.281 -0.3168  0.4691 -0.4160
15227TIP3    H167172   4.748   1.222  14.232  1.1845  1.9962 -1.3679
15227TIP3    H267173   4.660   1.247  14.353  0.7847 -1.4215 -0.8596
15228TIP3   OH267174   3.450   2.455   3.268 -0.2324 -0.2426 -0.0010
15228TIP3    H167175   3.396   2.378   3.249 -0.6509  0.3335 -1.2326
15228TIP3    H267176   3.525   2.447   3.209 -0.6544  0.6677 -0.6821
15229TIP3   OH267177   5.739   5.312  16.902  0.2229 -0.2771 -0.2644
15229TIP3    H167178   5.686   5.254  16.848  0.2524  0.0358 -0.6327
15229TIP3    H267179   5.725   5.280  16.991 -1.3274  0.3739 -0.2388
15230TIP3   OH267180   6.447   6.737  11.996  0.1829  0.4147  0.1877
15230TIP3    H167181   6.416   6.767  12.081 -0.0453  0.5993  0.0370
15230TIP3    H267182   6.406   6.651  11.985  0.3289  0.3235  0.3262
15231TIP3   OH267183   1.618   5.816   5.787  0.1370 -0.5478 -0.2028
15231TIP3    H167184   1.604   5.769   5.706 -0.0693  0.2323 -0.6302
15231TIP3    H267185   1.635   5.748   5.852 -0.6290 -1.2261 -0.7040
15232TIP3   OH267186   4.762   2.978   0.552 -0.0172  0.3173  0.0181
15232TIP3    H167187   4.754   3.018   0.466 -1.6863 -0.4302 -0.2162
15232TIP3    H267188   4.850   2.940   0.553  0.6107  1.6691 -0.7337
15233TIP3   OH267189   0.353   1.357   0.130  0.2268 -1.2830  0.3669
15233TIP3    H167190   0.426   1.330   0.186  1.0001 -0.1747 -0.0653
15233TIP3    H267191   0.381   1.440   0.093 -0.4463 -1.7695 -1.3377
15234TIP3   OH267192   4.978   5.207  10.946 -0.0610 -0.1994  0.0421
15234TIP3    H167193   4.963   5.277  10.883 -0.1543 -1.1718 -1.0694
15234TIP3    H267194   4.978   5.127  10.892  4.0208 -0.8059  0.5999
15235TIP3   OH267195   1.938   6.520  12.454  0.0314 -0.3686  0.1118
15235TIP3    H167196   1.973   6.587  12.513  0.5574 -0.8032  0.2966
15235TIP3    H267197   1.988   6.532  12.373 -0.1428 -0.2911  0.0140
15236TIP3   OH267198   3.263   3.944  13.846 -0.0622  0.4087  0.0009
15236TIP3    H167199   3.205   4.018  13.833  1.0828  1.4779  0.7177
15236TIP3    H267200   3.342   3.967  13.797  0.2308 -0.4296  0.0689
15237TIP3   OH267201   4.395   2.312   3.419  0.7527  0.4151  0.4238
15237TIP3    H167202   4.351   2.244   3.369  1.7077 -0.1820  0.3602
15237TIP3    H267203   4.350   2.393   3.395  0.4188 -0.0247 -0.4708
15238TIP3   OH267204   5.929   2.891   1.416  0.5945  0.2281  0.0387
15238TIP3    H167205   6.017   2.912   1.446  1.0074  1.0679 -1.6303
15238TIP3    H267206   5.874   2.900   1.494  1.6432  1.9502  0.6284
15239TIP3   OH267207   4.615   2.631  11.725 -0.1466  0.6068  0.5242
15239TIP3    H167208   4.648   2.721  11.717 -0.9248  0.8065 -1.0099
15239TIP3    H267209   4.543   2.627  11.661 -0.6879 -0.8594  1.1879
15240TIP3   OH267210   0.427   3.206   5.901 -0.3360  0.2032  0.3687
15240TIP3    H167211   0.501   3.263   5.882 -1.3235  1.4917  0.2559
15240TIP3    H267212   0.394   3.236   5.986 -1.4912  0.5186 -0.1633
15241TIP3   OH267213   3.163   3.835  13.219  0.0175 -0.0794  0.0506
15241TIP3    H167214   3.087   3.838  13.161  0.3506 -0.6691 -0.4285
15241TIP3    H267215   3.163   3.746  13.254 -0.5550  0.4464  1.4901
15242TIP3   OH267216   2.891   3.608   4.041  0.9064  0.3956 -0.0276
15242TIP3    H167217   2.823   3.548   4.011  0.0788  0.9471  0.7020
15242TIP3    H267218   2.945   3.555   4.100 -0.0208  0.4345  0.8826
15243TIP3   OH267219   0.534   3.879  11.693  0.1091  0.6582 -0.2030
15243TIP3    H167220   0.599   3.863  11.624 -0.2060  2.2657 -0.9275
15243TIP3    H267221   0.523   3.974  11.693 -1.4248  0.5050  0.6750
15244TIP3   OH267222   6.372   6.606  10.940  0.5972 -0.0876  0.5327
15244TIP3    H167223   6.400   6.607  11.031  1.2117 -0.7804  0.3658
15244TIP3    H267224   6.445   6.645  10.892 -0.3931  1.7978  0.4885
15245TIP3   OH267225   1.387   2.241   5.102 -0.2029  0.5078 -0.0734
15245TIP3    H167226   1.387   2.178   5.174  0.3571 -1.0368 -1.3790
15245TIP3    H267227   1.331   2.313   5.134 -3.1361 -1.7943  0.4758
15246TIP3   OH267228   6.657   0.955   4.503 -0.7979  0.4864 -0.1769
15246TIP3    H167229   6.707   0.922   4.578 -1.1520  1.4319  0.4972
15246TIP3    H267230   6.643   0.879   4.448  0.1320 -0.0809  0.3426
15247TIP3   OH267231   3.106   0.900   6.224  0.7208 -0.6735 -0.5404
15247TIP3    H167232   3.164   0.929   6.294 -0.4520  1.6852 -0.4223
15247TIP3    H267233   3.019   0.900   6.264  0.2740 -1.1486 -1.4865
15248TIP3   OH267234   1.190   6.742   5.324 -0.4224  0.2808  0.1078
15248TIP3    H167235   1.254   6.729   5.254  0.4429 -0.2958  0.9708
15248TIP3    H267236   1.242   6.776   5.398 -0.5433 -2.6471  1.6988
15249TIP3   OH267237   2.037   5.671  15.645 -0.5928 -0.6266 -0.3682
15249TIP3    H167238   1.973   5.636  15.707 -0.6395 -2.1499 -1.2169
15249TIP3    H267239   1.986   5.728  15.588 -1.2869 -1.9249 -1.1140
15250TIP3   OH267240   0.712   1.060  12.028 -0.1787  0.2155  0.1974
15250TIP3    H167241   0.735   1.015  12.109  2.4958 -0.5642 -0.8832
15250TIP3    H267242   0.657   0.997  11.981  2.4019 -1.5768 -0.6952
15251TIP3   OH267243   1.401   3.944  15.590  0.3630 -0.6774  0.6950
15251TIP3    H167244   1.417   3.869  15.533  0.4469 -1.7565  2.1133
15251TIP3    H267245   1.425   3.914  15.677 -0.7339  0.6137  1.4747
15252TIP3   OH267246   6.127   1.085  14.646  0.0474  0.3877  0.3586
15252TIP3    H167247   6.155   1.175  14.628 -1.3247  1.2196  2.1041
15252TIP3    H267248   6.132   1.042  14.560  0.6120  2.1318 -0.5558
15253TIP3   OH267249   2.900   5.630   3.339  0.0598  0.0672 -0.6336
15253TIP3    H167250   2.914   5.545   3.380  0.4995  1.1264  1.5763
15253TIP3    H267251   2.906   5.693   3.411 -0.7784  1.9420 -2.0955
15254TIP3   OH267252   0.408   3.612  15.481 -1.1238 -0.1226  0.1439
15254TIP3    H167253   0.328   3.572  15.515 -0.9441  0.8212  1.7778
15254TIP3    H267254   0.408   3.701  15.518 -0.1209  0.4380 -1.1373
15255TIP3   OH267255   5.993   0.480   1.462  0.3498  0.4073 -0.5009
15255TIP3    H167256   5.952   0.478   1.548 -0.2775 -1.7963 -0.7829
15255TIP3    H267257   5.940   0.543   1.412  0.2276  1.0974  0.4815
15256TIP3   OH267258   0.925   5.376   3.398  0.1169  0.1393 -0.2193
15256TIP3    H167259   0.874   5.410   3.324 -0.0302  0.4762  0.0316
15256TIP3    H267260   1.003   5.338   3.358  1.0876  2.1939 -0.4347
15257TIP3   OH267261   3.234   2.863  13.116 -0.0800  0.2333 -0.3479
15257TIP3    H167262   3.304   2.876  13.180 -0.5847  2.3173 -0.1676
15257TIP3    H267263   3.256   2.780  13.074  1.3487 -0.1897  1.1411
15258TIP3   OH267264   5.052   6.349   6.453  0.1337 -0.6429  0.1572
15258TIP3    H167265   5.042   6.402   6.374  1.1298  1.0944  1.1064
15258TIP3    H267266   5.051   6.413   6.524 -0.4956 -2.1317  1.5439
15259TIP3   OH267267   0.669   1.238   6.534 -0.2895  0.5669  0.0626
15259TIP3    H167268   0.706   1.158   6.572  0.7865 -0.6167 -3.1372
15259TIP3    H267269   0.594   1.258   6.589  1.4082 -0.5904  3.0557
15260TIP3   OH267270   1.351   5.150   5.998 -0.3290 -0.8259 -0.1277
15260TIP3    H167271   1.375   5.058   5.997  1.8301 -0.3020 -1.0428
15260TIP3    H267272   1.334   5.172   5.907  2.2083  0.3522 -0.3951
15261TIP3   OH267273   5.382   3.841   2.697  0.3690  0.1862 -0.2568
15261TIP3    H167274   5.357   3.821   2.607 -0.2153 -1.2100  0.1759
15261TIP3    H267275   5.343   3.926   2.716 -2.5636 -1.0623 -0.2225
15262TIP3   OH267276   3.119   3.761   1.283  0.2708  0.1480 -0.1389
15262TIP3    H167277   3.183   3.784   1.216  1.8431 -0.0244  1.2343
15262TIP3    H267278   3.122   3.833   1.345 -0.7627  0.0551  0.0277
15263TIP3   OH267279   0.280   3.278  14.379 -0.0717 -0.4128 -0.0769
15263TIP3    H167280   0.345   3.245  14.317  0.6640 -0.6022  0.7729
15263TIP3    H267281   0.213   3.319  14.325 -0.6578 -2.6270 -1.1505
15264TIP3   OH267282   1.076   4.183   2.657 -0.1361 -0.1650 -0.0416
15264TIP3    H167283   1.059   4.217   2.745  0.9292  0.7502 -0.1754
15264TIP3    H267284   1.139   4.244   2.619  1.3295 -1.9088 -0.5373
15265TIP3   OH267285   0.739   4.531  14.361  0.2655  0.2883 -0.0719
15265TIP3    H167286   0.705   4.478  14.433 -2.2677  0.4020 -1.0827
15265TIP3    H267287   0.806   4.586  14.401  0.8444 -1.5198  1.6126
15266TIP3   OH267288   1.640   2.789   4.146 -0.0074  0.2824  0.6750
15266TIP3    H167289   1.718   2.808   4.094  0.3515  0.6600  1.3413
15266TIP3    H267290   1.619   2.698   4.125 -0.2179  0.5998 -0.5787
15267TIP3   OH267291   4.727   3.281  15.789 -0.1434 -0.1002  0.4621
15267TIP3    H167292   4.662   3.299  15.857 -0.9957 -1.3506  0.0228
15267TIP3    H267293   4.754   3.191  15.805 -0.6330 -0.5450 -1.0478
15268TIP3   OH267294   2.578   3.262  15.773  0.2662  0.4659 -0.4940
15268TIP3    H167295   2.564   3.168  15.787 -1.0518  0.5918 -0.7771
15268TIP3    H267296   2.606   3.269  15.682  0.7891  0.3168 -0.3465
15269TIP3   OH267297   4.857   0.732  17.030 -0.2895  0.5348 -0.1191
15269TIP3    H167298   4.951   0.712  17.027 -0.8436 -2.5737  0.6844
15269TIP3    H267299   4.820   0.685  16.956 -1.4502  0.2600  0.6138
15270TIP3   OH267300   4.470   5.434   2.635  0.8774  1.0920 -0.1966
15270TIP3    H167301   4.556   5.392   2.629  0.3706  0.1461 -1.1490
15270TIP3    H267302   4.461   5.457   2.727  1.3211 -0.6356  0.3192
15271TIP3   OH267303   0.548   6.413  14.530  0.2456 -0.5442  0.3882
15271TIP3    H167304   0.491   6.443  14.459 -0.7962 -0.4186  1.2424
15271TIP3    H267305   0.573   6.493  14.576  0.4762 -0.6699  0.4834
15272TIP3   OH267306   0.380   6.567   6.510 -0.0031 -0.1175  0.1123
15272TIP3    H167307   0.377   6.649   6.561  0.0292  0.6594 -1.0861
15272TIP3    H267308   0.289   6.539   6.505 -0.0381 -0.0576  0.3686
15273TIP3   OH267309   0.792   1.850   3.387 -0.2358 -0.2425  0.1412
15273TIP3    H167310   0.727   1.851   3.317 -0.4236 -0.0346  0.3193
15273TIP3    H267311   0.755   1.904   3.456  0.7014  0.9407 -0.2575
15274TIP3   OH267312   0.679   4.558  13.116 -0.0622 -0.3546  0.0606
15274TIP3    H167313   0.590   4.591  13.101  0.5589  0.1734 -3.2086
15274TIP3    H267314   0.717   4.619  13.178 -0.8199  1.7270 -1.4134
15275TIP3   OH267315   5.792   3.547   4.888  0.4933  0.6496  0.7035
15275TIP3    H167316   5.787   3.636   4.855 -0.2046  0.9741  1.6348
15275TIP3    H267317   5.739   3.496   4.826 -0.1508  1.1113  0.8579
15276TIP3   OH267318   5.192   1.053  14.033 -0.6661 -0.1774  0.0334
15276TIP3    H167319   5.264   1.056  13.970 -0.6716  1.0270  0.0608
15276TIP3    H267320   5.130   1.119  14.002 -0.9772 -0.0293  0.9395
15277TIP3   OH267321   2.623   5.137  13.778  0.0584  0.1227 -0.3165
15277TIP3    H167322   2.614   5.044  13.758 -1.9907 -0.0960  1.2592
15277TIP3    H267323   2.556   5.180  13.726  1.2263  0.7982 -1.3052
15278TIP3   OH267324   6.807   5.187   3.394 -0.7675  0.1942 -0.3351
15278TIP3    H167325   6.877   5.173   3.331 -1.4612 -1.4970 -0.7796
15278TIP3    H267326   6.839   5.258   3.451  1.4071 -0.7232 -0.3341
15279TIP3   OH267327   3.836   0.232  16.514 -0.8440 -0.2025  0.0049
15279TIP3    H167328   3.757   0.202  16.559 -1.4389 -0.6504 -1.2870
15279TIP3    H267329   3.809   0.314  16.472 -0.4287 -0.0210  0.0908
15280TIP3   OH267330   0.510   6.021  15.842  0.0198  0.3325 -0.1433
15280TIP3    H167331   0.487   6.031  15.749 -0.3714  0.2211 -0.0625
15280TIP3    H267332   0.440   6.066  15.888  1.0425  1.7613  0.0598
15281TIP3   OH267333   6.797   5.945   0.480  0.2933 -0.2118  0.0626
15281TIP3    H167334   6.794   5.938   0.575 -2.4546 -2.5957 -0.0721
15281TIP3    H267335   6.802   6.039   0.463 -2.1449  0.4956  2.5938
15282TIP3   OH267336   2.107   1.935  13.433  0.5064  0.2175  0.1492
15282TIP3    H167337   2.016   1.911  13.447  0.4757 -0.3855 -0.9597
15282TIP3    H267338   2.112   2.028  13.456 -0.7450  0.6741 -1.2960
15283TIP3   OH267339   6.724   3.602   4.900  0.3212  0.2674  0.0880
15283TIP3    H167340   6.707   3.667   4.967  1.0849  0.7709 -0.1864
15283TIP3    H267341   6.659   3.619   4.832  0.7967  1.0456 -0.1855
15284TIP3   OH267342   3.721   0.463  16.416 -0.1949  0.3965  0.1737
15284TIP3    H167343   3.764   0.541  16.383 -1.0378  1.8635  2.2853
15284TIP3    H267344   3.628   0.487  16.423 -0.6198 -1.0922  0.0321
15285TIP3   OH267345   5.143   5.214   1.716 -0.4172  0.4255 -0.4506
15285TIP3    H167346   5.149   5.127   1.677 -1.6510  0.5949 -1.0826
15285TIP3    H267347   5.138   5.198   1.810  0.9981 -0.0812 -0.4495
15286TIP3   OH267348   3.791   6.558   3.573  0.3653 -0.1474 -0.8006
15286TIP3    H167349   3.704   6.550   3.613  0.5009  3.3467  0.5141
15286TIP3    H267350   3.820   6.468   3.561 -2.5836 -1.4222  0.6292
15287TIP3   OH267351   4.450   3.702  13.927 -0.3730 -0.0374  0.0330
15287TIP3    H167352   4.452   3.730  14.019 -0.8224 -1.2031  0.4250
15287TIP3    H267353   4.468   3.608  13.931 -0.0013 -0.0257 -1.1193
15288TIP3   OH267354   1.301   5.797  15.493  0.0873  0.2951 -0.0380
15288TIP3    H167355   1.355   5.876  15.494  1.4611 -0.2427 -4.6784
15288TIP3    H267356   1.233   5.815  15.429 -1.8929 -1.0631  1.5603
15289TIP3   OH267357   1.955   6.338   4.343  0.4247 -0.3693  0.0251
15289TIP3    H167358   1.874   6.348   4.293 -0.0384 -0.0136  0.8374
15289TIP3    H267359   1.942   6.391   4.422  1.5866 -0.0193 -0.0008
15290TIP3   OH267360   4.954   4.426  16.792 -0.1965  0.5361  0.2056
15290TIP3    H167361   4.960   4.357  16.858 -0.3293 -0.1800 -0.5268
15290TIP3    H267362   5.040   4.470  16.796  0.2617 -0.3167 -0.0254
15291TIP3   OH267363   5.643   3.523  12.700 -0.1205 -0.1983 -0.3949
15291TIP3    H167364   5.607   3.489  12.618 -0.1104  0.5941 -0.7367
15291TIP3    H267365   5.724   3.474  12.712 -0.5785 -0.9787 -0.3667
15292TIP3   OH267366   1.622   1.944   2.717  0.2600  0.4283 -0.4843
15292TIP3    H167367   1.552   1.976   2.775 -1.2311 -1.8425 -0.9100
15292TIP3    H267368   1.699   1.994   2.743 -1.2753  2.3258  0.7027
15293TIP3   OH267369   4.186   6.324  13.915 -0.3675 -0.3150  0.7926
15293TIP3    H167370   4.150   6.249  13.869  1.4384 -1.0214  0.4214
15293TIP3    H267371   4.244   6.286  13.981  0.0129  0.7372  1.0860
15294TIP3   OH267372   5.683   0.586   1.178  0.2670 -0.6533 -0.4636
15294TIP3    H167373   5.608   0.526   1.168 -1.0466  0.9556 -0.6213
15294TIP3    H267374   5.684   0.638   1.098 -0.9341  2.0124  1.1238
15295TIP3   OH267375   1.000   1.159  13.323 -0.4070 -0.2229  0.9303
15295TIP3    H167376   0.920   1.109  13.306  0.8800 -1.8411 -0.8260
15295TIP3    H267377   1.029   1.188  13.236  0.1520  1.6626  1.6786
15296TIP3   OH267378   5.496   2.054  11.233 -0.5274 -0.0794 -0.0083
15296TIP3    H167379   5.487   2.078  11.325  1.6319 -1.1500  0.5474
15296TIP3    H267380   5.589   2.062  11.215 -0.8718 -0.1687 -2.0469
15297TIP3   OH267381   6.512   3.524   4.644  0.3041 -0.2518 -0.1553
15297TIP3    H167382   6.480   3.436   4.667  0.3383  0.1966  1.7394
15297TIP3    H267383   6.475   3.540   4.557 -2.8647 -0.6611  0.9959
15298TIP3   OH267384   2.433   3.806  15.279  0.0443  0.1066 -0.6016
15298TIP3    H167385   2.421   3.870  15.208  0.9264  2.4864  1.2315
15298TIP3    H267386   2.346   3.772  15.296 -0.6282  1.4868 -1.1034
15299TIP3   OH267387   0.891   4.980   4.818 -0.0256  0.2476 -0.5585
15299TIP3    H167388   0.800   4.990   4.791 -0.6728 -1.2258  0.9366
15299TIP3    H267389   0.902   4.886   4.832  1.7996  0.3670 -0.8814
15300TIP3   OH267390   3.422   5.667   4.717  0.1729  0.1924 -0.2144
15300TIP3    H167391   3.438   5.575   4.734  0.8828  0.3047 -0.2739
15300TIP3    H267392   3.346   5.688   4.772 -0.9738 -0.7933 -1.3602
15301TIP3   OH267393   6.394   1.714   0.939  0.0494  0.1839  0.1366
15301TIP3    H167394   6.320   1.715   1.001  1.0701  3.3756  1.5563
15301TIP3    H267395   6.363   1.768   0.866  0.2058 -0.3333 -0.3098
15302TIP3   OH267396   5.032   2.187  15.596 -0.3721  0.2965  0.9687
15302TIP3    H167397   5.118   2.191  15.553  0.1521 -0.9459  1.8430
15302TIP3    H267398   4.970   2.184  15.524  0.1284  3.1201  0.2675
15303TIP3   OH267399   1.162   5.805   4.016  0.4831 -0.2641  0.2483
15303TIP3    H167400   1.105   5.817   4.093  0.3432  0.9664 -0.0168
15303TIP3    H267401   1.250   5.812   4.051  0.4185  0.3513  0.3030
15304TIP3   OH267402   2.434   3.839   4.170 -0.2298  0.0210 -0.1558
15304TIP3    H167403   2.347   3.808   4.144  0.3169 -0.5799 -1.3547
15304TIP3    H267404   2.460   3.779   4.240 -0.3333 -0.5193 -0.5650
15305TIP3   OH267405   4.304   6.527  10.389 -0.4638 -0.1122  0.7172
15305TIP3    H167406   4.215   6.516  10.355 -0.0734 -1.4427  0.0552
15305TIP3    H267407   4.307   6.471  10.467 -0.2026 -0.0740  0.7350
15306TIP3   OH267408   6.235   1.791  16.760  0.0160 -0.1393  0.0613
15306TIP3    H167409   6.154   1.822  16.719  1.0594 -2.5095 -4.4263
15306TIP3    H267410   6.210   1.710  16.805 -0.1441 -0.8993 -1.3640
15307TIP3   OH267411   1.274   5.758   5.554  0.3114  0.6883  0.2433
15307TIP3    H167412   1.330   5.812   5.499 -0.7812 -0.1143 -1.7631
15307TIP3    H267413   1.244   5.816   5.623  0.5686  2.1704 -0.8565
15308TIP3   OH267414   5.577   4.833  13.621  0.0554 -0.4560  0.1771
15308TIP3    H167415   5.650   4.800  13.569  0.3150  0.4884 -0.0808
15308TIP3    H267416   5.605   4.920  13.649 -0.8248 -0.2278  0.3742
15309TIP3   OH267417   2.262   3.697   2.958 -0.7658  0.0630  0.3027
15309TIP3    H167418   2.341   3.655   2.994 -0.5987  0.8169  0.8578
15309TIP3    H267419   2.196   3.687   3.027 -0.4935  1.3735  0.7845
15310TIP3   OH267420   3.273   3.492   4.320 -0.5339 -0.3169 -0.0862
15310TIP3    H167421   3.239   3.579   4.337 -2.5042 -1.4521  2.5514
15310TIP3    H267422   3.204   3.447   4.272 -1.6014 -1.6791  2.5085
15311TIP3   OH267423   2.612   5.915   0.853 -0.0999  0.0512 -0.2356
15311TIP3    H167424   2.541   5.851   0.849  0.9262 -1.0769 -1.0266
15311TIP3    H267425   2.600   5.958   0.937 -1.3420 -0.5590 -0.0720
15312TIP3   OH267426   1.336   1.525  12.409  0.0659 -0.6305  0.1048
15312TIP3    H167427   1.416   1.480  12.437  0.5506  0.2852  0.2504
15312TIP3    H267428   1.290   1.544  12.491  0.3711  0.0299  0.1352
15313TIP3   OH267429   6.298   0.759   4.973 -0.7231  0.1552 -0.4348
15313TIP3    H167430   6.346   0.767   4.890 -0.1201 -1.1805 -0.2309
15313TIP3    H267431   6.346   0.816   5.034  0.6274 -1.1219 -0.2455
15314TIP3   OH267432   6.749   2.908   4.773  0.3195  0.4708 -0.3372
15314TIP3    H167433   6.741   2.914   4.868  2.6126 -2.8263  0.2284
15314TIP3    H267434   6.663   2.879   4.743 -0.2311  0.9135  0.7658
15315TIP3   OH267435   4.568   6.078   5.379 -0.5268 -0.6592  0.3910
15315TIP3    H167436   4.540   5.997   5.338  0.3235 -0.1974 -1.1753
15315TIP3    H267437   4.486   6.124   5.400 -1.0402 -0.5108 -1.6722
15316TIP3   OH267438   2.123   6.220   2.387  0.5473  0.0693 -0.0470
15316TIP3    H167439   2.195   6.240   2.447 -0.4997  0.2741  1.1810
15316TIP3    H267440   2.159   6.153   2.329  1.3641 -0.7241  1.3104
15317TIP3   OH267441   5.243   2.597  13.879 -0.0886 -0.1268  0.3797
15317TIP3    H167442   5.211   2.686  13.893 -0.4227 -0.1483 -0.2207
15317TIP3    H267443   5.176   2.556  13.824 -0.7365 -1.2482  1.9480
15318TIP3   OH267444   3.545   6.424  13.570 -0.3093 -0.5177 -0.3226
15318TIP3    H167445   3.548   6.400  13.477 -0.6281 -0.3943 -0.3670
15318TIP3    H267446   3.619   6.484  13.581 -0.6501 -0.0232 -0.6516
15319TIP3   OH267447   5.178   2.840   1.937 -0.2454 -0.0178  0.4494
15319TIP3    H167448   5.156   2.910   1.875 -0.6739  1.1408  1.8594
15319TIP3    H267449   5.158   2.876   2.023 -0.0283 -1.7226  1.2670
15320TIP3   OH267450   2.725   6.443   3.717 -0.8456  0.0289  0.4454
15320TIP3    H167451   2.634   6.430   3.691 -1.0317  2.1068 -0.1221
15320TIP3    H267452   2.754   6.519   3.667  1.2234 -0.5832  0.6117
15321TIP3   OH267453   2.143   5.121   4.649 -0.0456  0.1907  0.7836
15321TIP3    H167454   2.186   5.036   4.654 -0.1461  0.1465  0.9228
15321TIP3    H267455   2.214   5.183   4.632  0.2549  0.2583  2.1200
15322TIP3   OH267456   5.866   6.221   2.005 -0.1348 -0.3523 -0.1536
15322TIP3    H167457   5.909   6.161   1.944 -0.3594 -0.5490 -0.1236
15322TIP3    H267458   5.937   6.266   2.050  0.0470 -1.0157  0.2330
15323TIP3   OH267459   3.922   3.812  13.543 -0.7410  0.3798  0.2651
15323TIP3    H167460   3.962   3.775  13.464 -1.4265 -0.0379  0.1083
15323TIP3    H267461   3.829   3.815  13.524 -0.8619  0.7365  0.8782
15324TIP3   OH267462   6.696   1.069  12.568  0.1054 -0.4577 -0.1066
15324TIP3    H167463   6.772   1.067  12.509  0.7803  1.7222  0.5970
15324TIP3    H267464   6.629   1.117  12.519  0.2977  0.4165  0.4825
15325TIP3   OH267465   4.588   0.313  16.790  0.3420  0.7553 -0.7798
15325TIP3    H167466   4.606   0.389  16.734 -0.2776  2.1088  0.7831
15325TIP3    H267467   4.526   0.345  16.855 -0.4966 -1.3030 -0.4842
15326TIP3   OH267468   0.978   4.067  13.751  0.0015 -0.2458  0.6830
15326TIP3    H167469   0.937   4.101  13.671 -0.4596 -2.2749  0.0033
15326TIP3    H267470   0.909   4.018  13.795  0.5560 -0.0685  1.7817
15327TIP3   OH267471   1.576   1.787  15.262  0.4035 -0.2326 -0.0582
15327TIP3    H167472   1.556   1.711  15.316  0.2606  1.0750  1.8445
15327TIP3    H267473   1.532   1.770  15.178  0.9701 -2.5074  0.0599
15328TIP3   OH267474   0.128   3.568  13.741  0.0596  0.4005  0.4728
15328TIP3    H167475   0.215   3.608  13.750 -0.2492  0.9091  1.4219
15328TIP3    H267476   0.111   3.529  13.827 -1.3261  1.7522  0.8628
15329TIP3   OH267477   0.938   2.376  15.535 -0.1717 -0.2328 -0.6769
15329TIP3    H167478   0.935   2.281  15.529  0.2275 -0.2237 -1.0687
15329TIP3    H267479   0.913   2.396  15.625  2.6168 -0.8566  0.3349
15330TIP3   OH267480   1.991   2.802  12.257  0.2938  0.0889  0.5383
15330TIP3    H167481   2.040   2.721  12.245 -0.1477 -0.9600  4.3244
15330TIP3    H267482   2.054   2.862  12.298 -0.8672 -0.6420  3.6920
15331TIP3   OH267483   3.292   1.184   1.269  0.0154 -0.1135  0.0195
15331TIP3    H167484   3.362   1.152   1.326  0.2165 -1.0730 -0.7416
15331TIP3    H267485   3.274   1.272   1.301  1.8564  0.3173 -0.0107
15332TIP3   OH267486   5.057   2.611  16.421  0.0176 -0.2525 -0.3872
15332TIP3    H167487   5.087   2.592  16.510 -0.3178  1.2846  0.0869
15332TIP3    H267488   5.127   2.664  16.382 -0.1995 -0.2187 -0.7391
15333TIP3   OH267489   3.350   6.078   2.967  0.5721 -0.4060  0.4049
15333TIP3    H167490   3.340   6.152   2.907  3.8209 -0.8746 -0.9259
15333TIP3    H267491   3.322   6.002   2.916  0.2753 -0.4460  0.6282
15334TIP3   OH267492   0.042   6.776   0.090  0.2457  0.0766  0.6463
15334TIP3    H167493   0.078   6.776   0.001 -0.6506  0.5383  0.2774
15334TIP3    H267494   0.117   6.757   0.146  1.0482  0.9509 -0.1111
15335TIP3   OH267495   2.122   0.970   1.923 -0.1509  0.1198  0.1645
15335TIP3    H167496   2.051   1.020   1.962 -1.7249 -1.6655 -0.2750
15335TIP3    H267497   2.122   0.886   1.969  1.2435 -0.1751 -0.3082
15336TIP3   OH267498   0.120   3.323   5.356  0.1739  0.1672 -0.4249
15336TIP3    H167499   0.075   3.238   5.351  1.3044 -0.4265 -0.7675
15336TIP3    H267500   0.061   3.378   5.408 -0.3828 -0.9623  0.1768
15337TIP3   OH267501   5.510   3.716  16.545 -0.4911 -0.2890 -0.1255
15337TIP3    H167502   5.573   3.777  16.507 -0.3627 -0.0240  0.5032
15337TIP3    H267503   5.485   3.756  16.629  0.7287 -1.7979  1.0085
15338TIP3   OH267504   5.102   0.876  16.373  0.5775 -1.1717 -0.0774
15338TIP3    H167505   5.135   0.786  16.369  0.5319 -1.1959  0.0637
15338TIP3    H267506   5.094   0.903  16.282  1.0586 -1.1394 -0.1112
15339TIP3   OH267507   4.797   0.845   4.067  0.0963 -0.0349  0.1711
15339TIP3    H167508   4.744   0.877   3.994  1.5844 -0.1977 -1.0284
15339TIP3    H267509   4.838   0.766   4.034 -0.4674 -1.0454  1.7738
15340TIP3   OH267510   3.211   5.587   5.015 -0.0785  0.6965 -0.0112
15340TIP3    H167511   3.189   5.670   5.056 -2.5646  0.5997 -0.9252
15340TIP3    H267512   3.222   5.526   5.088  2.7109  1.9486  0.7113
15341TIP3   OH267513   3.869   2.913   6.245 -0.0981  0.6812 -0.6468
15341TIP3    H167514   3.848   3.005   6.259 -1.0688  0.5396 -1.0945
15341TIP3    H267515   3.862   2.873   6.332 -0.7702  0.8307 -0.6242
15342TIP3   OH267516   5.624   0.516  11.824 -0.1112  0.9175  0.3267
15342TIP3    H167517   5.661   0.595  11.783 -0.5430  1.0225  0.1311
15342TIP3    H267518   5.587   0.548  11.906  1.5001  0.5657  1.2427
15343TIP3   OH267519   2.956   5.882   6.214 -0.6208 -0.1565 -0.4731
15343TIP3    H167520   3.024   5.817   6.226 -1.7076 -1.1910  0.2985
15343TIP3    H267521   3.001   5.966   6.224  0.5998 -0.7989 -0.3963
15344TIP3   OH267522   4.944   3.031   5.888  0.6559 -0.4300 -0.5533
15344TIP3    H167523   4.856   3.053   5.859 -0.3529  1.1523  3.1128
15344TIP3    H267524   4.999   3.100   5.853 -0.1807  0.4248 -0.2268
15345TIP3   OH267525   6.131   1.711  13.851 -0.0258  0.6949  0.5198
15345TIP3    H167526   6.137   1.682  13.942 -3.9123  0.4259  0.8463
15345TIP3    H267527   6.079   1.644  13.807  0.9194  1.3202 -1.7007
15346TIP3   OH267528   2.673   5.679   5.872  0.0232 -0.7542  0.0120
15346TIP3    H167529   2.694   5.769   5.895  1.9900 -1.5661  1.6550
15346TIP3    H267530   2.685   5.630   5.953 -0.6300 -2.5735 -0.9424
15347TIP3   OH267531   5.724   2.669   5.952 -0.1158 -0.1743 -0.1156
15347TIP3    H167532   5.763   2.707   6.031  1.8828 -0.3605 -0.9528
15347TIP3    H267533   5.638   2.710   5.945  0.4805  1.3435  1.0549
15348TIP3   OH267534   5.330   0.466  16.231  0.1929 -0.0635 -0.4510
15348TIP3    H167535   5.349   0.381  16.191  1.4858  0.6070 -1.3122
15348TIP3    H267536   5.364   0.458  16.320 -1.5680 -1.1286  0.1808
15349TIP3   OH267537   0.801   2.482  14.089  0.2182  0.2609  0.0349
15349TIP3    H167538   0.834   2.563  14.129 -0.3921  0.5180  0.0202
15349TIP3    H267539   0.719   2.508  14.047  1.2661  0.2024 -2.1718
15350TIP3   OH267540   4.467   4.274  11.241 -0.2300 -0.2654  0.0937
15350TIP3    H167541   4.486   4.335  11.170  1.6998  0.2656  1.0030
15350TIP3    H267542   4.470   4.328  11.320 -1.4525 -1.0077  0.6753
15351TIP3   OH267543   2.115   3.136   5.401 -0.3789 -0.1139  0.6859
15351TIP3    H167544   2.092   3.131   5.308 -0.4536  1.6118  0.5811
15351TIP3    H267545   2.146   3.048   5.423  0.6648 -0.2829 -1.2587
15352TIP3   OH267546   3.171   5.080  10.963 -0.2837  0.0705  0.0621
15352TIP3    H167547   3.123   5.158  10.992 -0.4983 -0.1156  0.2026
15352TIP3    H267548   3.213   5.108  10.881 -1.0413  0.0777 -0.3262
15353TIP3   OH267549   6.299   2.857   6.132 -0.4644  0.1182 -0.1341
15353TIP3    H167550   6.347   2.892   6.207 -1.5152  1.2250  0.0624
15353TIP3    H267551   6.260   2.776   6.164  1.2945 -0.8467 -0.3255
15354TIP3   OH267552   0.318   6.679   2.081 -0.4029  1.0340  0.2364
15354TIP3    H167553   0.244   6.635   2.121 -0.2135  1.4538  1.0865
15354TIP3    H267554   0.366   6.717   2.155  1.4333 -0.3798 -0.1366
15355TIP3   OH267555   2.260   1.552   3.514  0.8782  0.0213 -0.2268
15355TIP3    H167556   2.286   1.482   3.573  2.0218  1.1762  0.6765
15355TIP3    H267557   2.164   1.544   3.508  0.6656  0.2035  2.2161
15356TIP3   OH267558   4.100   5.344   5.138 -0.0440 -0.0245  0.0620
15356TIP3    H167559   4.007   5.367   5.140 -0.3671 -1.2912  0.8332
15356TIP3    H267560   4.139   5.407   5.079 -1.4600  0.3282 -0.5366
15357TIP3   OH267561   4.429   2.185  15.515  0.5744 -0.3815 -0.2513
15357TIP3    H167562   4.425   2.114  15.580 -0.0308 -0.1851 -0.0704
15357TIP3    H267563   4.472   2.257  15.561  0.9708 -0.5435 -0.3601
15358TIP3   OH267564   5.900   1.127   3.180 -0.1259 -0.2700  0.3500
15358TIP3    H167565   5.932   1.069   3.111 -0.9132 -1.9034  1.2732
15358TIP3    H267566   5.978   1.162   3.221  0.3646 -0.2574 -0.5759
15359TIP3   OH267567   2.871   6.522   0.794 -0.7835 -0.0997  1.0600
15359TIP3    H167568   2.798   6.571   0.757 -1.8201 -0.6855  2.2441
15359TIP3    H267569   2.830   6.462   0.856  0.4423 -2.3234 -0.1531
15360TIP3   OH267570   2.494   1.777  16.270 -0.3791 -0.7020 -0.0112
15360TIP3    H167571   2.524   1.859  16.308 -1.3148 -1.7839  3.4322
15360TIP3    H267572   2.524   1.710  16.331  0.7756 -3.0687 -2.9348
15361TIP3   OH267573   1.819   3.985  14.339  0.1319  0.2099 -0.2752
15361TIP3    H167574   1.769   3.939  14.406 -0.0637  1.7867  0.7163
15361TIP3    H267575   1.797   4.077  14.352  0.2501  0.5895 -2.3928
15362TIP3   OH267576   2.102   0.533   5.193 -0.0019  0.7869  0.0038
15362TIP3    H167577   2.131   0.466   5.255  2.6085  2.0269  0.2624
15362TIP3    H267578   2.146   0.614   5.222 -1.8807  2.3033 -1.1329
15363TIP3   OH267579   3.358   6.461  12.824  0.4829  0.3179  0.2588
15363TIP3    H167580   3.354   6.367  12.839  1.3422  0.3946  1.0761
15363TIP3    H267581   3.276   6.482  12.779 -0.0278 -0.7050  0.6909
15364TIP3   OH267582   3.201   4.258  16.335  0.0446 -0.0629  0.0103
15364TIP3    H167583   3.160   4.181  16.296 -0.4482  0.1689  0.0702
15364TIP3    H267584   3.259   4.222  16.402 -0.4221 -0.3703  0.2544
15365TIP3   OH267585   6.745   3.204   4.800  0.2835  0.1586  0.4054
15365TIP3    H167586   6.664   3.245   4.771  0.6530  0.3037 -0.4289
15365TIP3    H267587   6.741   3.114   4.766  0.8128  0.3924 -0.2988
15366TIP3   OH267588   0.624   0.994  12.649  0.3887 -0.2982 -0.1304
15366TIP3    H167589   0.696   1.005  12.587  0.4106 -1.6753 -0.3866
15366TIP3    H267590   0.572   0.921  12.613 -0.8570  0.3361  0.3078
15367TIP3   OH267591   0.715   5.638   3.281  0.7833  0.5021 -0.5506
15367TIP3    H167592   0.723   5.561   3.224  0.1730 -0.0555  0.1043
15367TIP3    H267593   0.650   5.613   3.347  2.1366  0.7641  0.9617
15368TIP3   OH267594   6.421   1.225  11.809 -0.1594 -0.1844 -0.0484
15368TIP3    H167595   6.360   1.158  11.838  0.7863 -1.3842 -0.7576
15368TIP3    H267596   6.507   1.187  11.823  0.4376  1.3177  0.5317
15369TIP3   OH267597   0.333   3.936  15.967  0.2643  0.1068  0.4130
15369TIP3    H167598   0.399   3.869  15.952 -0.1288 -0.4367  1.0855
15369TIP3    H267599   0.371   4.016  15.929  1.7861  0.0601  1.7303
15370TIP3   OH267600   3.641   5.343   3.569 -0.5980 -0.0677 -0.0701
15370TIP3    H167601   3.612   5.387   3.489 -1.0008 -1.6100 -0.8110
15370TIP3    H267602   3.726   5.383   3.588 -0.3659  0.1568 -1.4432
15371TIP3   OH267603   6.820   5.665  16.251 -0.1131  0.0005  0.1076
15371TIP3    H167604   6.732   5.696  16.268 -0.8465 -2.1974  0.6120
15371TIP3    H267605   6.814   5.570  16.257  2.4200 -0.1980  0.8328
15372TIP3   OH267606   3.425   0.948   0.897  0.3093  0.1014  0.0242
15372TIP3    H167607   3.486   0.935   0.825  0.4697 -1.6285  0.4481
15372TIP3    H267608   3.476   0.935   0.976 -0.2797  0.0911  0.4142
15373TIP3   OH267609   6.656   1.581   3.453 -0.1404  0.0910  0.1019
15373TIP3    H167610   6.723   1.639   3.490 -0.4873  1.0357 -0.7280
15373TIP3    H267611   6.705   1.517   3.401  0.2667 -0.5678  1.2563
15374TIP3   OH267612   4.728   2.933   2.565  0.4291 -0.1619  0.4185
15374TIP3    H167613   4.634   2.929   2.580  0.7386  0.0836  2.7442
15374TIP3    H267614   4.755   2.841   2.552 -0.0618 -0.2581  0.0618
15375TIP3   OH267615   2.668   0.694  13.207  0.3108 -0.0660 -0.1758
15375TIP3    H167616   2.700   0.681  13.118  0.3116 -0.0110 -0.1845
15375TIP3    H267617   2.642   0.787  13.209 -1.9654 -0.6101 -0.8675
15376TIP3   OH267618   1.967   4.287  14.974  0.3138 -0.5004  0.1840
15376TIP3    H167619   1.907   4.257  15.042 -0.3019 -1.0473 -0.5854
15376TIP3    H267620   1.969   4.215  14.911  0.6038  0.1456 -0.5500
15377TIP3   OH267621   2.305   0.408  12.466  0.6548 -0.4173 -0.5797
15377TIP3    H167622   2.280   0.332  12.414 -0.2294 -1.0694  0.7302
15377TIP3    H267623   2.371   0.375  12.526  0.0339 -0.2630  0.2159
15378TIP3   OH267624   1.088   1.195  11.512 -0.5066 -0.6860 -0.4987
15378TIP3    H167625   1.154   1.262  11.492  0.1097 -1.1206  0.0466
15378TIP3    H267626   1.132   1.112  11.496 -0.3196 -1.0327  1.5710
15379TIP3   OH267627   4.397   3.781   2.217 -0.3954  0.2893 -0.3492
15379TIP3    H167628   4.458   3.832   2.164  0.9036 -1.5124 -0.6902
15379TIP3    H267629   4.429   3.789   2.307  0.1591 -0.3738 -0.4818
15380TIP3   OH267630   1.685   2.987   2.391 -0.2542 -0.4802  0.1826
15380TIP3    H167631   1.675   3.082   2.388  1.2105 -0.3345 -2.0156
15380TIP3    H267632   1.597   2.954   2.369 -1.0145  0.3074  1.8988
15381TIP3   OH267633   0.822   3.505   4.212  0.2717 -0.1206  0.0884
15381TIP3    H167634   0.906   3.521   4.168  0.8421 -0.7387  0.9216
15381TIP3    H267635   0.844   3.446   4.284 -0.6811  0.7009  1.0739
15382TIP3   OH267636   0.075   5.194   5.917 -0.0509 -0.3900 -0.3056
15382TIP3    H167637   0.091   5.216   5.825  0.8079 -1.2310 -0.3715
15382TIP3    H267638   0.103   5.103   5.925  0.0471 -0.2750  0.8281
15383TIP3   OH267639   1.339   0.777  15.502 -0.3672 -0.2825  0.2459
15383TIP3    H167640   1.304   0.862  15.528  0.4297 -0.2123  1.1598
15383TIP3    H267641   1.427   0.797  15.469 -0.6326 -0.6130 -0.6889
15384TIP3   OH267642   3.584   4.409  16.914 -0.1949 -0.1803  0.9771
15384TIP3    H167643   3.671   4.369  16.922  1.0614  2.0451 -0.4177
15384TIP3    H267644   3.525   4.336  16.894  1.3054 -1.7648  2.0295
15385TIP3   OH267645   2.140   2.394  15.876  0.0493 -0.3743  0.2952
15385TIP3    H167646   2.196   2.347  15.814  0.5166 -0.3899  0.7182
15385TIP3    H267647   2.071   2.432  15.822 -0.0814 -1.1643 -0.1190
15386TIP3   OH267648   0.003   2.113  15.715 -0.8299 -0.1159 -0.3724
15386TIP3    H167649  -0.026   2.151  15.799 -0.8159  0.5320 -0.6535
15386TIP3    H267650  -0.074   2.117  15.659 -1.2165 -1.7613 -0.0019
15387TIP3   OH267651   4.763   0.205   3.674  0.1681 -0.3409  0.2764
15387TIP3    H167652   4.782   0.117   3.642  2.1479  0.5313 -1.1590
15387TIP3    H267653   4.848   0.240   3.699 -0.7205  0.8388  1.7527
15388TIP3   OH267654   3.170   2.222   3.679 -0.3907 -0.2003  0.2192
15388TIP3    H167655   3.233   2.281   3.638  0.5524 -0.7200  0.8871
15388TIP3    H267656   3.223   2.150   3.712 -1.5654 -1.7157 -1.0548
15389TIP3   OH267657   0.862   5.970  16.713  0.0599  0.3222  0.1984
15389TIP3    H167658   0.913   5.937  16.640  1.6244  0.1964  1.2926
15389TIP3    H267659   0.803   6.034  16.675 -0.7515 -1.3348 -1.4856
15390TIP3   OH267660   4.658   0.375   6.030  0.3888 -0.1167 -0.4012
15390TIP3    H167661   4.618   0.442   6.085  0.1196 -0.3455 -0.3193
15390TIP3    H267662   4.749   0.405   6.018  0.2916  0.2202 -0.3012
15391TIP3   OH267663   1.488   6.305   4.504  0.7990 -0.6419  0.8901
15391TIP3    H167664   1.499   6.214   4.534 -0.0197 -0.3765  2.0718
15391TIP3    H267665   1.511   6.358   4.580  0.6128  0.1270  0.4230
15392TIP3   OH267666   2.392   1.036  11.267  0.6161  0.2373  0.0512
15392TIP3    H167667   2.482   1.047  11.299  0.1760  3.6669  0.4917
15392TIP3    H267668   2.397   1.054  11.173  0.4109  0.4144  0.0725
15393TIP3   OH267669   5.509   4.433   5.739  0.2643  0.2946 -0.5290
15393TIP3    H167670   5.575   4.406   5.804 -0.3911  0.8004  0.3619
15393TIP3    H267671   5.503   4.528   5.748  0.4829  0.4305 -1.6564
15394TIP3   OH267672   6.558   0.249  10.602  0.5395 -0.1106  0.1172
15394TIP3    H167673   6.561   0.181  10.669 -0.7199  0.0227  0.3494
15394TIP3    H267674   6.584   0.204  10.521 -1.3987 -1.2228  0.0321
15395TIP3   OH267675   3.620   6.795  11.987  0.5368  0.3093 -0.1769
15395TIP3    H167676   3.663   6.820  11.905 -0.8797  0.9085 -0.7679
15395TIP3    H267677   3.681   6.822  12.056  1.6831 -0.0624 -1.0115
15396TIP3   OH267678   3.119   4.546  17.032  0.0860 -0.1664 -0.3426
15396TIP3    H167679   3.032   4.548  17.071 -0.1255  1.4048 -0.7930
15396TIP3    H267680   3.119   4.468  16.977 -0.8424 -0.4812  0.0854
15397TIP3   OH267681   2.450   5.071  14.864 -0.2007  0.3804 -0.2716
15397TIP3    H167682   2.516   5.130  14.901 -0.8892  0.6082  0.6147
15397TIP3    H267683   2.385   5.060  14.933 -0.6270 -0.5879 -0.7987
15398TIP3   OH267684   0.549   1.501   1.922 -0.2138 -0.6927 -0.5443
15398TIP3    H167685   0.607   1.520   1.995 -0.1660  0.0554 -0.7679
15398TIP3    H267686   0.524   1.587   1.888  0.4113 -1.0333 -1.9182
15399TIP3   OH267687   4.903   1.409  11.269  0.1581  0.1257 -0.2958
15399TIP3    H167688   4.924   1.357  11.346  2.3272  0.8919 -0.2909
15399TIP3    H267689   4.937   1.358  11.195 -2.3985 -0.8742 -0.8883
15400TIP3   OH267690   3.495   4.770   2.884 -0.3230  0.6335  0.0742
15400TIP3    H167691   3.430   4.719   2.932 -0.3831  0.5169 -0.1328
15400TIP3    H267692   3.480   4.861   2.912 -0.5106  0.5943  0.0991
15401TIP3   OH267693   3.997   0.324   2.375  0.1062 -0.0200  0.1666
15401TIP3    H167694   3.978   0.335   2.469  0.2359 -0.7481  0.2829
15401TIP3    H267695   3.913   0.337   2.332 -0.2228 -1.0081  0.4976
15402TIP3   OH267696   2.424   6.354  12.499  0.5447 -0.1824 -0.6106
15402TIP3    H167697   2.366   6.395  12.564 -0.0312 -0.7232 -0.7661
15402TIP3    H267698   2.375   6.360  12.417  1.0233 -0.0118 -0.8821
15403TIP3   OH267699   4.523   6.414  15.507 -0.4390  0.1107 -0.0801
15403TIP3    H167700   4.597   6.472  15.489  0.5339 -0.6902  1.2171
15403TIP3    H267701   4.534   6.389  15.599 -2.6792  0.4656  0.3479
15404TIP3   OH267702   5.873   1.094   4.473 -0.0279  0.0608  0.7304
15404TIP3    H167703   5.824   1.012   4.480 -0.8441  0.6289  2.0034
15404TIP3    H267704   5.878   1.127   4.563  1.3499  0.8076  0.4076
15405TIP3   OH267705   2.849   3.696   5.106 -0.2125  0.3226 -0.3477
15405TIP3    H167706   2.876   3.700   5.014 -0.2443  1.8083 -0.3312
15405TIP3    H267707   2.881   3.779   5.142  0.6973 -0.6765  1.2425
15406TIP3   OH267708   3.655   6.460   0.011 -0.1455 -0.3856  0.0594
15406TIP3    H167709   3.692   6.422  -0.068 -1.0217  0.6080 -0.8721
15406TIP3    H267710   3.646   6.387   0.071  3.2429 -0.6980  0.3765
15407TIP3   OH267711   2.263   1.904  14.574 -0.5295  0.3770 -0.0455
15407TIP3    H167712   2.299   1.974  14.628  0.0776  0.2273 -0.2446
15407TIP3    H267713   2.322   1.830  14.588 -1.1474 -0.0912  0.1409
15408TIP3   OH267714   6.489   3.401  16.394  0.0853  0.0507 -0.0234
15408TIP3    H167715   6.484   3.399  16.298  1.4578 -0.7250 -0.1087
15408TIP3    H267716   6.488   3.309  16.420  1.3223  0.1850  0.5803
15409TIP3   OH267717   3.345   1.207   0.818 -0.2563 -0.3358  0.0444
15409TIP3    H167718   3.299   1.236   0.897  0.3046 -2.5041  1.2684
15409TIP3    H267719   3.395   1.130   0.846  2.4074  0.5978 -1.7473
15410TIP3   OH267720   2.004   6.371  10.440  0.2690  0.2398  0.0045
15410TIP3    H167721   1.962   6.455  10.419 -0.3990 -0.0715  0.0475
15410TIP3    H267722   1.971   6.311  10.373 -0.3356 -0.2999  0.7707
15411TIP3   OH267723   4.754   4.474   5.007 -0.2793 -0.3136  0.2759
15411TIP3    H167724   4.664   4.506   4.996 -0.0842 -0.6773 -3.6170
15411TIP3    H267725   4.749   4.418   5.085 -3.0820  0.6741  0.9504
15412TIP3   OH267726   5.483   4.656   5.017  0.0508 -0.1027  0.3966
15412TIP3    H167727   5.505   4.714   5.090 -0.5740 -0.3838  0.8178
15412TIP3    H267728   5.531   4.692   4.942 -1.2478  1.6933  0.3557
15413TIP3   OH267729   3.956   0.441  14.558  0.1069 -0.2732  0.1127
15413TIP3    H167730   4.018   0.466  14.627  0.4103  0.3946 -0.3853
15413TIP3    H267731   3.997   0.471  14.477 -1.4424  1.4071 -0.1307
15414TIP3   OH267732   0.264   4.505  16.720 -0.1399 -0.6029  0.1945
15414TIP3    H167733   0.320   4.488  16.795  0.6458  1.0666  0.0416
15414TIP3    H267734   0.175   4.486  16.751  0.3236 -1.4649  1.0354
15415TIP3   OH267735   2.591   3.670   1.711 -0.4543 -0.1011  0.4648
15415TIP3    H167736   2.554   3.744   1.759 -0.3214 -0.6474  1.4391
15415TIP3    H267737   2.675   3.654   1.752  0.3228  0.3043 -0.8971
15416TIP3   OH267738   3.964   6.007  10.187  0.0144 -0.3401  0.0516
15416TIP3    H167739   4.024   5.948  10.233  0.3180 -0.0262  0.0633
15416TIP3    H267740   3.902   5.949  10.143 -0.4105 -0.6449  1.0271
15417TIP3   OH267741   6.314   6.528  17.188 -0.3627 -0.3478 -0.8207
15417TIP3    H167742   6.398   6.515  17.232 -0.7378  0.6820  0.2649
15417TIP3    H267743   6.334   6.588  17.116 -0.1849 -0.0509 -0.5232
15418TIP3   OH267744   4.566   4.590  16.513  0.3086  0.4376 -0.3323
15418TIP3    H167745   4.647   4.539  16.512  0.1592  0.1891 -1.2048
15418TIP3    H267746   4.498   4.527  16.539  0.2761  0.4387 -0.4144
15419TIP3   OH267747   4.705   6.731   3.123  0.4930  0.0435  0.4155
15419TIP3    H167748   4.631   6.784   3.095  0.2286 -0.4804  0.1110
15419TIP3    H267749   4.695   6.648   3.076  1.1530 -0.1116  0.5320
15420TIP3   OH267750   5.419   1.185   0.814  0.2513  0.1901  0.1619
15420TIP3    H167751   5.333   1.163   0.777 -0.3913  2.9890 -0.2013
15420TIP3    H267752   5.409   1.167   0.908 -0.4863 -0.2314  0.0150
15421TIP3   OH267753   1.278   5.244  15.389  0.1651 -0.1070  0.3081
15421TIP3    H167754   1.219   5.231  15.314  0.0899 -0.0365  0.3560
15421TIP3    H267755   1.366   5.234  15.352  0.1017 -1.9187  0.5375
15422TIP3   OH267756   5.116   5.285   0.740  0.0764  0.6581 -0.3635
15422TIP3    H167757   5.142   5.376   0.755 -0.1973  0.4835  1.3424
15422TIP3    H267758   5.065   5.262   0.817 -0.9496 -0.5632 -1.3678
15423TIP3   OH267759   0.254   4.899  15.736 -0.1323  0.2157  0.1294
15423TIP3    H167760   0.342   4.936  15.744 -0.0821 -0.1600  1.6057
15423TIP3    H267761   0.200   4.952  15.795 -1.4465  1.9261 -2.4383
15424TIP3   OH267762   5.466   0.395   5.872  0.3863 -0.2330 -0.6240
15424TIP3    H167763   5.491   0.479   5.912  2.6172 -0.5307 -1.2566
15424TIP3    H267764   5.375   0.382   5.899  1.1262  0.5230  2.7222
15425TIP3   OH267765   3.112   6.475  13.005  0.8110  0.2971 -0.6206
15425TIP3    H167766   3.152   6.414  12.943  0.3868 -0.1104 -0.4901
15425TIP3    H267767   3.133   6.562  12.970 -2.0665  0.1329 -3.0802
15426TIP3   OH267768   3.902   2.516  10.524  0.1563 -0.1604  0.2660
15426TIP3    H167769   3.819   2.478  10.552 -0.0082 -0.0762 -0.0979
15426TIP3    H267770   3.951   2.530  10.605  0.2117 -1.1353  0.4166
15427TIP3   OH267771   0.044   0.984   5.060 -0.2546 -0.2163 -0.5849
15427TIP3    H167772   0.083   0.919   5.002 -0.0755 -1.6390  1.0603
15427TIP3    H267773  -0.049   0.961   5.061 -0.0027 -1.3624  1.0261
15428TIP3   OH267774   0.112   3.085   5.121  0.0896  0.6580  0.4507
15428TIP3    H167775   0.027   3.041   5.127  0.0001  0.6728 -0.4512
15428TIP3    H267776   0.090   3.176   5.103  0.2417  1.4436  3.7357
15429TIP3   OH267777   1.602   2.737  14.907 -0.2920  0.7226  0.1213
15429TIP3    H167778   1.585   2.644  14.916 -1.0944  0.9487  1.0860
15429TIP3    H267779   1.586   2.756  14.815 -0.0100 -0.1087 -0.1036
15430TIP3   OH267780   2.523   4.910   3.998  0.2834 -0.1865  0.3095
15430TIP3    H167781   2.600   4.948   3.956  0.3951  0.6093  1.1961
15430TIP3    H267782   2.555   4.832   4.042  0.7594  0.5403  1.2966
15431TIP3   OH267783   2.611   5.586   2.866  0.1230  0.2146  0.7245
15431TIP3    H167784   2.542   5.527   2.835 -0.4152  0.4057  1.5423
15431TIP3    H267785   2.684   5.572   2.805 -0.0218 -1.2361  0.8560
15432TIP3   OH267786   4.225   6.356   3.855 -0.4062  0.4162  0.0701
15432TIP3    H167787   4.238   6.263   3.837 -1.2956  0.5191 -1.3004
15432TIP3    H267788   4.294   6.400   3.805  0.1274  0.4894  0.8660
15433TIP3   OH267789   0.351   1.822  12.497 -0.1923  0.2133  0.7672
15433TIP3    H167790   0.391   1.881  12.434 -0.4815  0.4537  0.8038
15433TIP3    H267791   0.257   1.830  12.481 -0.1997 -2.1151 -0.9332
15434TIP3   OH267792   1.696   3.719   4.353  0.1060  0.0203 -0.1839
15434TIP3    H167793   1.749   3.771   4.413 -0.6187 -0.2558  0.7146
15434TIP3    H267794   1.621   3.691   4.405  0.3298 -1.6809 -0.7185
15435TIP3   OH267795   0.731   5.773   3.631 -0.1209  0.1987  0.0175
15435TIP3    H167796   0.723   5.800   3.723 -0.0813  0.0976  0.0511
15435TIP3    H267797   0.758   5.681   3.636 -0.2544  0.1545 -0.0969
15436TIP3   OH267798   1.986   3.240   4.640 -0.1900 -0.3488 -0.3623
15436TIP3    H167799   1.946   3.214   4.557 -0.0853  1.1105 -0.9118
15436TIP3    H267800   2.001   3.334   4.630 -0.4617 -0.0867  1.4456
15437TIP3   OH267801   1.334   2.852  13.744 -0.1621  0.1050 -0.3381
15437TIP3    H167802   1.367   2.763  13.729  0.3060  0.0084  1.1239
15437TIP3    H267803   1.314   2.885  13.656  1.3802 -0.7772 -1.0635
15438TIP3   OH267804   3.341   0.099  16.918 -0.1591  0.3333  0.5126
15438TIP3    H167805   3.376   0.123  17.004  2.2276  0.4383 -0.4068
15438TIP3    H267806   3.363   0.173  16.862  1.6182 -1.2139 -0.9571
15439TIP3   OH267807   6.185   2.963   1.519 -0.6420 -0.3693  0.5568
15439TIP3    H167808   6.280   2.975   1.532 -0.2735 -1.3099 -0.9899
15439TIP3    H267809   6.145   3.034   1.569  0.9646  1.1658 -0.2296
15440TIP3   OH267810   5.597   0.064   2.243 -0.0769  0.0772 -0.0715
15440TIP3    H167811   5.605   0.117   2.164  0.0951 -2.2459 -1.7244
15440TIP3    H267812   5.506   0.035   2.243 -0.3612  0.8982  1.2024
15441TIP3   OH267813   1.894   3.712  12.684  0.0589  0.0029 -0.3942
15441TIP3    H167814   1.915   3.626  12.721 -0.3105  0.3491  0.6463
15441TIP3    H267815   1.864   3.764  12.758 -2.4193  0.1973 -1.4289
15442TIP3   OH267816   1.430   4.500   4.416 -0.6561 -0.0582  0.0938
15442TIP3    H167817   1.362   4.454   4.464 -0.2223  1.6105  2.4460
15442TIP3    H267818   1.509   4.492   4.470 -0.0953  1.7250 -0.3747
15443TIP3   OH267819   1.199   0.674  14.555 -0.3944 -0.3739 -0.0602
15443TIP3    H167820   1.178   0.724  14.477 -0.4345 -0.0821  0.1346
15443TIP3    H267821   1.184   0.735  14.627  3.4320  0.7708  0.0279
15444TIP3   OH267822   0.190   1.050  12.988  0.1204  0.1787  0.1429
15444TIP3    H167823   0.207   1.132  13.035  0.6613 -0.1622  0.5574
15444TIP3    H267824   0.273   1.031  12.944 -0.0093 -0.1317  0.0342
15445TIP3   OH267825   2.671   4.479   4.483  0.1549  0.5395 -0.1633
15445TIP3    H167826   2.620   4.500   4.404 -0.0109  0.6987 -0.0138
15445TIP3    H267827   2.758   4.512   4.464 -0.2126  1.7744  0.2462
15446TIP3   OH267828   6.423   1.052  13.604 -0.6626  0.6925 -0.3678
15446TIP3    H167829   6.360   0.991  13.641  0.7635  0.6723  2.2444
15446TIP3    H267830   6.459   1.006  13.528 -3.1420  0.3997 -1.4658
15447TIP3   OH267831   0.566   5.031   1.018 -0.2534 -0.1544 -0.0578
15447TIP3    H167832   0.627   5.104   1.013  0.2229 -0.4142  1.3410
15447TIP3    H267833   0.535   5.019   0.929  0.6619  0.8991 -0.5424
15448TIP3   OH267834   2.931   0.414  15.973  0.6538  0.3103  0.4399
15448TIP3    H167835   2.865   0.399  15.906  0.5830 -0.8990  0.7562
15448TIP3    H267836   2.883   0.409  16.056  0.9552  0.5019  0.6305
15449TIP3   OH267837   3.436   2.263  16.041  0.7637 -0.3747  0.2713
15449TIP3    H167838   3.500   2.216  16.094 -0.6307 -1.6998  0.8564
15449TIP3    H267839   3.382   2.309  16.105 -0.0742 -0.8654 -0.0680
15450TIP3   OH267840   0.828   3.970   4.487 -0.0960 -0.0007  0.2103
15450TIP3    H167841   0.816   4.034   4.417 -0.0947 -1.0904 -0.8167
15450TIP3    H267842   0.755   3.909   4.476 -0.3562  0.0603  1.4617
15451TIP3   OH267843   2.078   3.936  11.369 -0.4398  0.8107  0.2499
15451TIP3    H167844   2.067   3.903  11.280 -3.4819 -0.3893  0.9244
15451TIP3    H267845   2.141   3.877  11.410 -1.3397 -0.5747 -0.2902
15452TIP3   OH267846   0.797   6.337  13.067  0.0724  0.0824  0.5833
15452TIP3    H167847   0.799   6.428  13.038 -2.8900 -0.0159 -0.2861
15452TIP3    H267848   0.888   6.315  13.085  1.2930  2.2168 -2.2813
15453TIP3   OH267849   1.844   2.191   3.878 -0.2733  0.2777  0.2505
15453TIP3    H167850   1.895   2.131   3.822  0.0099  1.3648 -0.6910
15453TIP3    H267851   1.768   2.139   3.904  0.9452 -1.1638  1.1218
15454TIP3   OH267852   5.431   6.741  11.037 -0.5223  0.4034 -0.4184
15454TIP3    H167853   5.488   6.706  11.106 -0.0187 -0.0844 -1.0631
15454TIP3    H267854   5.353   6.686  11.039 -0.4130  0.2502 -0.3883
15455TIP3   OH267855   0.527   1.512  13.289  0.2245  0.2573 -0.5643
15455TIP3    H167856   0.456   1.499  13.351  1.1632 -0.5867  0.3808
15455TIP3    H267857   0.528   1.606  13.273 -0.3626  0.4231  0.3208
15456TIP3   OH267858   5.169   4.146  10.895  0.2960  0.5326  0.1501
15456TIP3    H167859   5.234   4.175  10.830  0.2015  1.6247  0.5099
15456TIP3    H267860   5.157   4.053  10.878  0.2924  0.7923 -1.3738
15457TIP3   OH267861   2.584   2.266   6.300 -0.4114 -0.8918 -0.0124
15457TIP3    H167862   2.658   2.206   6.303 -0.1194 -0.7168 -2.1260
15457TIP3    H267863   2.588   2.305   6.212 -1.3432  1.2530  0.8262
15458TIP3   OH267864   3.353   6.707  14.930 -0.0956 -0.0215  0.2202
15458TIP3    H167865   3.370   6.630  14.876  1.3419  0.1149  0.4389
15458TIP3    H267866   3.370   6.781  14.872 -0.3076  0.1264  0.3455
15459TIP3   OH267867   0.039   5.311  15.492 -0.4079 -0.2992 -0.1145
15459TIP3    H167868   0.068   5.380  15.551  1.2332 -0.4992 -0.6498
15459TIP3    H267869   0.106   5.243  15.499 -0.2201 -0.3760 -2.1173
15460TIP3   OH267870   0.051   5.883   0.747  0.3324  0.0209 -0.1533
15460TIP3    H167871   0.050   5.978   0.758 -1.4090 -0.1955  2.4405
15460TIP3    H267872   0.144   5.860   0.741  0.7964  1.8149 -0.2426
15461TIP3   OH267873   6.270   6.156  11.873 -0.3361  0.3798  0.0023
15461TIP3    H167874   6.204   6.220  11.847  0.1915  0.5224 -0.9999
15461TIP3    H267875   6.219   6.077  11.892 -0.7293  0.1284 -1.9085
15462TIP3   OH267876   5.339   2.922  15.602 -0.3437 -0.2350  0.1540
15462TIP3    H167877   5.346   2.869  15.681  0.1978 -1.8550 -0.9303
15462TIP3    H267878   5.423   2.968  15.596  0.7182 -2.1906 -0.8569
15463TIP3   OH267879   6.723   3.767   1.856 -0.0669  0.4869 -0.2901
15463TIP3    H167880   6.665   3.700   1.891  1.3944 -1.3129 -1.1075
15463TIP3    H267881   6.731   3.745   1.763  1.1728  1.2490 -0.3835
15464TIP3   OH267882   5.391   1.306   6.186 -0.7338 -0.0735 -0.1673
15464TIP3    H167883   5.398   1.389   6.233 -0.4136  0.2663 -0.7920
15464TIP3    H267884   5.299   1.281   6.194 -0.3395 -1.0198  2.2710
15465TIP3   OH267885   2.306   0.478  16.190  0.1197 -0.6554 -0.3976
15465TIP3    H167886   2.300   0.573  16.186  1.5008 -0.5478 -0.3516
15465TIP3    H267887   2.266   0.455  16.274 -1.8027 -0.2998 -1.1610
15466TIP3   OH267888   3.076   5.042  16.290  0.0810  0.0113 -0.2945
15466TIP3    H167889   3.010   5.066  16.225  1.2929 -1.3024 -2.1187
15466TIP3    H267890   3.159   5.054  16.244  0.9627 -1.4747  0.8400
15467TIP3   OH267891   4.212   2.027   2.900 -0.3118  0.0634 -0.2601
15467TIP3    H167892   4.263   1.948   2.915  0.8601  0.8462  0.0196
15467TIP3    H267893   4.277   2.096   2.888 -1.3023  0.8373 -1.3779
15468TIP3   OH267894   1.857   5.382  14.563  0.2661  0.3738 -0.0531
15468TIP3    H167895   1.932   5.327  14.584  0.5156  1.0119  0.7636
15468TIP3    H267896   1.792   5.321  14.528 -0.4574 -0.9723  3.2319
15469TIP3   OH267897   0.340   2.498   5.760 -0.1547  0.7364  0.2329
15469TIP3    H167898   0.309   2.453   5.682  0.3142 -0.5397  0.7593
15469TIP3    H267899   0.413   2.552   5.729 -1.4354  2.0786 -0.6105
15470TIP3   OH267900   1.262   5.311  10.834 -0.2071  0.1665  0.0766
15470TIP3    H167901   1.353   5.336  10.851 -0.5433  1.4331  0.1309
15470TIP3    H267902   1.222   5.391  10.801 -1.7979  0.1830  1.9367
15471TIP3   OH267903   2.917   4.832   2.146  0.4269  0.2401 -0.1218
15471TIP3    H167904   3.007   4.822   2.179  0.9314  0.9645 -1.2124
15471TIP3    H267905   2.904   4.756   2.090 -1.3528 -2.4379  3.4976
15472TIP3   OH267906   5.661   5.665   0.255  0.4242  0.0676  0.0439
15472TIP3    H167907   5.566   5.668   0.237  0.1668 -0.0535  1.3304
15472TIP3    H267908   5.671   5.713   0.337  1.2853 -1.1836  0.6830
15473TIP3   OH267909   3.652   1.871  14.991 -0.3157  0.0011 -0.3018
15473TIP3    H167910   3.625   1.962  14.981  0.3526  0.1003 -1.3035
15473TIP3    H267911   3.573   1.826  15.021 -0.6272  0.9168  0.3098
15474TIP3   OH267912   0.768   1.535  17.094  0.7583  0.0923 -1.1609
15474TIP3    H167913   0.835   1.562  17.032  0.8646  0.5502 -0.8538
15474TIP3    H267914   0.802   1.561  17.180 -0.6001  2.0828 -1.1399
15475TIP3   OH267915   0.828   0.449  14.374  0.4746 -0.2641  0.3237
15475TIP3    H167916   0.799   0.381  14.435 -0.4900 -0.0521  0.1229
15475TIP3    H267917   0.923   0.450  14.383  0.4092 -0.7615  1.2656
15476TIP3   OH267918   3.706   1.284  15.965  0.5422  0.1706 -0.8512
15476TIP3    H167919   3.678   1.224  16.034 -3.5282  1.0181 -1.5344
15476TIP3    H267920   3.800   1.296  15.981  0.1006 -0.6153  3.7418
15477TIP3   OH267921   4.256   4.191  13.033  0.2008  0.5130  0.9442
15477TIP3    H167922   4.290   4.131  13.099  0.9913 -0.9448 -0.7258
15477TIP3    H267923   4.203   4.137  12.975  1.7224  1.1541 -1.1767
15478TIP3   OH267924   3.271   1.594   2.834  0.8252  0.2525  0.3753
15478TIP3    H167925   3.329   1.593   2.910  3.1463  2.1592 -1.2568
15478TIP3    H267926   3.300   1.520   2.781 -0.2321 -0.5480  0.8540
15479TIP3   OH267927   2.764   2.679  12.696  0.2428 -0.0459 -0.1058
15479TIP3    H167928   2.837   2.693  12.756  2.5166 -1.3332 -2.3655
15479TIP3    H267929   2.747   2.585  12.701 -2.4280  0.4289  1.5196
15480TIP3   OH267930   6.418   0.231   5.940  0.1630  0.0788 -0.5702
15480TIP3    H167931   6.371   0.226   6.023 -0.7947 -0.7326 -1.1482
15480TIP3    H267932   6.442   0.141   5.921  0.2032  0.2398 -1.2792
15481TIP3   OH267933   0.635   2.807  13.985 -0.3402  0.7478 -0.1915
15481TIP3    H167934   0.570   2.780  13.920 -1.6532  2.4231  0.3227
15481TIP3    H267935   0.618   2.751  14.061 -1.0824  1.0298 -0.1371
15482TIP3   OH267936   0.635   1.377   1.159 -0.7488 -0.0162 -0.4642
15482TIP3    H167937   0.677   1.412   1.081  0.1058 -0.5452 -0.2498
15482TIP3    H267938   0.542   1.373   1.135 -0.6379  0.7556 -1.0927
15483TIP3   OH267939   2.803   6.511   5.516 -0.2750  0.0122 -0.2655
15483TIP3    H167940   2.780   6.600   5.541 -1.1727  0.7001 -3.1753
15483TIP3    H267941   2.759   6.497   5.433  1.1111 -2.6164 -0.6790
15484TIP3   OH267942   3.443   2.422  14.011 -0.4035 -0.3477 -0.4008
15484TIP3    H167943   3.432   2.513  14.037 -1.7550 -0.4793 -0.4471
15484TIP3    H267944   3.510   2.387  14.070 -2.0194 -0.1286  1.6613
15485TIP3   OH267945   1.218   5.175  13.922  0.4477  0.1715  0.1639
15485TIP3    H167946   1.228   5.157  13.828 -2.1376 -1.1613  0.0800
15485TIP3    H267947   1.136   5.224  13.928  0.6103  0.2831  1.7506
15486TIP3   OH267948   3.510   0.663  17.164  0.1797  0.3430  0.1768
15486TIP3    H167949   3.430   0.622  17.196 -0.2932  0.5640 -0.6958
15486TIP3    H267950   3.486   0.754  17.149  0.2140  0.1370 -1.3084
15487TIP3   OH267951   1.623   2.198  13.455 -0.0130 -0.2551 -0.2387
15487TIP3    H167952   1.627   2.241  13.370  1.4055  0.1950  0.0331
15487TIP3    H267953   1.565   2.253  13.507  2.4186  1.9260  0.3728
15488TIP3   OH267954   0.097   4.067  14.957  0.2575 -0.0356 -0.0147
15488TIP3    H167955   0.141   4.090  15.039  0.3746  3.1017 -0.8241
15488TIP3    H267956   0.004   4.075  14.977  0.2807  0.4951 -0.0948
15489TIP3   OH267957   4.067   5.574   4.946 -0.2776  0.0591 -0.0961
15489TIP3    H167958   4.090   5.658   4.985 -1.0250 -0.3175  1.2331
15489TIP3    H267959   4.149   5.544   4.906  0.7559  0.2016  1.7593
15490TIP3   OH267960   4.905   4.016  11.762  0.7551 -0.2693  0.3365
15490TIP3    H167961   4.830   3.994  11.818  0.8582 -3.6766 -0.6615
15490TIP3    H267962   4.867   4.066  11.690 -0.3457 -0.7537  0.5561
15491TIP3   OH267963   1.658   0.869  14.280 -0.3330 -0.3279  0.3297
15491TIP3    H167964   1.746   0.852  14.313 -0.3864  1.9087  1.8928
15491TIP3    H267965   1.635   0.954  14.318 -1.8320  0.8184 -2.8357
15492TIP3   OH267966   5.288   4.648   2.076 -0.1231  0.6623  0.2190
15492TIP3    H167967   5.237   4.679   2.151 -0.7063 -1.8003  0.9374
15492TIP3    H267968   5.228   4.591   2.028  1.2823 -0.5761 -0.1416
15493TIP3   OH267969   3.135   3.578  13.256 -0.6168 -0.2142 -0.3193
15493TIP3    H167970   3.173   3.498  13.291 -0.6874 -0.1574 -0.1125
15493TIP3    H267971   3.123   3.560  13.162  0.8603  0.1259 -0.6055
15494TIP3   OH267972   2.753   4.855   3.319  0.3992  0.1688 -0.4372
15494TIP3    H167973   2.761   4.845   3.414  1.0117  0.3806 -0.4657
15494TIP3    H267974   2.668   4.899   3.307 -0.3152 -1.0725 -0.0749
15495TIP3   OH267975   4.455   5.230  14.182 -0.5093  0.0100 -0.3816
15495TIP3    H167976   4.419   5.243  14.094 -2.2963  0.7008  0.4279
15495TIP3    H267977   4.385   5.256  14.241  0.4828 -0.9507  1.2715
15496TIP3   OH267978   4.131   2.178   1.091 -0.0961 -0.4659 -0.0337
15496TIP3    H167979   4.206   2.118   1.083  0.3609  0.3131 -2.2515
15496TIP3    H267980   4.086   2.172   1.006 -1.0681  1.0026  0.3355
15497TIP3   OH267981   4.711   3.676   2.265 -0.1191  0.1791 -0.2332
15497TIP3    H167982   4.765   3.691   2.188  0.6531 -0.7110  0.1083
15497TIP3    H267983   4.628   3.720   2.246 -0.1714 -0.5667 -1.8335
15498TIP3   OH267984   3.969   2.278  11.044 -0.6972  0.3531  0.0290
15498TIP3    H167985   4.057   2.299  11.075 -0.0296 -1.9149 -0.0755
15498TIP3    H267986   3.920   2.360  11.050  1.3532  1.6236  0.3086
15499TIP3   OH267987   5.716   2.751   6.333  0.2201 -0.2258 -0.1971
15499TIP3    H167988   5.709   2.663   6.371 -0.3188 -1.0431 -2.0626
15499TIP3    H267989   5.797   2.749   6.282  1.6268  1.2772  1.8444
15500TIP3   OH267990   3.663   1.539   1.179 -0.1793 -0.2137  0.2644
15500TIP3    H167991   3.580   1.550   1.225 -0.2397  2.0297 -0.2382
15500TIP3    H267992   3.648   1.468   1.118 -1.2284 -0.8636  1.2434
15501TIP3   OH267993   4.753   1.466  10.807 -0.3355 -0.0489  0.0712
15501TIP3    H167994   4.801   1.543  10.836  1.6052 -0.7610 -1.0909
15501TIP3    H267995   4.742   1.478  10.713 -1.6886 -0.3384  0.1633
15502TIP3   OH267996   1.661   1.499  15.626  0.1961  0.9788  0.3260
15502TIP3    H167997   1.609   1.420  15.642  1.9007 -0.7211 -1.7779
15502TIP3    H267998   1.702   1.519  15.710 -0.3627 -0.3095  0.9313
15503TIP3   OH267999   3.470   5.168   0.568  0.1977 -0.1430  0.1383
15503TIP3    H168000   3.541   5.172   0.504  1.8795 -0.2655  1.8608
15503TIP3    H268001   3.513   5.134   0.647 -1.3708  1.5996  1.8295
15504TIP3   OH268002   1.882   4.135  11.361 -0.0884  0.0740  0.1142
15504TIP3    H168003   1.965   4.092  11.384 -0.6928 -1.0016  0.3229
15504TIP3    H268004   1.907   4.203  11.298  0.8986 -0.5466 -0.1885
15505TIP3   OH268005   4.051   0.564  14.259  0.4750 -0.3178  0.3642
15505TIP3    H168006   3.974   0.622  14.259  0.0695 -0.8364 -0.4417
15505TIP3    H268007   4.109   0.602  14.325 -0.5023  0.0437  1.0428
15506TIP3   OH268008   6.365   1.438   2.451 -0.0418 -0.0430 -0.3376
15506TIP3    H168009   6.340   1.392   2.532 -1.0785 -0.6165 -0.9610
15506TIP3    H268010   6.282   1.451   2.405  0.6168 -0.3681 -1.6531
15507TIP3   OH268011   1.948   2.896   3.224  0.1443 -0.0373  0.0766
15507TIP3    H168012   1.974   2.935   3.141  0.1061 -2.0407 -0.9259
15507TIP3    H268013   1.971   2.804   3.216  0.8412 -0.1745  2.5978
15508TIP3   OH268014   6.441   6.691   4.027 -0.5113 -0.8165  0.2643
15508TIP3    H168015   6.402   6.604   4.034 -0.9157 -0.7285 -0.7353
15508TIP3    H268016   6.504   6.695   4.099 -1.2813 -1.5142  0.9992
15509TIP3   OH268017   3.436   3.458   0.156  0.2634  0.4254 -0.1236
15509TIP3    H168018   3.531   3.455   0.147  0.1569  1.6489 -2.2890
15509TIP3    H268019   3.406   3.372   0.127  0.6196  0.7005 -1.3469
15510TIP3   OH268020   1.259   1.067   3.000 -0.9577  0.1958 -0.2403
15510TIP3    H168021   1.173   1.075   2.958 -0.3618  1.1455 -1.3484
15510TIP3    H268022   1.243   1.013   3.077 -2.3909 -0.3380 -0.8722
15511TIP3   OH268023   6.339   3.565   3.959  0.2655  0.8379 -0.1354
15511TIP3    H168024   6.361   3.473   3.947 -0.9169  0.6683 -1.2781
15511TIP3    H268025   6.415   3.613   3.925 -0.0706  0.2688 -1.7939
15512TIP3   OH268026   0.883   1.030  12.504  0.6259 -0.5985 -0.0379
15512TIP3    H168027   0.922   1.029  12.417  0.0210 -1.7780 -0.3190
15512TIP3    H268028   0.942   1.083  12.557  0.8086  0.4499 -1.2477
15513TIP3   OH268029   4.721   5.961  16.543  0.1887  0.2386  0.1900
15513TIP3    H168030   4.656   6.015  16.588 -0.1589  0.3818 -0.4630
15513TIP3    H268031   4.692   5.871  16.559  0.3587  0.2679  0.6758
15514TIP3   OH268032   0.423   5.874  15.336  0.6873 -0.0540  0.8736
15514TIP3    H168033   0.497   5.874  15.275 -0.1907  1.1749 -0.2483
15514TIP3    H268034   0.381   5.789  15.323  1.0622 -0.1825  0.4646
15515TIP3   OH268035   6.406   1.397   5.168 -0.0935 -0.8130 -0.5042
15515TIP3    H168036   6.439   1.483   5.195 -0.1823 -1.1066  0.5825
15515TIP3    H268037   6.312   1.401   5.185 -0.0108 -1.3155  0.0943
15516TIP3   OH268038   6.697   6.806   6.053 -0.1286  0.1513  0.0339
15516TIP3    H168039   6.626   6.805   5.989 -0.1652 -1.2364  0.0787
15516TIP3    H268040   6.654   6.790   6.137  0.2399 -0.7690  0.0519
15517TIP3   OH268041   5.492   3.270  11.615  0.0884 -0.2893 -0.1104
15517TIP3    H168042   5.519   3.187  11.655 -0.7442  0.5272  2.2795
15517TIP3    H268043   5.491   3.333  11.687 -0.5260  1.5384 -1.6260
15518TIP3   OH268044   3.820   4.603   5.667 -0.5993  0.6038 -0.2990
15518TIP3    H168045   3.857   4.562   5.590 -1.7975  0.4554 -0.8241
15518TIP3    H268046   3.889   4.598   5.733 -0.2003 -0.9298 -0.7938
15519TIP3   OH268047   0.358   0.321  16.865  0.5363 -0.0547  0.7352
15519TIP3    H168048   0.313   0.251  16.913 -0.2292  0.0918  0.2375
15519TIP3    H268049   0.324   0.402  16.903  0.8146  0.0574  0.7506
15520TIP3   OH268050   3.913   5.148   2.044 -0.4707  0.0276 -0.0790
15520TIP3    H168051   3.973   5.183   1.978  0.0817 -0.9305 -0.1068
15520TIP3    H268052   3.967   5.140   2.123 -0.3063 -1.6118 -0.3230
15521TIP3   OH268053   4.407   4.573   4.526 -0.2677  0.3038 -0.1980
15521TIP3    H168054   4.492   4.616   4.528  0.5417 -1.2265  0.5222
15521TIP3    H268055   4.427   4.482   4.548 -2.1650  0.0273  0.5114
15522TIP3   OH268056   3.566   0.770  16.486 -0.1604  0.2987  0.0947
15522TIP3    H168057   3.646   0.796  16.441 -0.6840 -0.5962 -1.4397
15522TIP3    H268058   3.502   0.838  16.463 -0.7445 -0.7364 -1.5649
15523TIP3   OH268059   5.707   3.648   2.153  0.0735 -0.2908  0.4514
15523TIP3    H168060   5.707   3.582   2.083  1.6801  1.0712 -0.9227
15523TIP3    H268061   5.616   3.654   2.181 -0.4142 -1.6860 -0.7501
15524TIP3   OH268062   1.646   4.263  12.699  0.5501 -0.3529  0.3415
15524TIP3    H168063   1.727   4.255  12.750  0.8113  0.2326  0.0338
15524TIP3    H268064   1.606   4.176  12.703  3.0198 -1.8336 -2.4842
15525TIP3   OH268065   2.030   2.789  14.189 -0.0350  0.6268  0.0276
15525TIP3    H168066   1.983   2.800  14.106 -0.3461  0.8526  0.2291
15525TIP3    H268067   1.968   2.745  14.247  0.6916 -0.9192 -0.3060
15526TIP3   OH268068   5.174   0.456   3.469 -0.2548  0.3453 -0.3679
15526TIP3    H168069   5.233   0.448   3.544  1.0855 -1.0032 -1.4932
15526TIP3    H268070   5.086   0.451   3.507  0.3366  1.5516  1.2704
15527TIP3   OH268071   3.149   3.944  12.578 -0.1069 -0.4207  0.2404
15527TIP3    H168072   3.126   3.857  12.545 -1.2091 -0.2015  0.3659
15527TIP3    H268073   3.193   3.987  12.505  1.4979 -1.4671  0.5569
15528TIP3   OH268074   5.243   0.872  16.761 -0.3545 -0.1527 -0.5007
15528TIP3    H168075   5.191   0.933  16.814  0.8497  1.2996 -0.9464
15528TIP3    H268076   5.280   0.925  16.692 -0.9027 -1.8067 -2.1414
15529TIP3   OH268077   3.667   4.829  15.366 -0.0320 -0.2205 -0.0607
15529TIP3    H168078   3.645   4.845  15.458 -1.1021  1.1135 -0.5129
15529TIP3    H268079   3.585   4.844  15.319  0.9969  1.3021 -1.4703
15530TIP3   OH268080   0.758   5.867  14.115  0.2498 -0.4661  0.6307
15530TIP3    H168081   0.747   5.961  14.103 -0.1970 -0.5287  0.5409
15530TIP3    H268082   0.728   5.851  14.205  2.3496 -0.2016  1.4274
15531TIP3   OH268083   4.173   6.485  11.951 -0.9634 -0.0481 -0.2398
15531TIP3    H168084   4.247   6.527  11.908 -1.5642 -0.1455 -1.3994
15531TIP3    H268085   4.194   6.489  12.045 -0.5475  1.9218 -0.3835
15532TIP3   OH268086   0.285   1.694  11.730  0.1159  0.2023  0.0393
15532TIP3    H168087   0.323   1.653  11.652 -1.0182  1.3959 -1.1872
15532TIP3    H268088   0.361   1.723  11.781  0.8823 -0.9350 -0.3991
15533TIP3   OH268089   0.297   3.684   2.276  0.1697  0.4199 -0.8141
15533TIP3    H168090   0.351   3.624   2.224  0.7173  0.2868 -0.1081
15533TIP3    H268091   0.342   3.768   2.269  0.5370  0.2840 -0.1319
15534TIP3   OH268092   5.550   6.073  15.889  0.9421 -0.2347  0.2675
15534TIP3    H168093   5.637   6.092  15.853  0.9920  1.0966  1.0316
15534TIP3    H268094   5.548   6.120  15.972 -0.3244 -0.6897  0.5166
15535TIP3   OH268095   0.368   3.343  15.222  0.2512  0.1035  0.5599
15535TIP3    H168096   0.376   3.323  15.129 -0.3565  2.2780 -0.0233
15535TIP3    H268097   0.363   3.438  15.225  1.3671  0.1559  2.9285
15536TIP3   OH268098   1.434   6.358  14.946  0.4324  0.3176  0.0237
15536TIP3    H168099   1.446   6.331  14.856  0.2664 -0.9151  0.3618
15536TIP3    H268100   1.343   6.388  14.951 -0.0950 -1.2303  0.1678
15537TIP3   OH268101   3.102   3.392  16.542  0.2973 -0.3722 -0.0989
15537TIP3    H168102   3.195   3.387  16.563 -0.1115 -2.3279  1.5465
15537TIP3    H268103   3.076   3.480  16.568  1.6097  0.0914 -0.2911
15538TIP3   OH268104   1.058   6.297  13.153  0.2847  0.0265  0.4103
15538TIP3    H168105   1.079   6.375  13.102 -0.7029 -0.2222 -0.4149
15538TIP3    H268106   1.122   6.296  13.224  0.1938  1.6884  0.5454
15539TIP3   OH268107   2.440   0.990  12.012  0.5223  0.1145 -0.6525
15539TIP3    H168108   2.396   1.063  12.055  1.0873  0.5675 -0.8323
15539TIP3    H268109   2.456   1.021  11.923 -1.5042 -1.1545 -1.5426
15540TIP3   OH268110   0.687   0.207   3.151 -0.1665  1.0558 -0.1126
15540TIP3    H168111   0.736   0.149   3.093  0.5265 -0.0151  1.4812
15540TIP3    H268112   0.599   0.211   3.112  0.2052  0.1901 -1.1014
15541TIP3   OH268113   4.534   1.650  10.798 -0.3631 -0.4569  0.6590
15541TIP3    H168114   4.608   1.590  10.787  0.7294  1.0481 -0.8405
15541TIP3    H268115   4.501   1.664  10.709 -0.6155  1.0838  0.9597
15542TIP3   OH268116   1.430   2.857  12.752  0.1699 -0.4410 -0.2213
15542TIP3    H168117   1.422   2.799  12.676 -1.9762  0.3109 -0.6473
15542TIP3    H268118   1.341   2.861  12.788  0.5585  1.4924  0.6263
15543TIP3   OH268119   2.410   2.464  10.231 -0.5371 -0.5742  0.3197
15543TIP3    H168120   2.486   2.498  10.276  0.5908 -2.0501 -0.3788
15543TIP3    H268121   2.344   2.453  10.300 -1.4549  3.9416  0.4316
15544TIP3   OH268122   1.128   4.386   0.250  0.2920  0.9319  0.1537
15544TIP3    H168123   1.113   4.359   0.159 -0.6980  0.8167  0.3429
15544TIP3    H268124   1.194   4.325   0.282 -0.3493  0.0954 -0.0814
15545TIP3   OH268125   6.056   1.793  13.164 -0.3719  0.3654 -0.2644
15545TIP3    H168126   6.072   1.699  13.152 -0.0053  0.4583 -0.5345
15545TIP3    H268127   6.125   1.835  13.113  2.4082  0.8441  3.5372
15546TIP3   OH268128   3.213   2.893   5.516  0.3953  0.1740  0.1291
15546TIP3    H168129   3.155   2.939   5.577  2.4238  1.2526  1.3489
15546TIP3    H268130   3.241   2.961   5.454  0.5919 -0.2724 -0.2748
15547TIP3   OH268131   0.747   5.288  17.142  1.1601  0.7328  0.0052
15547TIP3    H168132   0.779   5.365  17.095  0.3339  0.7919 -0.4913
15547TIP3    H268133   0.820   5.226  17.140  0.7700  0.2311 -2.5178
15548TIP3   OH268134   1.347   6.345  13.723 -0.1808 -0.0688  0.3048
15548TIP3    H168135   1.406   6.415  13.695  0.9150 -0.8150  0.6727
15548TIP3    H268136   1.335   6.361  13.817  0.2087 -0.4608  0.4250
15549TIP3   OH268137   1.017   4.206  11.154 -0.4783  0.1052  0.2556
15549TIP3    H168138   0.966   4.124  11.157 -2.7446  1.3945 -0.3380
15549TIP3    H268139   1.013   4.240  11.243  1.5863 -0.9845  0.8320
15550TIP3   OH268140   1.957   3.093  10.785  0.7569 -0.3404  0.1384
15550TIP3    H168141   2.050   3.097  10.762  1.2506 -1.5325  1.7407
15550TIP3    H268142   1.912   3.138  10.713  2.3909 -1.5656 -1.7616
15551TIP3   OH268143   2.684   1.454   1.571  0.1207 -0.3605  0.2674
15551TIP3    H168144   2.730   1.407   1.501 -1.0857  0.8429 -1.4182
15551TIP3    H268145   2.651   1.533   1.529  0.0759  0.8505  2.4495
15552TIP3   OH268146   1.757   5.275  15.568  0.5066 -0.0331  0.0711
15552TIP3    H168147   1.847   5.272  15.537  0.3719 -1.8896 -0.2409
15552TIP3    H268148   1.764   5.263  15.663  0.6035 -0.0529  0.0619
15553TIP3   OH268149   5.561   6.435  12.487  1.0728 -0.4566 -0.0249
15553TIP3    H168150   5.508   6.358  12.506 -1.1346  0.9113 -0.3540
15553TIP3    H268151   5.587   6.425  12.396  2.4403 -1.6914  0.4579
15554TIP3   OH268152   2.616   6.687   3.848 -0.0363  0.0011  0.7267
15554TIP3    H168153   2.698   6.646   3.874  0.1788  0.3491  0.6136
15554TIP3    H268154   2.566   6.617   3.806  0.6709  0.0443 -0.2261
15555TIP3   OH268155   0.018   5.320  14.277  0.2671  0.1377  0.4000
15555TIP3    H168156   0.024   5.310  14.372 -0.9979 -3.0199  0.2469
15555TIP3    H268157  -0.068   5.361  14.263  0.5149  0.7366  0.6016
15556TIP3   OH268158   1.508   1.030  11.897  0.0726  0.5501  0.4080
15556TIP3    H168159   1.526   1.103  11.837 -0.7435  0.7421  0.3746
15556TIP3    H268160   1.452   1.068  11.965  0.3544  0.1526  0.8681
15557TIP3   OH268161   5.696   5.848   0.443  0.4464  0.5470 -0.3058
15557TIP3    H168162   5.677   5.881   0.355 -0.3099 -1.6108 -1.0094
15557TIP3    H268163   5.660   5.914   0.502 -0.9046  1.0412 -1.6355
15558TIP3   OH268164   2.466   6.299  11.128 -0.4785 -0.0864 -0.4063
15558TIP3    H168165   2.428   6.368  11.074 -0.7122 -0.0487 -0.1986
15558TIP3    H268166   2.409   6.296  11.205 -0.9693 -1.0779 -0.7915
15559TIP3   OH268167   4.756   3.902   5.778  0.3992  0.1121  0.0904
15559TIP3    H168168   4.839   3.948   5.771  1.5620 -1.7607  0.8332
15559TIP3    H268169   4.755   3.868   5.868 -0.5888 -0.9579 -0.2972
15560TIP3   OH268170   6.672   3.897   3.023 -0.2841 -0.0799 -0.2141
15560TIP3    H168171   6.674   3.992   3.033  0.0670 -0.3012  2.3358
15560TIP3    H268172   6.764   3.872   3.013 -0.3773 -0.1859 -0.9065
15561TIP3   OH268173   2.647   6.377   1.457  0.3718 -0.0486  0.1318
15561TIP3    H168174   2.552   6.376   1.465  0.1749 -1.1459 -1.7041
15561TIP3    H268175   2.673   6.286   1.472  1.2539  0.4095  1.5385
15562TIP3   OH268176   0.708   4.580   0.303 -0.0454 -0.2551 -0.3161
15562TIP3    H168177   0.767   4.542   0.368 -0.4635 -1.2727 -0.5193
15562TIP3    H268178   0.748   4.558   0.219  0.3933  0.8919 -0.4274
15563TIP3   OH268179   2.758   0.845   4.127 -0.0574 -0.1786  0.1878
15563TIP3    H168180   2.853   0.839   4.130 -0.0491 -0.1421 -0.0012
15563TIP3    H268181   2.729   0.820   4.215  0.1403  0.0981  0.3293
15564TIP3   OH268182   5.086   1.406   5.550  0.5002  0.1277 -0.0584
15564TIP3    H168183   5.171   1.394   5.509 -0.1072 -0.1057 -1.3064
15564TIP3    H268184   5.104   1.409   5.644  1.6876 -1.5780 -0.1999
15565TIP3   OH268185   6.431   4.082  16.068 -0.1718  0.5849  0.5825
15565TIP3    H168186   6.503   4.124  16.021  0.3747  0.0352  0.9147
15565TIP3    H268187   6.420   3.997  16.025 -0.8762  0.8203  0.2924
15566TIP3   OH268188   2.936   4.170  12.522  0.0659  0.1107 -0.6101
15566TIP3    H168189   3.024   4.153  12.556  0.4222 -1.0618 -1.9953
15566TIP3    H268190   2.917   4.260  12.546  1.4395  0.2177  0.1535
15567TIP3   OH268191   0.104   1.902   5.833 -0.2649 -0.1545 -0.4014
15567TIP3    H168192   0.174   1.965   5.813  1.5245 -2.0714 -0.5391
15567TIP3    H268193   0.033   1.955   5.869  0.0922  2.2755 -2.9139
15568TIP3   OH268194   6.505   1.078  15.296 -0.1597  0.3763 -0.4072
15568TIP3    H168195   6.574   1.144  15.284  0.6571 -0.5779 -1.1552
15568TIP3    H268196   6.425   1.121  15.264  0.8670  0.0846 -3.7410
15569TIP3   OH268197   0.592   4.722  16.447 -0.3026 -0.2664  0.6472
15569TIP3    H168198   0.519   4.687  16.397 -0.8190 -0.3779  1.4585
15569TIP3    H268199   0.632   4.786  16.389 -0.6031 -0.7207 -0.0766
15570TIP3   OH268200   2.976   6.364  15.568 -0.4808  0.2927  0.3476
15570TIP3    H168201   2.906   6.302  15.590 -0.5607 -0.2648 -1.3671
15570TIP3    H268202   3.016   6.385  15.653 -0.6840 -1.8287  1.0231
15571TIP3   OH268203   2.981   3.119   1.208 -0.0251 -0.4811  0.3399
15571TIP3    H168204   3.057   3.130   1.151 -1.5180 -0.9609 -1.8777
15571TIP3    H268205   3.010   3.151   1.293  2.3536  0.1910 -0.6406
15572TIP3   OH268206   3.436   0.187   4.259  0.8891 -0.1335  0.4143
15572TIP3    H168207   3.516   0.201   4.208  1.7225  0.3564  1.8116
15572TIP3    H268208   3.414   0.273   4.294  0.2911 -0.4474  0.8344
15573TIP3   OH268209   4.084   5.822  16.048 -0.2421 -0.3361  0.0586
15573TIP3    H168210   4.105   5.733  16.076  1.3909 -0.0595 -0.1774
15573TIP3    H268211   4.165   5.872  16.064 -0.7726  0.8531 -0.8050
15574TIP3   OH268212   1.601   4.889   2.813 -0.0469 -0.5434 -0.2074
15574TIP3    H168213   1.631   4.946   2.742 -2.6611  0.6443 -0.4738
15574TIP3    H268214   1.639   4.928   2.892 -0.6510  0.8116 -0.5470
15575TIP3   OH268215   6.311   1.067   2.544 -0.1760 -0.5615  0.5717
15575TIP3    H168216   6.285   0.979   2.516 -0.1596 -0.2457 -0.4798
15575TIP3    H268217   6.250   1.125   2.500  1.1449  0.0823 -0.4899
15576TIP3   OH268218   0.088   5.010  12.539  0.4099 -0.1673 -0.4788
15576TIP3    H168219   0.180   5.034  12.552  0.4211  0.2288 -1.2287
15576TIP3    H268220   0.089   4.914  12.535  0.5203 -0.2930  1.3941
15577TIP3   OH268221   2.425   6.005   6.434  0.2353 -0.0864 -0.0201
15577TIP3    H168222   2.500   5.962   6.393  1.4847  0.0328  2.0233
15577TIP3    H268223   2.415   5.960   6.518 -1.9592 -0.0287 -0.1912
15578TIP3   OH268224   0.836   0.241  12.118 -0.1949  0.0385  1.2138
15578TIP3    H168225   0.745   0.268  12.127  0.2437  2.0538  0.2023
15578TIP3    H268226   0.836   0.147  12.139 -2.7296 -0.3610 -0.2639
15579TIP3   OH268227   3.823   4.783   4.910  0.6236  0.6458  0.2518
15579TIP3    H168228   3.748   4.747   4.861  0.9430 -1.5387  1.2617
15579TIP3    H268229   3.794   4.871   4.936 -2.5646 -0.8365  2.4572
15580TIP3   OH268230   1.470   5.109   4.994 -0.0696 -0.2290 -0.6236
15580TIP3    H168231   1.429   5.146   4.917  0.1762 -0.7729 -1.0259
15580TIP3    H268232   1.540   5.171   5.017  0.2575 -0.3721 -1.2117
15581TIP3   OH268233   5.148   3.733  12.188  0.0986  0.3292  0.7454
15581TIP3    H168234   5.232   3.713  12.148 -0.6398 -0.0823 -0.6600
15581TIP3    H268235   5.168   3.800  12.253  1.4733  0.4287  0.2529
15582TIP3   OH268236   1.783   6.537   6.662 -0.0101 -0.2487 -0.0899
15582TIP3    H168237   1.749   6.591   6.591  0.5016 -0.5109 -0.5360
15582TIP3    H268238   1.854   6.486   6.623  1.5871  0.9929  1.0237
15583TIP3   OH268239   2.534   6.651   6.254 -0.1777  0.1089  0.9113
15583TIP3    H168240   2.536   6.585   6.185  0.5718  0.0352  1.0038
15583TIP3    H268241   2.477   6.613   6.321  1.0603 -0.9212  1.4260
15584TIP3   OH268242   0.197   1.822   5.513 -0.4467  0.3115  0.3960
15584TIP3    H168243   0.221   1.739   5.471 -1.6885 -1.0116  2.1698
15584TIP3    H268244   0.281   1.861   5.537  0.1347 -0.9942  0.5787
15585TIP3   OH268245   5.631   4.471  11.550  0.3934 -0.0249  0.4104
15585TIP3    H168246   5.727   4.469  11.555  0.5329  0.1439 -1.3761
15585TIP3    H268247   5.605   4.381  11.566  0.8143 -0.0249  1.1775
15586TIP3   OH268248   0.790   5.696   1.409 -0.2582 -0.0788  0.5616
15586TIP3    H168249   0.839   5.630   1.359  0.7234  0.4087  0.8401
15586TIP3    H268250   0.837   5.702   1.492 -2.7577 -1.9927  2.2590
15587TIP3   OH268251   0.105   0.591   4.153 -0.2337 -0.4241 -0.3537
15587TIP3    H168252   0.129   0.639   4.233 -0.8585 -0.2722 -0.2497
15587TIP3    H268253   0.188   0.570   4.112  0.0855 -0.1876  0.1570
15588TIP3   OH268254   4.091   0.696  12.933  0.1953 -0.4656  0.2728
15588TIP3    H168255   4.057   0.677  13.020  1.3515  0.0110  0.8535
15588TIP3    H268256   4.185   0.711  12.947  0.3335 -0.0334 -0.9977
15589TIP3   OH268257   2.828   0.852  16.370  0.0411 -0.2021 -0.1648
15589TIP3    H168258   2.734   0.864  16.388 -0.1981 -0.8010 -0.9687
15589TIP3    H268259   2.844   0.905  16.292  0.8188  1.4603  1.0520
15590TIP3   OH268260   5.683   5.792  11.959 -0.3630  0.3342  0.5151
15590TIP3    H168261   5.628   5.742  11.898 -2.6879  1.4742  1.5806
15590TIP3    H268262   5.733   5.851  11.903 -1.6331  0.5919 -0.3798
15591TIP3   OH268263   2.928   2.876   5.071  0.3914 -0.2391 -0.4129
15591TIP3    H168264   2.881   2.817   5.013 -0.2780 -2.4466  2.1957
15591TIP3    H268265   2.860   2.933   5.108  0.5836  0.1151 -0.5961
15592TIP3   OH268266   5.818   1.233  16.191 -0.0281  0.1965  0.0788
15592TIP3    H168267   5.800   1.167  16.257  0.9707 -2.3706 -2.0477
15592TIP3    H268268   5.734   1.277  16.177 -1.3744 -2.2477 -0.0762
15593TIP3   OH268269   5.452   1.442  12.195  0.4565 -0.9165 -0.6680
15593TIP3    H168270   5.526   1.458  12.136 -1.8442  0.6700 -3.4377
15593TIP3    H268271   5.383   1.407  12.137 -1.5205 -0.6212  1.3628
15594TIP3   OH268272   6.446   0.924  10.894  0.3148 -0.5352 -0.4167
15594TIP3    H168273   6.404   0.991  10.839  0.7929 -0.6528 -0.9278
15594TIP3    H268274   6.413   0.943  10.982  1.3535  1.1363 -0.3368
15595TIP3   OH268275   0.393   5.126   6.001 -0.5470  0.0723 -0.7509
15595TIP3    H168276   0.377   5.220   6.009 -1.4928 -0.1940  0.6909
15595TIP3    H268277   0.321   5.085   6.049 -0.3062 -1.4051 -1.6002
15596TIP3   OH268278   5.239   2.248  12.089  0.0244 -0.2613  0.1240
15596TIP3    H168279   5.187   2.180  12.046 -0.4601 -1.6292  2.6784
15596TIP3    H268280   5.228   2.231  12.182  2.0065  1.7746  0.8139
15597TIP3   OH268281   5.840   1.218   4.759 -0.1691 -0.0984  0.3789
15597TIP3    H168282   5.908   1.241   4.822 -0.5243  0.7575  0.4745
15597TIP3    H268283   5.793   1.301   4.743 -1.3773 -0.7220  0.5560
15598TIP3   OH268284   2.159   0.312   2.600 -0.0637  0.5520 -0.0627
15598TIP3    H168285   2.202   0.332   2.683 -2.7026  0.7215  1.3876
15598TIP3    H268286   2.106   0.390   2.581  0.1294  0.3216 -1.6799
15599TIP3   OH268287   4.512   4.874  16.109  0.0795  0.9771 -0.1264
15599TIP3    H168288   4.451   4.824  16.054  1.5734 -0.5795 -0.4213
15599TIP3    H268289   4.495   4.844  16.198  0.0119  0.9852 -0.1367
15600TIP3   OH268290   5.926   6.822   2.219  0.6651  0.5641 -0.7035
15600TIP3    H168291   5.868   6.896   2.237 -0.6480 -0.3356 -1.1197
15600TIP3    H268292   6.007   6.862   2.186  0.7473  1.9021  0.9973
15601TIP3   OH268293   4.486   6.148  15.408  0.0690 -0.7097  0.4105
15601TIP3    H168294   4.441   6.221  15.451 -0.4384 -1.3726  1.0178
15601TIP3    H268295   4.570   6.142  15.454  0.1021 -0.5240  0.3759
15602TIP3   OH268296   2.525   6.435  13.961 -0.1524 -0.0096  0.1397
15602TIP3    H168297   2.509   6.512  13.907  1.2433  1.3254  1.5119
15602TIP3    H268298   2.540   6.364  13.898 -0.4976  1.0412 -1.1772
15603TIP3   OH268299   5.343   5.369  11.441  0.1204  0.2512  0.1615
15603TIP3    H168300   5.286   5.443  11.420 -1.4111 -0.8118  0.4325
15603TIP3    H268301   5.301   5.294  11.399  2.0902 -0.3802 -0.8445
15604TIP3   OH268302   1.238   3.005   4.592  0.3211  0.2813  0.1637
15604TIP3    H168303   1.287   3.085   4.570  1.0022  0.0302  0.7125
15604TIP3    H268304   1.290   2.934   4.553 -0.5906  0.1356 -0.8332
15605TIP3   OH268305   1.655   4.302   2.181 -0.0983 -0.2027 -0.0974
15605TIP3    H168306   1.731   4.341   2.225 -0.5275 -0.5615  1.0008
15605TIP3    H268307   1.658   4.338   2.092 -0.0970  1.8470  0.6598
15606TIP3   OH268308   0.257   2.636  14.239 -0.7705  0.1226  0.6532
15606TIP3    H168309   0.225   2.643  14.329  0.0968  2.0072  0.8672
15606TIP3    H268310   0.230   2.718  14.197  1.0447  0.4395 -0.0243
15607TIP3   OH268311   3.820   5.308  15.549 -0.0833  0.3258  0.1344
15607TIP3    H168312   3.850   5.340  15.464  0.6136  0.5993  0.4751
15607TIP3    H268313   3.901   5.296  15.600 -0.3901 -1.1152  0.3148
15608TIP3   OH268314   3.559   2.884  10.534 -0.3367 -0.9796 -0.2094
15608TIP3    H168315   3.465   2.874  10.526 -0.1883 -1.6005 -1.3978
15608TIP3    H268316   3.594   2.851  10.452  0.9042 -0.4791  0.0904
15609TIP3   OH268317   5.614   5.706  15.375 -0.1160  0.2513  0.0015
15609TIP3    H168318   5.622   5.735  15.284  1.5250 -0.2448 -0.0464
15609TIP3    H268319   5.649   5.617  15.374 -1.1469 -0.1843  0.9209
15610TIP3   OH268320   4.956   6.085  14.115 -0.0428 -0.4753  1.0330
15610TIP3    H168321   4.905   6.112  14.192 -0.0602  0.7769  0.6035
15610TIP3    H268322   4.913   6.129  14.042  0.8474 -0.4814  0.4944
15611TIP3   OH268323   5.649   2.822  14.669  0.8220 -0.2446  0.6763
15611TIP3    H168324   5.633   2.731  14.644 -1.0931  0.3336 -0.3701
15611TIP3    H268325   5.672   2.866  14.587 -0.6719  0.6869  0.7241
15612TIP3   OH268326   2.339   2.968   3.668 -0.0293 -0.0474 -0.3451
15612TIP3    H168327   2.415   2.933   3.713 -0.0135  0.5606  0.1080
15612TIP3    H268328   2.330   3.057   3.700 -1.3249 -0.3083  0.1138
15613TIP3   OH268329   6.553   5.296   3.345  0.1858  0.0124 -0.3390
15613TIP3    H168330   6.537   5.376   3.396 -1.3953 -0.0710 -0.6526
15613TIP3    H268331   6.633   5.260   3.382 -1.0710 -0.2262  2.3647
15614TIP3   OH268332   1.272   1.116   2.353 -0.1031  0.1209  0.0489
15614TIP3    H168333   1.351   1.132   2.406 -0.5596  0.5244  0.6291
15614TIP3    H268334   1.293   1.039   2.301  0.6150  0.1235  0.3192
15615TIP3   OH268335   4.513   1.368   6.103 -0.2711 -0.0875  0.0503
15615TIP3    H168336   4.426   1.327   6.096 -0.4488  0.0047  1.3565
15615TIP3    H268337   4.504   1.429   6.176  0.4876  1.0213 -0.7487
15616TIP3   OH268338   5.676   2.703  12.785 -0.2449  0.0154  0.2709
15616TIP3    H168339   5.673   2.759  12.707 -3.2904 -0.5510 -0.1514
15616TIP3    H268340   5.672   2.764  12.859  2.6208  0.5535  0.1017
15617TIP3   OH268341   2.552   6.195   1.827  0.2880  0.0566  0.0568
15617TIP3    H168342   2.638   6.176   1.790  0.2459  0.2585 -0.1487
15617TIP3    H268343   2.492   6.140   1.776  0.1878  0.5882 -0.4154
15618TIP3   OH268344   4.237   0.225   6.305  0.4683  0.0782 -0.0502
15618TIP3    H168345   4.293   0.152   6.279  1.8740  0.4813  1.6193
15618TIP3    H268346   4.283   0.303   6.274  0.0241  0.3449 -0.0407
15619TIP3   OH268347   6.430   3.656  13.872 -0.2703 -0.2869  0.0730
15619TIP3    H168348   6.516   3.617  13.884 -0.4796 -0.4567  1.0984
15619TIP3    H268349   6.371   3.581  13.858 -0.4298 -0.2576  0.5503
15620TIP3   OH268350   4.666   5.595  13.052  0.1749  0.0004  0.3160
15620TIP3    H168351   4.706   5.675  13.018  0.0606 -1.1436 -2.7625
15620TIP3    H268352   4.593   5.625  13.106 -0.8605  2.0025 -2.0568
15621TIP3   OH268353   4.613   0.718   1.936 -0.2947 -0.3282 -0.5708
15621TIP3    H168354   4.564   0.731   1.855 -0.2416 -0.4187 -0.6183
15621TIP3    H268355   4.698   0.683   1.908 -0.8578 -1.9519 -0.3941
15622TIP3   OH268356   3.826   2.955   1.840  0.2551 -0.1871  0.8982
15622TIP3    H168357   3.874   2.877   1.810  0.0474  0.6570 -1.8775
15622TIP3    H268358   3.734   2.932   1.830  0.1584 -0.0101  1.3397
15623TIP3   OH268359   5.441   4.869   2.032 -0.8468  0.3661 -0.0658
15623TIP3    H168360   5.519   4.874   1.977 -1.0034 -0.8291 -0.4222
15623TIP3    H268361   5.437   4.778   2.060 -1.1218  0.8097  1.4279
15624TIP3   OH268362   2.873   3.911   4.696  0.3179 -0.0371 -0.9319
15624TIP3    H168363   2.778   3.903   4.682  0.2921 -3.4439  0.2099
15624TIP3    H268364   2.881   3.935   4.789  0.6076  1.2220 -1.2666
15625TIP3   OH268365   4.089   6.696  12.850 -0.0960  0.2409 -1.2006
15625TIP3    H168366   4.169   6.645  12.860 -0.2604 -0.1072 -1.5952
15625TIP3    H268367   4.115   6.786  12.869  0.0365 -0.0774  0.2563
15626TIP3   OH268368   3.568   2.056   5.196  0.5344 -0.2149  0.1686
15626TIP3    H168369   3.481   2.020   5.215  1.2310 -1.5463  1.0483
15626TIP3    H268370   3.561   2.089   5.107 -0.8346 -0.4407  0.1645
15627TIP3   OH268371   0.176   2.258  14.211  0.2190 -0.2468  0.3303
15627TIP3    H168372   0.148   2.280  14.122 -0.5958  0.2123  0.6908
15627TIP3    H268373   0.183   2.162  14.210  1.1057 -0.1881 -0.4726
15628TIP3   OH268374   4.529   5.397   6.122 -0.5921 -0.1820  0.5511
15628TIP3    H168375   4.599   5.334   6.101  1.8305  2.6021 -0.3617
15628TIP3    H268376   4.471   5.348   6.181  3.6402 -1.9622  3.7912
15629TIP3   OH268377   6.488   3.516  12.973 -0.0667  0.2172 -0.0053
15629TIP3    H168378   6.392   3.512  12.965  0.0385 -0.1461 -1.5327
15629TIP3    H268379   6.517   3.550  12.888  1.2413 -1.1071 -0.1298
15630TIP3   OH268380   5.869   6.748  12.284  0.2608  0.2841  0.0474
15630TIP3    H168381   5.903   6.835  12.264 -0.4440  0.6235  0.2975
15630TIP3    H268382   5.807   6.762  12.355  1.1226 -0.6098  1.0024
15631TIP3   OH268383   6.533   0.146   4.930 -0.4836 -0.3881  0.0514
15631TIP3    H168384   6.608   0.093   4.901 -0.3910 -0.8479  1.0950
15631TIP3    H268385   6.503   0.189   4.850  0.5512 -0.6240 -0.4928
15632TIP3   OH268386   5.530   4.064  12.126  0.3644  0.1333 -0.0671
15632TIP3    H168387   5.471   4.010  12.180 -1.7184  2.3499  0.0110
15632TIP3    H268388   5.586   4.108  12.189 -1.4375  1.9875  0.3519
15633TIP3   OH268389   4.184   1.178   5.508  0.1806 -0.1905  0.2736
15633TIP3    H168390   4.226   1.216   5.585  0.5713  0.4049 -0.2241
15633TIP3    H268391   4.215   1.232   5.435 -2.9033  1.5480  0.0584
15634TIP3   OH268392   0.839   0.675   3.802 -0.6123 -0.1943 -0.1281
15634TIP3    H168393   0.878   0.737   3.864  1.2184 -1.1453 -0.2793
15634TIP3    H268394   0.747   0.670   3.829 -0.4430  1.3484  0.8892
15635TIP3   OH268395   0.991   5.157   4.035 -0.0643  0.4351  0.0045
15635TIP3    H168396   1.070   5.211   4.031  0.1041  0.1233 -1.2991
15635TIP3    H268397   0.927   5.205   3.982 -0.6651  0.5311  0.8010
15636TIP3   OH268398   3.763   6.211   4.833  0.0761  0.1960  0.4503
15636TIP3    H168399   3.683   6.160   4.846  0.0356  0.6005  1.9400
15636TIP3    H268400   3.776   6.212   4.738 -0.9228 -1.0309  0.2776
15637TIP3   OH268401   4.918   6.729   3.888  0.3323 -0.0311 -0.1504
15637TIP3    H168402   4.883   6.784   3.818 -1.5772 -0.1039  0.6756
15637TIP3    H268403   4.906   6.781   3.967  1.9229 -0.1893  0.2233
15638TIP3   OH268404   5.573   2.761   4.093 -0.4052 -0.8049  0.3308
15638TIP3    H168405   5.505   2.693   4.092 -0.5002 -0.7162 -0.7518
15638TIP3    H268406   5.597   2.772   4.001  0.6446 -0.3934  0.6404
15639TIP3   OH268407   5.638   4.215  16.692 -0.2849  0.6483  0.0329
15639TIP3    H168408   5.600   4.139  16.648  0.2650 -1.0879  2.3563
15639TIP3    H268409   5.605   4.210  16.782  3.3246  0.4207  1.5296
15640TIP3   OH268410   2.662   4.883  15.007  0.0363  0.0379  0.4001
15640TIP3    H168411   2.582   4.906  15.054  0.3316  0.7890  0.5322
15640TIP3    H268412   2.720   4.957  15.019  1.5384 -1.3095  1.9958
15641TIP3   OH268413   0.445   4.313  11.908 -0.1080 -0.1366  0.1805
15641TIP3    H168414   0.383   4.380  11.937  0.5618 -0.4023  2.3871
15641TIP3    H268415   0.516   4.317  11.971  0.4260 -2.2715 -0.2057
15642TIP3   OH268416   2.837   1.419   1.823 -0.0050  0.1898 -0.6759
15642TIP3    H168417   2.805   1.332   1.848 -1.6629  1.0922  0.5212
15642TIP3    H268418   2.798   1.434   1.737  0.4930 -0.3459 -1.0004
15643TIP3   OH268419   3.030   6.766   6.383 -0.4972 -0.1993 -0.1093
15643TIP3    H168420   3.091   6.734   6.317 -0.2078  0.3517 -0.1106
15643TIP3    H268421   3.067   6.850   6.411 -2.3454  1.2029 -1.6303
15644TIP3   OH268422   6.439   3.960  16.888 -0.9844 -0.6550  0.0897
15644TIP3    H168423   6.497   4.032  16.865 -0.9074 -1.0055 -0.8300
15644TIP3    H268424   6.495   3.882  16.889 -1.6430 -1.2544 -2.2925
15645TIP3   OH268425   2.616   3.296  13.637 -0.2732 -0.1242 -0.3388
15645TIP3    H168426   2.709   3.301  13.614 -0.0452  1.5037  0.7507
15645TIP3    H268427   2.571   3.340  13.564 -0.1175 -0.1993 -0.4810
15646TIP3   OH268428   4.316   6.251   3.424 -0.1582  0.2755 -0.2184
15646TIP3    H168429   4.328   6.156   3.425 -0.7302  0.2014  0.7459
15646TIP3    H268430   4.244   6.266   3.362  0.8346  0.2137 -1.4187
15647TIP3   OH268431   0.814   3.149   2.137  0.4114 -0.7345 -0.1618
15647TIP3    H168432   0.901   3.128   2.171  0.8741  0.5624 -0.5257
15647TIP3    H268433   0.777   3.064   2.112  1.8977 -1.2114 -0.8112
15648TIP3   OH268434   0.448   1.961  16.603  0.1639 -0.6276 -0.1698
15648TIP3    H168435   0.405   1.960  16.518 -1.0223 -1.4275  0.4144
15648TIP3    H268436   0.427   1.876  16.642 -0.6600  0.3216  1.5630
15649TIP3   OH268437   2.919   0.455   3.464 -0.2354 -0.6803  0.1514
15649TIP3    H168438   2.856   0.524   3.483 -0.4344 -0.6665 -0.5522
15649TIP3    H268439   2.872   0.393   3.409  0.8777  0.2824 -2.0059
15650TIP3   OH268440   6.119   6.466   2.644 -0.1123 -0.9590 -0.2515
15650TIP3    H168441   6.210   6.492   2.634  0.0542 -0.5506  1.8194
15650TIP3    H268442   6.069   6.533   2.597  0.5632  0.4329  0.9157
15651TIP3   OH268443   2.468   1.779   3.680 -0.4580  0.4732 -0.2624
15651TIP3    H168444   2.427   1.820   3.756  0.6108 -0.8414  1.0825
15651TIP3    H268445   2.404   1.713   3.652 -0.7579  0.8110 -0.3863
15652TIP3   OH268446   3.392   3.146   4.690  0.3739 -0.1210 -0.1376
15652TIP3    H168447   3.453   3.139   4.617  0.8836 -0.4520  0.3177
15652TIP3    H268448   3.405   3.234   4.724 -0.9386  0.5901 -1.3748
15653TIP3   OH268449   0.049   3.670  15.482  0.5811 -0.2966  0.6095
15653TIP3    H168450   0.055   3.756  15.525 -0.2419 -0.5454  1.2518
15653TIP3    H268451   0.085   3.609  15.547  0.6712 -0.5010  0.3677
15654TIP3   OH268452   2.840   5.816  16.727 -0.1408  0.1627  0.0421
15654TIP3    H168453   2.777   5.876  16.689 -1.9175 -1.5584  0.1343
15654TIP3    H268454   2.866   5.759  16.654 -1.8049 -1.6758  0.8086
15655TIP3   OH268455   2.294   0.670  11.822  0.5168 -0.4778  0.1636
15655TIP3    H168456   2.252   0.609  11.761 -0.4244  0.5086 -0.2147
15655TIP3    H268457   2.332   0.737  11.765  3.4470 -1.7612  0.4230
15656TIP3   OH268458   2.047   2.306  16.653  0.9421 -0.5853  0.4635
15656TIP3    H168459   1.960   2.314  16.613  1.1749  0.8819  0.1956
15656TIP3    H268460   2.069   2.213  16.644 -0.4991 -0.9424  0.3439
15657TIP3   OH268461   0.427   2.063  15.307  0.4999  0.5243  0.5066
15657TIP3    H168462   0.483   2.136  15.283  0.4003  0.9433  1.5060
15657TIP3    H268463   0.459   2.034  15.392 -1.2356  1.2656  1.4810
15658TIP3   OH268464   2.898   5.684  14.572  0.2574  0.6465  0.0781
15658TIP3    H168465   2.808   5.701  14.599 -0.1364  0.4823 -1.0812
15658TIP3    H268466   2.952   5.735  14.633 -0.5378 -0.1783  1.5308
15659TIP3   OH268467   6.540   4.909  13.930  0.2903 -0.1971  0.0988
15659TIP3    H168468   6.556   4.819  13.901  0.2492 -1.1367  2.7967
15659TIP3    H268469   6.625   4.940  13.960  0.3256  0.7397 -0.9153
15660TIP3   OH268470   1.696   0.421   4.488 -0.1597 -0.3041 -0.2701
15660TIP3    H168471   1.706   0.329   4.516 -0.1829  0.3889  2.2858
15660TIP3    H268472   1.734   0.472   4.559 -1.1697  1.7260 -1.1044
15661TIP3   OH268473   3.091   2.835   0.529 -0.0540 -0.0129  0.2033
15661TIP3    H168474   3.010   2.859   0.486 -0.5849  1.9009  2.0947
15661TIP3    H268475   3.156   2.897   0.495 -0.2701  0.8871  1.3330
15662TIP3   OH268476   4.707   0.663   5.533  0.0112 -0.5605 -0.2647
15662TIP3    H168477   4.688   0.590   5.474  2.0235 -1.2749 -0.1091
15662TIP3    H268478   4.645   0.731   5.508  0.8539 -0.7818 -3.3490
15663TIP3   OH268479   0.007   6.208   3.787 -0.2171  0.1396 -0.0427
15663TIP3    H168480   0.039   6.134   3.735  1.8444  0.2098  1.0326
15663TIP3    H268481  -0.016   6.170   3.871 -0.6790  0.4875 -0.0088
15664TIP3   OH268482   3.265   3.043   1.164  0.2147 -0.0718  0.2394
15664TIP3    H168483   3.331   2.985   1.127  0.5030 -0.2530  1.0097
15664TIP3    H268484   3.315   3.116   1.201 -0.0325 -0.0568  0.5501
15665TIP3   OH268485   4.423   3.837   4.538  0.1482  0.5119  0.2526
15665TIP3    H168486   4.447   3.903   4.473 -1.0198 -0.0476 -0.7788
15665TIP3    H268487   4.406   3.887   4.618 -2.3586  1.7201 -0.9258
15666TIP3   OH268488   3.539   5.553   1.352 -0.1469  0.1084 -0.0341
15666TIP3    H168489   3.513   5.494   1.423  0.0411 -0.1816 -0.2029
15666TIP3    H268490   3.631   5.532   1.335 -0.8201 -1.5791 -2.0137
15667TIP3   OH268491   4.858   5.759   1.396 -0.1898 -0.3196  0.1804
15667TIP3    H168492   4.876   5.667   1.375  1.9120  0.1418 -0.2436
15667TIP3    H268493   4.943   5.796   1.417 -1.1755  1.2292  1.7495
15668TIP3   OH268494   5.308   2.264   2.792  0.1216  0.3198  0.2295
15668TIP3    H168495   5.318   2.191   2.732 -0.0480  0.4039  0.0987
15668TIP3    H268496   5.218   2.258   2.824 -1.0579  2.4003 -2.3361
15669TIP3   OH268497   5.364   1.277  13.694 -0.0244  0.9433  0.3827
15669TIP3    H168498   5.327   1.293  13.780  1.0608  0.8868  0.8749
15669TIP3    H268499   5.394   1.363  13.664  1.4032  0.6717  0.9425
15670TIP3   OH268500   1.726   2.050  11.671 -0.5669 -0.0498  0.1923
15670TIP3    H168501   1.765   2.042  11.584 -2.0361 -1.6233 -0.3760
15670TIP3    H268502   1.667   1.975  11.678 -0.7429  0.2287  2.4263
15671TIP3   OH268503   0.438   3.589   3.309  0.3336 -0.1530  0.1789
15671TIP3    H168504   0.376   3.569   3.239  1.0441  1.3750 -0.9472
15671TIP3    H268505   0.382   3.603   3.386 -0.7241  0.8533 -0.7264
15672TIP3   OH268506   0.274   1.776  14.424 -0.1527  0.3544  0.4694
15672TIP3    H168507   0.340   1.790  14.492  1.0324  2.6548 -1.0246
15672TIP3    H268508   0.299   1.692  14.384  0.7493  0.2998  1.1083
15673TIP3   OH268509   2.837   1.226   5.567  0.2611  0.1220  0.3013
15673TIP3    H168510   2.862   1.217   5.475  1.7090 -0.3758  0.7095
15673TIP3    H268511   2.742   1.236   5.566  0.3938  1.4642 -1.3194
15674TIP3   OH268512   0.281   2.467  10.654  0.1069  0.1090  0.4364
15674TIP3    H168513   0.316   2.470  10.565  1.3484 -1.6459  0.8246
15674TIP3    H268514   0.192   2.432  10.643  0.5233 -0.8209 -0.0498
15675TIP3   OH268515   4.137   3.803  15.330  0.5214  0.0106 -0.5165
15675TIP3    H168516   4.199   3.794  15.258  1.6487  0.0904  0.4225
15675TIP3    H268517   4.152   3.726  15.385 -1.0713 -0.6149 -0.8834
15676TIP3   OH268518   4.449   4.417  16.668 -0.6376  0.1210  0.2860
15676TIP3    H168519   4.501   4.410  16.749  0.0509  0.2321 -0.1442
15676TIP3    H268520   4.422   4.327  16.650  2.9306 -0.7367 -1.7606
15677TIP3   OH268521   2.124   0.622   3.789 -0.2355 -0.0304  0.1435
15677TIP3    H168522   2.047   0.570   3.813 -0.7519  0.4351 -0.4658
15677TIP3    H268523   2.198   0.569   3.818 -0.7422  1.3241  4.6148
15678TIP3   OH268524   6.190   2.040   0.106  0.7272  0.3562 -0.4370
15678TIP3    H168525   6.174   2.127   0.142 -1.9479  0.5402 -1.8200
15678TIP3    H268526   6.244   1.996   0.173 -0.7813  1.8999  1.9619
15679TIP3   OH268527   3.130   1.190   5.326  0.4400  0.0673  0.5235
15679TIP3    H168528   3.035   1.184   5.336  0.5171 -1.1665  0.6645
15679TIP3    H268529   3.143   1.234   5.243 -0.2464  1.1194  0.9583
15680TIP3   OH268530   1.174   4.655   0.249 -0.3747  0.2468  0.5723
15680TIP3    H168531   1.154   4.563   0.264  0.1124  0.2519  1.2744
15680TIP3    H268532   1.149   4.670   0.157 -0.8951 -0.4580  0.5899
15681TIP3   OH268533   5.413   5.078  14.511 -0.2809 -0.1461 -0.6579
15681TIP3    H168534   5.414   5.014  14.440 -1.9057  0.0459 -0.8841
15681TIP3    H268535   5.328   5.066  14.554 -0.3719  1.4279 -0.3143
15682TIP3   OH268536   1.601   2.370   3.763 -0.4006 -0.4039 -0.6466
15682TIP3    H168537   1.690   2.407   3.767 -0.2380 -0.9046  1.1054
15682TIP3    H268538   1.570   2.394   3.676  1.6058 -0.5663 -1.4770
15683TIP3   OH268539   6.092   4.637  16.993 -0.2735  0.3704  0.0256
15683TIP3    H168540   6.143   4.648  16.913 -1.4286  2.3572 -0.5184
15683TIP3    H268541   6.008   4.604  16.964 -1.4764  3.1261  0.0409
15684TIP3   OH268542   2.492   2.470   0.279  0.3301  0.1311 -0.2159
15684TIP3    H168543   2.551   2.414   0.330 -1.5727 -2.8386 -0.9862
15684TIP3    H268544   2.423   2.494   0.339  0.3239  0.3085 -0.2940
15685TIP3   OH268545   6.658   5.546   1.824  0.1987  0.7715 -0.3353
15685TIP3    H168546   6.722   5.475   1.829 -2.0269 -1.2693  1.6151
15685TIP3    H268547   6.603   5.534   1.902 -2.7397  2.1996 -2.0358
15686TIP3   OH268548   1.688   6.025  15.450 -0.0641  0.4936 -0.3239
15686TIP3    H168549   1.696   6.120  15.461  0.7248  0.3312  0.6520
15686TIP3    H268550   1.623   5.999  15.516  0.0962  0.2945 -0.2443
15687TIP3   OH268551   6.232   1.241  15.900  0.1023 -1.0098  0.3087
15687TIP3    H168552   6.216   1.213  15.990 -0.5335  0.3118  0.6453
15687TIP3    H268553   6.258   1.333  15.907 -0.2988 -0.7759 -0.8701
15688TIP3   OH268554   5.671   2.348  13.148  0.3342 -0.6110  0.0015
15688TIP3    H168555   5.757   2.363  13.186  0.1254 -1.6014  0.8994
15688TIP3    H268556   5.642   2.435  13.119  1.0743 -0.0552  0.8831
15689TIP3   OH268557   6.793   2.283   1.748 -0.3183  0.0680 -0.8100
15689TIP3    H168558   6.861   2.308   1.811 -0.8698 -0.5446  0.0620
15689TIP3    H268559   6.840   2.267   1.666  0.3686  1.2577 -0.6651
15690TIP3   OH268560   2.248   6.170   0.113 -0.3270 -0.1766  0.3744
15690TIP3    H168561   2.319   6.217   0.070 -0.6241  1.2204  1.3610
15690TIP3    H268562   2.182   6.237   0.131  0.0015 -0.5566  3.4795
15691TIP3   OH268563   1.087   5.079  12.882  0.4848  0.4786  0.0869
15691TIP3    H168564   1.009   5.069  12.828  0.5737 -0.6508  0.1415
15691TIP3    H268565   1.160   5.072  12.821  0.5656  0.4662  0.1846
15692TIP3   OH268566   1.364   3.338  13.871  0.0600 -0.5468 -0.0535
15692TIP3    H168567   1.314   3.313  13.949  0.4441 -1.4431 -0.0869
15692TIP3    H268568   1.356   3.433  13.868 -1.1242 -0.6178  0.2900
15693TIP3   OH268569   2.346   6.664   2.218 -0.1257 -0.0879  0.0190
15693TIP3    H168570   2.329   6.661   2.123  1.3042 -1.3235 -0.2339
15693TIP3    H268571   2.377   6.753   2.233 -0.6005  0.1988 -0.6269
15694TIP3   OH268572   4.266   4.646   5.102  0.3440 -0.4107  0.1569
15694TIP3    H168573   4.205   4.713   5.132  1.2280 -0.0270  1.1886
15694TIP3    H268574   4.227   4.563   5.129 -1.0905 -0.4156 -1.7199
15695TIP3   OH268575   0.592   1.394  15.483  0.3947 -0.0323  0.1935
15695TIP3    H168576   0.602   1.303  15.511  1.6216  0.3607  1.1332
15695TIP3    H268577   0.659   1.406  15.416 -0.9674 -0.2947 -1.2848
15696TIP3   OH268578   3.141   3.787   2.348 -0.1359 -0.0575  0.5930
15696TIP3    H168579   3.122   3.833   2.430 -1.5678 -1.7089  1.2640
15696TIP3    H268580   3.059   3.791   2.298 -0.5520 -2.2924  0.9492
15697TIP3   OH268581   2.225   6.063  11.143 -0.3941  0.6571  0.1649
15697TIP3    H168582   2.214   6.084  11.050 -0.6136  0.8874  0.2411
15697TIP3    H268583   2.265   6.141  11.181  0.5707  0.2086  0.0885
15698TIP3   OH268584   6.319   0.844  16.137 -0.0808  0.0495 -0.0430
15698TIP3    H168585   6.368   0.862  16.057 -2.9000  0.8171 -1.7065
15698TIP3    H268586   6.292   0.930  16.168  0.6106 -0.2684  1.5628
15699TIP3   OH268587   5.348   2.545  11.018 -0.5604 -0.1797  0.7201
15699TIP3    H168588   5.402   2.465  11.021 -1.9088 -1.2669 -1.2223
15699TIP3    H268589   5.397   2.604  10.962  0.4455  0.4144  2.1646
15700TIP3   OH268590   0.398   4.012  12.681 -0.2167 -0.4468 -0.2394
15700TIP3    H168591   0.471   3.989  12.738  2.5120  2.2497 -2.3189
15700TIP3    H268592   0.353   4.084  12.727  0.3784 -0.0316 -0.2917
15701TIP3   OH268593   5.648   4.067   1.507  0.3732 -0.2750 -0.3467
15701TIP3    H168594   5.727   4.043   1.555 -1.0326 -2.9267  0.8882
15701TIP3    H268595   5.679   4.089   1.419  2.4660 -1.4310  0.0369
15702TIP3   OH268596   0.208   3.649  12.649 -0.5762 -0.0257 -0.3521
15702TIP3    H168597   0.139   3.599  12.691 -1.3137  0.5453 -0.8639
15702TIP3    H268598   0.248   3.699  12.721 -0.4698 -0.6031 -0.0033
15703TIP3   OH268599   2.331   0.262  13.981  0.2110  0.1763 -0.1690
15703TIP3    H168600   2.388   0.263  14.058 -0.5800 -2.7452  0.5626
15703TIP3    H268601   2.386   0.296  13.910  2.1224 -0.4147  0.9496
15704TIP3   OH268602   5.459   2.849  14.099  0.4009  0.0784  0.2912
15704TIP3    H168603   5.390   2.822  14.038 -2.0706 -0.0478  2.9101
15704TIP3    H268604   5.485   2.768  14.143  0.0769  0.5184  1.3280
15705TIP3   OH268605   1.291   2.060  15.863 -0.6852 -0.1304 -0.2756
15705TIP3    H168606   1.247   1.985  15.824 -1.0367 -1.6671  2.7633
15705TIP3    H268607   1.225   2.099  15.921  0.6706  0.0073  1.2619
15706TIP3   OH268608   5.738   3.932   1.917  0.2499 -0.1747 -0.1327
15706TIP3    H168609   5.683   3.957   1.992  0.6746  0.7940 -0.1301
15706TIP3    H268610   5.802   3.872   1.954  1.1227  1.1255  0.5287
15707TIP3   OH268611   0.648   0.678  14.855  0.4788 -0.6088 -0.0661
15707TIP3    H168612   0.587   0.618  14.898  1.4470 -2.1094 -0.6824
15707TIP3    H268613   0.647   0.651  14.763  1.5280 -0.2121 -0.2128
15708TIP3   OH268614   6.686   0.166  12.732 -0.0835 -0.4775 -0.2900
15708TIP3    H168615   6.637   0.101  12.782 -0.7295  1.5699  1.9513
15708TIP3    H268616   6.619   0.216  12.686 -0.1436  1.4911  1.7440
15709TIP3   OH268617   3.885   3.618   0.447  0.1708 -0.5094 -0.2432
15709TIP3    H168618   3.931   3.549   0.400  1.1538 -1.0902  1.4537
15709TIP3    H268619   3.935   3.629   0.528 -1.6039  0.1866  0.8318
15710TIP3   OH268620   0.850   2.075   5.701 -0.5101 -0.4949 -0.4359
15710TIP3    H168621   0.846   2.080   5.605 -0.9155  1.0015 -0.3564
15710TIP3    H268622   0.830   2.164   5.731 -0.9645 -1.0679  1.0562
15711TIP3   OH268623   5.597   4.331   0.086 -0.0625 -0.9070 -0.0034
15711TIP3    H168624   5.630   4.396   0.148  0.1249 -1.1735  0.1811
15711TIP3    H268625   5.656   4.336   0.011 -0.1058 -0.7951 -0.0288
15712TIP3   OH268626   6.399   3.951   5.799  0.1366  0.4173  0.6426
15712TIP3    H168627   6.342   4.022   5.770  0.3470  0.2594 -0.1997
15712TIP3    H268628   6.339   3.881   5.826 -0.0868  1.2641  2.4554
15713TIP3   OH268629   2.718   1.455   4.253  0.3033 -0.0689  0.1416
15713TIP3    H168630   2.663   1.445   4.175  1.2788  0.1489 -0.5923
15713TIP3    H268631   2.680   1.529   4.300  1.3103  1.5947 -1.5402
15714TIP3   OH268632   0.609   5.900  17.207  0.4105 -0.4389 -0.1021
15714TIP3    H168633   0.668   5.838  17.165  0.7597  1.3800 -2.5160
15714TIP3    H268634   0.521   5.869  17.183  0.4550 -1.5893  1.1579
15715TIP3   OH268635   4.989   3.799  11.274  0.8357  0.9077  0.1393
15715TIP3    H168636   4.911   3.855  11.278  0.5592  0.5552 -0.1993
15715TIP3    H268637   5.062   3.860  11.265  0.4701  1.1964 -1.0551
15716TIP3   OH268638   2.287   3.004   4.421 -0.4322  0.3688 -0.1320
15716TIP3    H168639   2.311   3.038   4.335  5.6103 -2.8471 -0.2644
15716TIP3    H268640   2.314   3.072   4.482  0.1599  0.6583 -0.7033
15717TIP3   OH268641   5.862   4.445   2.616 -0.8737  0.0256  0.0137
15717TIP3    H168642   5.907   4.439   2.532  0.9087 -0.0471  0.9335
15717TIP3    H268643   5.839   4.354   2.637 -1.7413  0.0953 -0.5961
15718TIP3   OH268644   0.851   1.335   1.491 -0.0281  0.6544  0.3018
15718TIP3    H168645   0.821   1.387   1.565  1.7492  0.6063  1.1200
15718TIP3    H268646   0.929   1.380   1.460 -1.2193  1.1625 -2.1702
15719TIP3   OH268647   3.781   4.180   0.386  0.1792  0.3323 -0.3351
15719TIP3    H168648   3.876   4.175   0.388  0.1638  0.0502  1.0384
15719TIP3    H268649   3.752   4.089   0.380  0.0058  0.3071  0.7123
15720TIP3   OH268650   4.418   2.190   5.007  0.5701  0.4867 -0.0052
15720TIP3    H168651   4.401   2.284   5.013  1.2061  0.5971  0.1186
15720TIP3    H268652   4.413   2.171   4.913 -1.7839  0.2024  0.1194
15721TIP3   OH268653   3.118   5.193  11.451 -0.1946 -0.1778 -0.6174
15721TIP3    H168654   3.046   5.202  11.388 -0.4826  0.3871 -0.2155
15721TIP3    H268655   3.120   5.099  11.472 -1.1963 -0.1135 -0.1886
15722TIP3   OH268656   1.408   6.167  16.046 -0.4394  0.4095 -0.1242
15722TIP3    H168657   1.375   6.169  15.956 -0.0758  0.0508 -0.2737
15722TIP3    H268658   1.415   6.074  16.066 -0.5812  0.4911  0.3024
15723TIP3   OH268659   4.362   0.770  11.130 -0.1841  0.0808 -0.4700
15723TIP3    H168660   4.419   0.846  11.143  0.3833 -0.2987 -0.6893
15723TIP3    H268661   4.354   0.762  11.035 -2.5820  1.5610 -0.4931
15724TIP3   OH268662   0.152   5.427   3.425 -0.0697 -0.1794 -0.5501
15724TIP3    H168663   0.095   5.502   3.415 -2.4940 -1.7557  0.3899
15724TIP3    H268664   0.131   5.370   3.351  2.4062  0.3634 -1.7857
15725TIP3   OH268665   2.065   5.590  16.397 -0.0867 -0.1592 -0.1318
15725TIP3    H168666   2.152   5.549  16.402 -0.6724 -1.3218  2.0535
15725TIP3    H268667   2.009   5.522  16.359  0.3297  1.4510 -3.9574
15726TIP3   OH268668   4.063   6.796  15.335 -0.1906  0.2403 -0.4594
15726TIP3    H168669   3.970   6.794  15.311 -0.4802  0.2769  0.6143
15726TIP3    H268670   4.071   6.730  15.404  0.3634  0.9888  0.2069
15727TIP3   OH268671   6.562   5.282  14.868 -0.1228  0.0029  0.6580
15727TIP3    H168672   6.490   5.222  14.849 -1.1201  1.4674 -0.4552
15727TIP3    H268673   6.640   5.227  14.866 -1.0092 -1.2882 -0.0874
15728TIP3   OH268674   3.394   5.650   1.977 -0.3170  0.5524 -0.0274
15728TIP3    H168675   3.442   5.568   1.974 -0.5753  0.3961  0.0831
15728TIP3    H268676   3.442   5.704   2.040  0.4457  0.8688 -0.8636
15729TIP3   OH268677   6.462   3.239  15.782  0.1443  0.3425 -0.3190
15729TIP3    H168678   6.487   3.229  15.874 -1.5704  1.3779  0.2854
15729TIP3    H268679   6.368   3.221  15.780  0.0508  0.8746 -1.7822
15730TIP3   OH268680   1.568   3.526  15.542  0.8853 -0.2104  0.2624
15730TIP3    H168681   1.530   3.443  15.570  0.1919  0.5429  1.6490
15730TIP3    H268682   1.597   3.568  15.623 -0.4925  1.7096 -0.1650
15731TIP3   OH268683   3.903   4.799  15.691  0.3028  0.8864  0.6382
15731TIP3    H168684   3.916   4.710  15.724  1.3470  1.1997  1.1427
15731TIP3    H268685   3.826   4.794  15.635  2.2654 -1.1179 -2.1688
15732TIP3   OH268686   5.751   0.880  14.921 -0.5170 -0.5838  0.3805
15732TIP3    H168687   5.732   0.880  14.827 -0.2932 -0.4902  0.3348
15732TIP3    H268688   5.845   0.896  14.926 -0.4945 -0.7851  0.6134
15733TIP3   OH268689   1.452   3.270  13.004  0.8558 -0.1584 -0.6308
15733TIP3    H168690   1.540   3.287  12.971  0.7032  1.1552 -0.4352
15733TIP3    H268691   1.447   3.321  13.085  0.9103 -2.5699  0.9939
15734TIP3   OH268692   5.444   3.494   5.216 -0.1416 -0.7752 -0.1203
15734TIP3    H168693   5.390   3.543   5.155 -0.5674 -0.0949  0.7754
15734TIP3    H268694   5.490   3.430   5.162 -1.9323 -1.4666 -0.9186
15735TIP3   OH268695   0.967   2.807  11.911 -0.0664  0.3343 -0.3948
15735TIP3    H168696   0.877   2.776  11.923  0.8592 -2.5418  0.0714
15735TIP3    H268697   1.001   2.754  11.838  1.2177  1.4727 -0.6689
15736TIP3   OH268698   3.474   0.660  11.796 -0.3450 -0.0208  0.0482
15736TIP3    H168699   3.520   0.744  11.799  1.0045 -0.7373  0.3124
15736TIP3    H268700   3.465   0.641  11.702 -0.7890  0.4861 -0.0123
15737TIP3   OH268701   1.523   0.024  14.996 -0.8460 -0.2596  0.0545
15737TIP3    H168702   1.618   0.022  14.990 -0.9315 -1.1700 -1.2894
15737TIP3    H268703   1.503  -0.025  15.076 -0.3040 -3.6823 -1.7440
15738TIP3   OH268704   6.044   4.351  14.916 -0.1872  0.0414 -0.1228
15738TIP3    H168705   6.110   4.421  14.917 -1.4984  1.3423  1.4051
15738TIP3    H268706   5.961   4.398  14.905 -1.0908 -1.2891  0.8252
15739TIP3   OH268707   2.274   5.261  10.945 -0.0336  0.5534 -0.5345
15739TIP3    H168708   2.185   5.226  10.943  0.3751 -0.6184  0.2489
15739TIP3    H268709   2.315   5.228  10.865  0.2817 -0.6587  0.0911
15740TIP3   OH268710   1.880   1.958   0.960 -0.7281  0.0059 -0.0718
15740TIP3    H168711   1.911   1.950   0.869  0.7001  1.9765  0.1886
15740TIP3    H268712   1.948   1.915   1.012 -1.2286 -0.5563  0.1272
15741TIP3   OH268713   4.391   4.034  14.879  0.7241 -0.4694  0.1776
15741TIP3    H168714   4.471   4.088  14.884  0.5306 -0.2673  1.4778
15741TIP3    H268715   4.422   3.944  14.890  0.7880 -0.3946  0.6407
15742TIP3   OH268716   2.969   3.140   0.581  0.3687  0.2490 -0.5467
15742TIP3    H168717   2.988   3.078   0.651  3.2099  0.7041 -0.8084
15742TIP3    H268718   2.989   3.225   0.618 -1.9365  0.9481 -0.7247
15743TIP3   OH268719   4.935   5.762   3.255  0.3563  0.2663  0.6799
15743TIP3    H168720   5.002   5.786   3.192 -0.3980  0.2711 -0.1391
15743TIP3    H268721   4.983   5.739   3.334  1.3372 -0.0961 -0.0074
15744TIP3   OH268722   1.195   0.653  13.584  0.6020  0.0177 -0.7805
15744TIP3    H168723   1.167   0.566  13.557  0.5185 -0.2166  0.0400
15744TIP3    H268724   1.185   0.653  13.680 -1.6303  1.7110 -0.9327
15745TIP3   OH268725   6.136   2.927  14.591 -0.0709  0.6371  0.7825
15745TIP3    H168726   6.132   2.832  14.601 -0.4923  0.1629 -2.6895
15745TIP3    H268727   6.222   2.944  14.552 -1.2386  1.1855 -1.7807
15746TIP3   OH268728   2.134   3.900   0.941  0.8295 -0.4984  0.1004
15746TIP3    H168729   2.046   3.927   0.913  0.5300 -0.2941  1.2042
15746TIP3    H268730   2.118   3.824   0.997  1.4397 -1.0533 -0.4602
15747TIP3   OH268731   3.806   0.397   0.908  0.3010  0.3999  0.0590
15747TIP3    H168732   3.845   0.309   0.916 -2.6036 -1.1406 -1.3193
15747TIP3    H268733   3.789   0.423   0.999  0.1204 -1.0090  0.4638
15748TIP3   OH268734   3.801   4.230  16.754  0.8548  0.1101 -0.1508
15748TIP3    H168735   3.765   4.291  16.689  0.3611 -0.3298 -0.2938
15748TIP3    H268736   3.895   4.226  16.733  0.3967 -1.7023 -2.2803
15749TIP3   OH268737   3.955   4.022   3.749 -0.0136 -0.2026  0.4099
15749TIP3    H168738   3.859   4.029   3.755  0.0057  1.3074 -0.4032
15749TIP3    H268739   3.976   3.942   3.796 -1.6305 -0.2510  1.1364
15750TIP3   OH268740   1.187   1.052  15.558  0.1413  0.2053  0.6204
15750TIP3    H168741   1.202   1.092  15.473 -1.3525 -0.0499  0.2107
15750TIP3    H268742   1.211   1.120  15.621 -0.4711  1.0488 -0.0328
15751TIP3   OH268743   5.706   0.045  11.944 -0.5830 -0.7256  0.0538
15751TIP3    H168744   5.721   0.103  11.869 -0.8429  0.2612  0.7497
15751TIP3    H268745   5.698   0.103  12.019  4.2405 -1.7831  1.7411
15752TIP3   OH268746   6.113   5.577  11.366  0.0238 -0.6997  0.7512
15752TIP3    H168747   6.078   5.528  11.441 -0.7266 -0.3962  0.6116
15752TIP3    H268748   6.137   5.662  11.403 -0.2859 -0.5732  0.6691
15753TIP3   OH268749   5.765   2.803  12.231 -0.5214  1.0135 -0.1682
15753TIP3    H168750   5.812   2.841  12.305 -1.0647  1.8296 -0.2317
15753TIP3    H268751   5.678   2.844  12.234 -1.8046 -1.5345  0.8538
15754TIP3   OH268752   2.022   1.235  14.767  0.4528 -0.0397 -0.1113
15754TIP3    H168753   2.063   1.211  14.851 -0.2347 -1.3179 -0.1187
15754TIP3    H268754   2.072   1.186  14.701  1.0010  0.9746 -0.4693
15755TIP3   OH268755   4.172   2.721  15.752 -0.5649  0.3614  0.3246
15755TIP3    H168756   4.087   2.763  15.737 -1.1467  0.0219  2.3478
15755TIP3    H268757   4.168   2.692  15.843  1.2154 -0.8718  0.0492
15756TIP3   OH268758   0.412   1.677   2.333 -0.5846 -0.0135 -0.4211
15756TIP3    H168759   0.342   1.724   2.289  2.0469  1.8439 -3.0371
15756TIP3    H268760   0.411   1.710   2.423 -1.9150  1.3389 -0.9017
15757TIP3   OH268761   6.211   3.892  11.513  0.3796  0.3282 -0.3094
15757TIP3    H168762   6.175   3.953  11.578  1.1517  1.7883 -1.2062
15757TIP3    H268763   6.190   3.805  11.548  1.4374  1.0155  2.2885
15758TIP3   OH268764   0.116   3.253  11.795  0.0027 -0.1206  0.5347
15758TIP3    H168765   0.155   3.330  11.836 -1.0913  0.4954  0.4362
15758TIP3    H268766   0.080   3.202  11.868  0.6755 -0.5363  0.5940
15759TIP3   OH268767   1.459   5.987  15.784  0.1007  0.2617 -0.3786
15759TIP3    H168768   1.479   5.897  15.757 -0.2722 -0.1248  0.5921
15759TIP3    H268769   1.545   6.028  15.797  0.2768  0.1904 -1.2564
15760TIP3   OH268770   3.014   4.147   5.369 -0.1425 -0.0052  0.1256
15760TIP3    H168771   2.984   4.109   5.452  0.2217 -1.2519 -0.2882
15760TIP3    H268772   3.072   4.219   5.395  0.3400 -0.6766  0.9742
15761TIP3   OH268773   5.289   4.101   2.310  0.1014 -0.1852  0.3794
15761TIP3    H168774   5.344   4.096   2.232  0.5399  1.0863  0.5841
15761TIP3    H268775   5.325   4.174   2.360  0.6490 -1.8076  2.4459
15762TIP3   OH268776   1.078   2.038  11.866 -0.2402  0.2342 -0.0789
15762TIP3    H168777   0.993   2.027  11.822  0.4073  0.8500 -1.5325
15762TIP3    H268778   1.074   1.978  11.941 -2.1041  0.5368  0.1094
15763TIP3   OH268779   3.871   2.722  12.076  0.1217  0.4731  0.6081
15763TIP3    H168780   3.841   2.769  12.154  1.9004  0.9526  1.0467
15763TIP3    H268781   3.870   2.630  12.102 -1.6758  0.3607  0.3225
15764TIP3   OH268782   5.918   2.208   1.625 -0.1026 -0.0343  0.7116
15764TIP3    H168783   5.885   2.135   1.678 -1.3195 -0.2650 -0.3140
15764TIP3    H268784   5.994   2.172   1.580 -0.1190 -0.3783  0.9537
15765TIP3   OH268785   0.111   1.731   0.694 -0.3962  0.2155 -0.0377
15765TIP3    H168786   0.056   1.676   0.750 -1.0957  0.3562 -0.5722
15765TIP3    H268787   0.190   1.679   0.679 -1.4695 -1.1122 -1.3832
15766TIP3   OH268788   4.380   1.616  15.424 -0.3571 -0.5857  0.5565
15766TIP3    H168789   4.464   1.663  15.426  1.0504 -2.9559  1.5742
15766TIP3    H268790   4.325   1.669  15.366  1.3298  1.8350  0.9875
15767TIP3   OH268791   5.795   1.662   1.261 -0.8625 -0.4923 -0.0525
15767TIP3    H168792   5.826   1.685   1.174 -0.1303 -2.4876 -0.3637
15767TIP3    H268793   5.869   1.619   1.303 -1.8254 -1.3633  0.8307
15768TIP3   OH268794   6.279   3.157  16.062 -0.3032  0.3682 -0.0020
15768TIP3    H168795   6.289   3.128  15.971 -1.4810 -2.8018  0.7418
15768TIP3    H268796   6.335   3.234  16.069  1.6281 -0.6123 -2.8151
15769TIP3   OH268797   6.163   3.799  11.027 -0.0067 -0.0671  0.1419
15769TIP3    H168798   6.137   3.820  11.116 -0.3778 -1.1790  0.3141
15769TIP3    H268799   6.148   3.879  10.977 -1.6962 -0.0263  0.6759
15770TIP3   OH268800   2.628   0.485   5.849  0.0539  0.2750 -0.4437
15770TIP3    H168801   2.547   0.435   5.841  1.1484 -1.5904 -0.5595
15770TIP3    H268802   2.685   0.430   5.903  1.6601  0.9577 -1.3687
15771TIP3   OH268803   6.151   5.631  14.682 -0.1978 -0.4854 -0.2383
15771TIP3    H168804   6.228   5.663  14.729 -1.1424  0.3986  0.7669
15771TIP3    H268805   6.120   5.558  14.735 -0.9832  0.2049  0.2841
15772TIP3   OH268806   5.188   2.794  15.394  0.2063 -0.2621 -0.3852
15772TIP3    H168807   5.231   2.848  15.460 -0.3873 -0.7832  0.4468
15772TIP3    H268808   5.249   2.793  15.320  1.6347 -0.9948  0.7571
15773TIP3   OH268809   3.808   5.332   0.182  0.5140  0.4611 -0.6944
15773TIP3    H168810   3.742   5.391   0.146 -0.6213 -1.3979 -1.8190
15773TIP3    H268811   3.884   5.344   0.126  0.8289  1.9229  0.0178
15774TIP3   OH268812   1.134   0.940  16.904 -0.2032 -0.0582 -0.5387
15774TIP3    H168813   1.059   0.983  16.944 -0.0508  1.0218 -1.3669
15774TIP3    H268814   1.205   0.952  16.967 -0.2341  0.6741 -0.6340
15775TIP3   OH268815   2.405   1.665   2.201  0.1121  0.3295  0.4804
15775TIP3    H168816   2.399   1.570   2.198  3.6242 -0.0083 -1.1340
15775TIP3    H268817   2.338   1.696   2.141 -0.9718 -1.0939  0.9063
15776TIP3   OH268818   1.860   6.011  16.222  0.1767  0.3181  0.4362
15776TIP3    H168819   1.854   6.103  16.197  1.9423  0.4934  0.4969
15776TIP3    H268820   1.913   5.971  16.153  1.6001 -0.0725  1.6929
15777TIP3   OH268821   4.713   0.904   1.273 -0.3859  0.8215  0.5927
15777TIP3    H168822   4.711   0.894   1.368 -1.3650  2.1022  0.7364
15777TIP3    H268823   4.743   0.819   1.240 -1.5736 -0.1795  1.9622
15778TIP3   OH268824   5.517   1.021   1.737  0.2692  0.2735 -0.1002
15778TIP3    H168825   5.589   1.079   1.714 -0.9430  2.7404  1.8721
15778TIP3    H268826   5.441   1.059   1.695 -0.4470 -0.2575  0.6763
15779TIP3   OH268827   0.962   5.945   3.502 -0.1180  0.1123 -0.2991
15779TIP3    H168828   0.882   5.893   3.492 -0.2498  0.4026 -0.7757
15779TIP3    H268829   1.009   5.933   3.420  0.4526 -0.2547  0.0756
15780TIP3   OH268830   1.060   1.479   2.858  0.0822  0.1540  0.0365
15780TIP3    H168831   1.001   1.416   2.817  0.3623 -0.5034  0.6081
15780TIP3    H268832   1.146   1.437   2.855  0.5839  1.2086 -1.0153
15781TIP3   OH268833   6.781   1.158   4.379  0.1532 -0.5568 -0.2661
15781TIP3    H168834   6.747   1.081   4.426  0.7701 -1.1023 -0.6917
15781TIP3    H268835   6.785   1.130   4.288 -0.0726  0.1529 -0.5000
15782TIP3   OH268836   2.406   3.999   1.289 -0.1323 -0.4696 -0.1421
15782TIP3    H168837   2.428   3.985   1.381  1.5715 -0.7534 -0.5493
15782TIP3    H268838   2.429   3.917   1.246 -1.1337 -0.4245 -0.8040
15783TIP3   OH268839   6.549   6.369   4.973 -0.4863 -0.9089 -0.0918
15783TIP3    H168840   6.482   6.353   4.906  0.4445  0.3751 -1.3847
15783TIP3    H268841   6.619   6.307   4.952 -0.6246 -1.2115  0.3314
15784TIP3   OH268842   2.844   0.677  15.355 -0.0731  0.7848  0.2829
15784TIP3    H168843   2.924   0.718  15.387 -0.7609  0.9225  1.9478
15784TIP3    H268844   2.796   0.747  15.312  0.1444  0.9975  0.3831
15785TIP3   OH268845   4.908   2.366  13.293 -0.4560 -0.4843 -0.2705
15785TIP3    H168846   4.905   2.280  13.252 -0.8663 -0.3414 -0.5484
15785TIP3    H268847   4.986   2.364  13.348 -1.4743 -1.7004  1.2061
15786TIP3   OH268848   2.883   5.289  12.496  0.0733 -0.2080 -0.0060
15786TIP3    H168849   2.927   5.248  12.422  0.4636  0.5513 -0.1990
15786TIP3    H268850   2.915   5.379  12.497 -0.2096 -0.1056  0.8605
15787TIP3   OH268851   2.486   5.786  11.847 -0.2357  0.4276 -0.5272
15787TIP3    H168852   2.577   5.760  11.830 -0.3835  0.1634 -0.9219
15787TIP3    H268853   2.465   5.743  11.930 -0.2905 -0.2590 -0.8883
15788TIP3   OH268854   4.987   0.980  14.355 -0.6966  0.7319 -0.4880
15788TIP3    H168855   4.930   0.996  14.430  0.6138 -0.8003  0.9040
15788TIP3    H268856   4.989   0.884  14.346  0.1317  0.8389 -1.6949
15789TIP3   OH268857   2.023   1.431   5.981  0.0431 -0.5611  0.2917
15789TIP3    H168858   2.079   1.365   5.941  1.6705 -0.0600  1.5964
15789TIP3    H268859   1.997   1.394   6.065 -0.7950 -0.3840  0.1226
15790TIP3   OH268860   3.972   5.922   1.945  0.0608  0.4755  0.1096
15790TIP3    H168861   4.008   5.974   1.874 -0.7720  1.8871  0.6868
15790TIP3    H268862   4.049   5.891   1.993  0.6934 -1.4404 -1.9649
15791TIP3   OH268863   2.774   4.340   0.504  0.4684 -0.0999 -0.0424
15791TIP3    H168864   2.754   4.257   0.460 -2.2593  1.8754 -2.8982
15791TIP3    H268865   2.735   4.330   0.591 -1.5306 -1.2191 -0.9822
15792TIP3   OH268866   5.212   4.422  15.998 -0.1601 -0.0877  0.1804
15792TIP3    H168867   5.167   4.405  16.081 -1.3528 -0.6838 -0.5648
15792TIP3    H268868   5.290   4.471  16.023 -1.0006  0.6099  1.5665
15793TIP3   OH268869   1.845   5.192  11.462 -0.4170  0.4427 -0.1613
15793TIP3    H168870   1.812   5.177  11.373  1.4184 -0.3160 -0.7837
15793TIP3    H268871   1.787   5.258  11.499 -2.4806 -0.7155 -1.1728
15794TIP3   OH268872   5.519   1.771  11.620  0.1008 -0.0900 -0.6915
15794TIP3    H168873   5.457   1.843  11.616 -1.7803 -1.6773 -1.9999
15794TIP3    H268874   5.470   1.698  11.659  1.0988 -1.3951 -1.7441
15795TIP3   OH268875   4.409   1.942   3.765 -0.1697  0.4841  0.1708
15795TIP3    H168876   4.442   1.975   3.681  0.2981 -0.2079  0.0731
15795TIP3    H268877   4.487   1.933   3.819 -0.2269 -0.7910  0.0739
15796TIP3   OH268878   1.440   0.246  14.180 -0.7835 -0.3156  0.7694
15796TIP3    H168879   1.368   0.298  14.144 -2.3712 -1.2120  2.4961
15796TIP3    H268880   1.438   0.264  14.274  0.6749 -1.0910  0.9736
15797TIP3   OH268881   0.156   1.204  11.259 -0.5436  0.0024 -0.1773
15797TIP3    H168882   0.164   1.160  11.174 -1.1906 -0.3356 -0.0681
15797TIP3    H268883   0.170   1.135  11.324 -0.7650  0.1083 -0.0117
15798TIP3   OH268884   5.108   5.315   2.363  0.5602 -0.2518  0.0380
15798TIP3    H168885   5.077   5.258   2.433 -0.3485 -0.1489 -0.2750
15798TIP3    H268886   5.203   5.299   2.361  0.3176 -1.9139 -0.1687
15799TIP3   OH268887   0.950   1.922  15.480  0.3359  0.0487  0.0316
15799TIP3    H168888   1.025   1.863  15.481 -1.2998 -2.5228 -3.5471
15799TIP3    H268889   0.876   1.867  15.504 -0.7049  2.0281  1.6222
15800TIP3   OH268890   0.356   5.340   2.018 -0.2707 -0.2288 -0.2787
15800TIP3    H168891   0.268   5.340   1.982 -0.2686 -1.8958 -0.3251
15800TIP3    H268892   0.344   5.340   2.113 -0.3519 -1.4376 -0.2763
15801TIP3   OH268893   1.600   3.072   3.460 -0.3694  0.5512  0.1582
15801TIP3    H168894   1.659   2.997   3.448 -3.2165 -1.9545  0.3253
15801TIP3    H268895   1.635   3.119   3.535  1.4375 -0.7504  0.1970
15802TIP3   OH268896   2.023   1.103   2.881  0.1029  0.1222 -0.1411
15802TIP3    H168897   1.991   1.193   2.872  0.8684  0.2600 -1.7709
15802TIP3    H268898   1.948   1.048   2.854  0.4155  0.3723 -1.6064
15803TIP3   OH268899   6.315   4.845   0.155  0.0579  0.2431 -0.4252
15803TIP3    H168900   6.324   4.859   0.061 -0.5035  1.7783 -0.2763
15803TIP3    H268901   6.389   4.789   0.178 -0.2488 -0.8450 -1.8912
15804TIP3   OH268902   5.949   4.139   0.045  0.5360 -0.2678 -0.3057
15804TIP3    H168903   6.035   4.102   0.022  0.1839 -0.1407 -1.9322
15804TIP3    H268904   5.888   4.067   0.031  0.3767 -0.3988  0.9902
15805TIP3   OH268905   4.725   5.790   5.484  0.8239  0.6210  0.1696
15805TIP3    H168906   4.695   5.862   5.541 -0.6235  0.3889 -0.2564
15805TIP3    H268907   4.711   5.711   5.536  2.0584  0.5917  0.4922
15806TIP3   OH268908   0.113   3.649  14.704  0.3778 -0.0836  0.3199
15806TIP3    H168909   0.194   3.696  14.725  0.9897 -0.5049 -0.9672
15806TIP3    H268910   0.045   3.694  14.753  1.1433  1.3089  0.1407
15807TIP3   OH268911   0.352   2.140   0.164 -0.8301  0.0102  0.1087
15807TIP3    H168912   0.353   2.218   0.220 -0.1721 -0.3260  0.5717
15807TIP3    H268913   0.431   2.149   0.110 -1.1012 -0.0120 -0.2948
15808TIP3   OH268914   1.544   2.450  10.476  0.3008 -0.1731  0.0301
15808TIP3    H168915   1.607   2.476  10.409  2.6308 -0.7267  1.8646
15808TIP3    H268916   1.473   2.514  10.469  0.9791  0.4277 -2.1920
15809TIP3   OH268917   1.574   2.071   5.987  0.4110 -0.5642  0.0198
15809TIP3    H168918   1.623   2.139   6.034  0.9633 -0.4686 -0.6741
15809TIP3    H268919   1.495   2.058   6.039  0.4292  0.4151  0.3143
15810TIP3   OH268920   1.527   6.194  12.323  0.5155 -0.3636 -0.0645
15810TIP3    H168921   1.600   6.175  12.264  1.1994 -0.8578  0.9093
15810TIP3    H268922   1.511   6.287  12.311  1.3517 -0.2311 -0.2503
15811TIP3   OH268923   1.221   2.124   4.561  0.0377 -0.1907 -0.0362
15811TIP3    H168924   1.256   2.041   4.594 -1.0395 -1.5833 -2.1135
15811TIP3    H268925   1.282   2.150   4.492  0.1366  0.5468  0.3201
15812TIP3   OH268926   0.312   0.590  17.006  0.4266 -0.1928  0.1128
15812TIP3    H168927   0.359   0.595  17.089  1.3353 -1.0295 -0.3198
15812TIP3    H268928   0.334   0.671  16.960  0.9339 -0.2849  0.1892
15813TIP3   OH268929   4.935   2.534   5.355  0.2683  0.3954  0.7012
15813TIP3    H168930   5.011   2.505   5.305 -0.6452 -2.1737  0.6306
15813TIP3    H268931   4.955   2.624   5.379  2.6613  0.2877 -0.5575
15814TIP3   OH268932   2.379   1.800  16.008 -0.4471 -0.9024  0.2627
15814TIP3    H168933   2.406   1.762  16.092 -1.3203  0.3477  1.1425
15814TIP3    H268934   2.287   1.823  16.020 -0.2399  0.4866 -0.5719
15815TIP3   OH268935   5.159   2.542   2.756  0.5937  0.0839 -0.0144
15815TIP3    H168936   5.129   2.539   2.847  1.7251  1.9573  0.4636
15815TIP3    H268937   5.253   2.525   2.762  0.6829  0.2689 -0.8448
15816TIP3   OH268938   0.084   5.686   6.230 -0.2634  0.3446  0.4579
15816TIP3    H168939   0.090   5.592   6.214  0.3921  0.3239  0.7896
15816TIP3    H268940   0.031   5.719   6.157 -1.8164 -0.4816  1.1792
15817TIP3   OH268941   5.450   3.502  16.827  0.6637 -0.0802  0.1135
15817TIP3    H168942   5.462   3.407  16.827  0.2117 -0.1825  2.0518
15817TIP3    H268943   5.530   3.536  16.867  0.0276  0.1884  1.1941
15818TIP3   OH268944   4.721   1.589  16.015  0.1118 -0.1450  0.2845
15818TIP3    H168945   4.783   1.656  15.985  0.0559  0.6298  1.8119
15818TIP3    H268946   4.774   1.509  16.021  0.5519  0.1132 -0.0657
15819TIP3   OH268947   2.402   4.440  12.251  0.2305  0.2309  0.2131
15819TIP3    H168948   2.495   4.460  12.250  0.1353  0.7887  1.4716
15819TIP3    H268949   2.360   4.522  12.276 -0.6208  0.0429 -0.5460
15820TIP3   OH268950   0.912   6.620  12.150 -0.1478 -1.0393 -0.3560
15820TIP3    H168951   0.864   6.577  12.221 -0.4150  0.5282  0.4536
15820TIP3    H268952   0.934   6.707  12.185  2.0752 -1.1960 -1.2240
15821TIP3   OH268953   2.982   1.784  16.833  0.3912  0.4472 -0.7425
15821TIP3    H168954   2.979   1.858  16.894 -0.4719  1.7756 -2.3020
15821TIP3    H268955   2.928   1.812  16.759  0.6116 -1.4884 -1.7028
15822TIP3   OH268956   0.391   2.459  11.957 -0.4410 -0.0871 -0.1471
15822TIP3    H168957   0.296   2.471  11.962 -0.3598  0.5847 -0.1124
15822TIP3    H268958   0.423   2.490  12.042 -0.3813 -2.4563  0.7753
15823TIP3   OH268959   0.204   6.160  16.808  0.1138  0.4485  0.0012
15823TIP3    H168960   0.176   6.074  16.837 -0.7965  0.6478 -0.2599
15823TIP3    H268961   0.177   6.220  16.877 -3.7782  1.1963 -1.9092
15824TIP3   OH268962   6.038   6.361  11.877 -0.2134  0.5208 -0.5834
15824TIP3    H168963   5.966   6.311  11.915 -0.3593  1.1272 -0.0558
15824TIP3    H268964   6.034   6.446  11.919  1.3459  0.2921  0.0961
15825TIP3   OH268965   3.089   0.731   3.170  0.1637  0.3480  0.3776
15825TIP3    H168966   2.993   0.730   3.174  0.1005 -0.7702 -0.8994
15825TIP3    H268967   3.111   0.824   3.172 -0.9951  0.6534 -0.0752
15826TIP3   OH268968   1.367   3.025   5.923  0.0297 -0.4624  0.4509
15826TIP3    H168969   1.459   3.043   5.904 -0.2117 -0.5619 -0.8705
15826TIP3    H268970   1.367   2.998   6.015  1.2614 -0.0673  0.5830
15827TIP3   OH268971   1.818   3.596   3.780  0.2600 -0.0079  0.0613
15827TIP3    H168972   1.821   3.519   3.723  1.5445 -0.1965  0.3527
15827TIP3    H268973   1.902   3.639   3.766  0.4929  0.0776  1.6312
15828TIP3   OH268974   5.085   1.388  16.530  0.1863 -0.1250 -0.0092
15828TIP3    H168975   5.149   1.455  16.554  0.8350 -0.8239  0.2335
15828TIP3    H268976   5.021   1.391  16.602  0.7613 -0.4604  0.5271
15829TIP3   OH268977   5.134   0.836   1.321 -0.5544 -0.2746  0.0027
15829TIP3    H168978   5.132   0.835   1.226  2.0126 -2.7226 -0.1676
15829TIP3    H268979   5.146   0.929   1.344 -0.1084  0.2465 -2.1263
15830TIP3   OH268980   2.235   6.463   3.361 -0.0676 -0.0187  0.0372
15830TIP3    H168981   2.157   6.518   3.355 -1.1571 -1.6378 -1.9370
15830TIP3    H268982   2.232   6.428   3.450 -1.5133  0.0949  0.0624
15831TIP3   OH268983   5.679   0.275   4.419 -0.1329 -0.4717  0.3835
15831TIP3    H168984   5.678   0.212   4.491 -3.1414 -0.3989  0.5022
15831TIP3    H268985   5.669   0.360   4.462 -1.1813 -0.3656 -0.0527
15832TIP3   OH268986   3.057   1.256  17.025  0.7663  0.1761  0.0841
15832TIP3    H168987   3.076   1.170  16.988 -2.2179 -0.4506 -0.2901
15832TIP3    H268988   2.973   1.244  17.070 -0.5971  3.1864 -1.3566
15833TIP3   OH268989   2.446   3.732   0.248 -0.0287 -0.0126  0.2464
15833TIP3    H168990   2.390   3.739   0.171  0.2555  2.3397  0.1751
15833TIP3    H268991   2.392   3.763   0.321  1.0273  2.2610  0.1815
15834TIP3   OH268992   0.052   1.346  13.468  0.1699 -0.3397  0.0077
15834TIP3    H168993  -0.004   1.402  13.414 -0.1501 -0.7855 -0.1330
15834TIP3    H268994   0.033   1.257  13.436 -1.8784 -0.9039  2.4754
15835TIP3   OH268995   4.293   2.584  16.651  0.5666  1.1313 -0.0686
15835TIP3    H168996   4.209   2.571  16.606  1.1329 -0.9499 -0.6493
15835TIP3    H268997   4.345   2.635  16.590 -0.2500  2.4427  0.2981
15836TIP3   OH268998   3.423   4.999  11.458  0.5358 -0.0128  0.3796
15836TIP3    H168999   3.478   4.922  11.477  1.2462  0.7133  1.3523
15836TIP3    H269000   3.371   4.973  11.382  0.7047 -1.4829  0.7442
15837TIP3   OH269001   1.223   3.148   5.478 -0.1904 -0.3391 -0.0031
15837TIP3    H169002   1.180   3.223   5.436 -0.4312 -0.0670  0.7144
15837TIP3    H269003   1.218   3.167   5.571  2.7273  0.3775  0.1004
15838TIP3   OH269004   3.726   1.129  16.218  0.3341 -0.0222 -0.1959
15838TIP3    H169005   3.631   1.123  16.213  0.2847  0.1563  0.4766
15838TIP3    H269006   3.749   1.083  16.298  0.4229  3.5075  2.0353
15839TIP3   OH269007   0.075   4.251   3.346  0.1322  0.0899  0.0584
15839TIP3    H169008   0.120   4.172   3.378 -0.7898 -0.4133  0.1612
15839TIP3    H269009   0.016   4.275   3.418  1.8289  2.0671  0.8630
15840TIP3   OH269010   1.166   1.375   6.187  0.2820 -0.1461 -0.1972
15840TIP3    H169011   1.215   1.454   6.165  0.9655  0.2635  2.4488
15840TIP3    H269012   1.075   1.404   6.194  0.5771  0.5813  1.1516
15841TIP3   OH269013   4.210   0.009  11.708  0.2602  0.1330 -0.2753
15841TIP3    H169014   4.251  -0.026  11.787 -0.2583 -0.5173 -0.2905
15841TIP3    H269015   4.282   0.047  11.658  0.3904  2.1354  1.3104
15842TIP3   OH269016   6.092   6.720   2.458 -0.2282 -0.1056 -0.2313
15842TIP3    H169017   6.136   6.735   2.374 -2.0954  0.5365 -1.1440
15842TIP3    H269018   6.000   6.711   2.436 -0.9044  0.9960  1.8553
15843TIP3   OH269019   5.487   6.533   2.276  0.0230 -0.7187 -0.2061
15843TIP3    H169020   5.438   6.613   2.294  0.8874  0.0336 -1.0517
15843TIP3    H269021   5.574   6.564   2.250  0.1079 -1.8735 -1.4257
15844TIP3   OH269022   4.592   5.918  14.181  0.1734 -0.9775  0.2282
15844TIP3    H169023   4.601   5.970  14.101  1.8522  0.6039  1.3708
15844TIP3    H269024   4.659   5.849  14.171 -0.2413 -1.3357 -0.1160
15845TIP3   OH269025   6.219   0.377   3.170  0.4640 -0.0088  0.5853
15845TIP3    H169026   6.244   0.432   3.096  1.1603 -1.2241 -0.0986
15845TIP3    H269027   6.226   0.435   3.246  2.8978  0.3939  0.1105
15846TIP3   OH269028   1.141   0.973  10.828  0.3525 -0.3583  0.7262
15846TIP3    H169029   1.184   1.059  10.826 -1.0367  0.4416  2.4679
15846TIP3    H269030   1.179   0.926  10.754  1.2475  1.7021 -0.2168
15847TIP3   OH269031   4.701   0.582   3.478  0.2607 -0.6895 -0.0622
15847TIP3    H169032   4.787   0.587   3.437  0.8747 -0.4750  1.2113
15847TIP3    H269033   4.677   0.673   3.495 -0.1788 -0.7533 -0.3033
15848TIP3   OH269034   6.410   5.803  16.986 -0.4245  0.0562 -0.1527
15848TIP3    H169035   6.323   5.841  16.980 -0.8589 -0.8735  0.1583
15848TIP3    H269036   6.405   5.721  16.937 -0.1314 -0.7027  1.0420
15849TIP3   OH269037   0.277   2.258  11.651  0.5800  0.5015 -0.5300
15849TIP3    H169038   0.188   2.282  11.625  0.3638  0.0778 -0.1991
15849TIP3    H269039   0.300   2.187  11.591 -0.1419 -0.8841  0.7476
15850TIP3   OH269040   2.964   5.741   1.587 -0.6269 -0.3357  0.1420
15850TIP3    H169041   3.034   5.678   1.575  0.3600  0.5571  0.9814
15850TIP3    H269042   2.974   5.803   1.515 -0.5195 -0.1964  0.2738
15851TIP3   OH269043   4.418   0.478   5.683 -0.2240  0.3583 -0.0509
15851TIP3    H169044   4.357   0.488   5.610 -1.1805  0.0780  0.6847
15851TIP3    H269045   4.495   0.437   5.644  1.1801  4.2454 -1.8008
15852TIP3   OH269046   0.357   0.044  14.777 -0.7141 -0.2559  0.0629
15852TIP3    H169047   0.319   0.101  14.711 -1.0285 -0.9504 -0.3604
15852TIP3    H269048   0.331  -0.044  14.752  0.0595 -0.6292  0.5106
15853TIP3   OH269049   2.200   1.584  16.521 -0.1838  0.2176  0.6221
15853TIP3    H169050   2.195   1.632  16.604  0.3318 -0.9400  1.3474
15853TIP3    H269051   2.182   1.493  16.544 -1.0717  0.0174 -0.7196
15854TIP3   OH269052   3.878   5.988   1.299  0.3175  0.3053  0.5274
15854TIP3    H169053   3.792   5.946   1.293  0.5810 -0.6752  2.6232
15854TIP3    H269054   3.872   6.065   1.243 -1.5018 -0.4241 -0.3429
15855TIP3   OH269055   0.986   4.004   2.977 -0.6314  0.1155 -0.1382
15855TIP3    H169056   0.902   4.001   2.931 -0.8721  0.0854  0.2989
15855TIP3    H269057   0.982   3.932   3.040  0.1966 -0.6427 -0.9163
15856TIP3   OH269058   5.032   0.217  17.165  0.3117 -0.3897 -0.1574
15856TIP3    H169059   5.001   0.145  17.220 -0.1563  0.0084  0.1134
15856TIP3    H269060   4.975   0.290  17.188  1.6291  0.4537  0.5724
15857TIP3   OH269061   2.776   2.274   3.590 -0.3843  0.5053  0.0583
15857TIP3    H169062   2.794   2.322   3.509  0.0779 -1.5139 -1.1039
15857TIP3    H269063   2.681   2.278   3.599 -0.4068  1.1195 -0.3306
15858TIP3   OH269064   6.603   3.977  11.815 -0.6135  0.1724 -0.0034
15858TIP3    H169065   6.638   4.050  11.764 -1.6224 -0.5477 -1.8283
15858TIP3    H269066   6.556   3.923  11.751 -1.5449 -1.0524  1.6233
15859TIP3   OH269067   1.681   1.050   1.763 -0.1341  0.1243 -0.2711
15859TIP3    H169068   1.671   1.086   1.675 -1.8340  0.1149 -0.1233
15859TIP3    H269069   1.667   1.125   1.821 -0.0533 -0.0663 -0.0034
15860TIP3   OH269070   5.842   5.524   0.886  0.0174 -0.0554  0.2864
15860TIP3    H169071   5.884   5.606   0.912  1.7530 -1.2741  1.5440
15860TIP3    H269072   5.833   5.530   0.791  1.1098  1.1452  0.2315
15861TIP3   OH269073   5.193   0.449  11.671  0.3741 -0.1981 -0.5821
15861TIP3    H169074   5.174   0.356  11.685  1.0123 -0.3408 -0.6393
15861TIP3    H269075   5.172   0.463  11.578 -1.8409  0.2548 -0.0745
15862TIP3   OH269076   1.206   5.724  14.218 -0.0055 -0.2936 -0.3393
15862TIP3    H169077   1.139   5.681  14.272  0.4929  0.0315  0.5587
15862TIP3    H269078   1.272   5.657  14.203 -0.1196 -0.3698 -0.4970
15863TIP3   OH269079   2.591   5.853   3.319  0.3364 -0.0286 -0.3788
15863TIP3    H169080   2.568   5.919   3.253  1.2599 -1.2326 -1.9608
15863TIP3    H269081   2.675   5.818   3.290  1.2300 -0.0141  1.9389
15864TIP3   OH269082   1.177   6.751  15.536 -0.3407  0.0804  0.0216
15864TIP3    H169083   1.254   6.783  15.489 -1.5211  2.1222 -0.6562
15864TIP3    H269084   1.189   6.781  15.626  1.2428 -2.6226  0.8341
15865TIP3   OH269085   3.750   0.932   0.063  0.4728 -0.1085 -0.5400
15865TIP3    H169086   3.776   0.989   0.136  0.5713 -2.9464  1.8131
15865TIP3    H269087   3.655   0.943   0.057  0.7066  1.6919 -1.4339
15866TIP3   OH269088   5.449   0.134   2.822 -0.6659  0.0441 -0.6225
15866TIP3    H169089   5.493   0.051   2.840  2.7272  1.5084 -1.3227
15866TIP3    H269090   5.457   0.184   2.903 -0.3008  0.5999 -0.9870
15867TIP3   OH269091   3.126   6.342  11.992  0.2408 -0.3715 -0.2550
15867TIP3    H169092   3.191   6.279  12.024 -0.9872 -1.5235  0.0546
15867TIP3    H269093   3.175   6.400  11.934  1.3982 -1.6378 -0.5836
15868TIP3   OH269094   6.623   5.149   1.920  0.0156 -0.2811 -0.4366
15868TIP3    H169095   6.599   5.202   1.997 -1.3818 -0.1845 -0.9121
15868TIP3    H269096   6.572   5.068   1.930  2.9529 -2.1347  0.8672
15869TIP3   OH269097   3.984   1.596  14.495 -0.1631  0.5323 -0.8251
15869TIP3    H169098   3.943   1.682  14.503  1.5717  1.3284 -0.2145
15869TIP3    H269099   4.031   1.599  14.412  1.6522  0.9683  0.1856
15870TIP3   OH269100   2.084   2.878   3.656  0.2562 -0.0655 -0.4889
15870TIP3    H169101   2.044   2.926   3.583  2.4593  0.7944 -1.2403
15870TIP3    H269102   2.170   2.918   3.666  0.5586 -1.1214  1.6924
15871TIP3   OH269103   6.306   1.813  11.236 -0.1865 -0.4564 -0.4355
15871TIP3    H169104   6.233   1.757  11.262  0.9553 -1.9290 -0.2854
15871TIP3    H269105   6.381   1.753  11.228  1.0207  1.0131 -0.5311
15872TIP3   OH269106   3.295   6.042   6.082  0.3420 -0.1573 -0.7484
15872TIP3    H169107   3.390   6.051   6.094  0.1561  0.3078  0.6440
15872TIP3    H269108   3.258   6.096   6.153 -0.9504 -2.6803  0.6211
15873TIP3   OH269109   0.526   3.294   1.783 -0.6459  0.6603 -0.0922
15873TIP3    H169110   0.478   3.290   1.700 -1.7345 -1.1532  0.5597
15873TIP3    H269111   0.604   3.242   1.769 -2.1229 -1.9494  0.7206
15874TIP3   OH269112   1.610   0.207   1.745  0.0834  0.1564 -0.3303
15874TIP3    H169113   1.698   0.171   1.759  0.2946  0.5652 -0.5921
15874TIP3    H269114   1.555   0.160   1.808  1.3236  3.4992  3.7379
15875TIP3   OH269115   4.116   5.763   3.530 -0.3116 -0.3479  0.0588
15875TIP3    H169116   4.106   5.852   3.563 -0.4482  0.6743 -2.5440
15875TIP3    H269117   4.189   5.726   3.580 -0.8721  0.8509  1.8364
15876TIP3   OH269118   1.870   6.304  13.761 -0.8081 -0.0799  0.0343
15876TIP3    H169119   1.892   6.334  13.672 -1.3460 -0.5401 -0.2592
15876TIP3    H269120   1.898   6.212  13.762 -2.1418 -0.5020 -0.1469
15877TIP3   OH269121   1.830   0.064   1.126  0.0328  0.6365 -0.1010
15877TIP3    H169122   1.917   0.068   1.164  0.7106  0.2655 -1.5437
15877TIP3    H269123   1.843   0.081   1.033 -1.1598 -1.3603 -0.7037
15878TIP3   OH269124   2.505   4.889  13.707  0.6910  0.2702 -0.0239
15878TIP3    H169125   2.503   4.832  13.784  0.9138  0.6059  0.2330
15878TIP3    H269126   2.563   4.844  13.646 -0.8129 -0.8603 -0.6872
15879TIP3   OH269127   6.543   0.410  11.252  0.0719  0.0052  0.2885
15879TIP3    H169128   6.493   0.473  11.200 -2.5315 -0.8951  1.5336
15879TIP3    H269129   6.520   0.431  11.342 -0.7860 -2.5619  0.7486
15880TIP3   OH269130   0.825   4.910  12.426 -0.7045 -0.0772 -0.5726
15880TIP3    H169131   0.823   4.845  12.356  0.9844 -0.8670  0.0611
15880TIP3    H269132   0.774   4.871  12.497  1.8991 -1.6793  0.5359
15881TIP3   OH269133   5.232   5.793   6.334 -0.1184 -0.5793  0.2060
15881TIP3    H169134   5.138   5.809   6.324 -0.3890 -1.3141  1.4137
15881TIP3    H269135   5.238   5.713   6.385  1.1963 -2.0600 -2.0849
15882TIP3   OH269136   3.330   5.223   4.485 -0.0487  0.2787 -0.3125
15882TIP3    H169137   3.366   5.309   4.504 -0.1136  0.6266 -1.6801
15882TIP3    H269138   3.397   5.179   4.434 -1.3176  0.7706 -2.5108
15883TIP3   OH269139   1.330   0.997   6.511 -0.0942  0.0382  0.2285
15883TIP3    H169140   1.273   1.073   6.496 -1.6369 -1.2460 -0.7223
15883TIP3    H269141   1.383   1.022   6.587 -0.2898  2.1970 -0.2735
15884TIP3   OH269142   5.836   3.035   2.007 -0.0852 -0.2151  0.4319
15884TIP3    H169143   5.817   3.093   2.080 -1.2728  0.8177 -0.6275
15884TIP3    H269144   5.872   3.092   1.939 -1.5380 -0.6046 -0.7359
15885TIP3   OH269145   4.581   3.184   2.820 -0.1945 -0.2735 -0.3278
15885TIP3    H169146   4.653   3.247   2.828  0.6319 -1.1701 -0.5253
15885TIP3    H269147   4.587   3.130   2.898 -0.9636 -0.0714 -0.1127
15886TIP3   OH269148   0.199   1.072   4.694  0.1622 -0.5948  0.3662
15886TIP3    H169149   0.291   1.045   4.688  1.1672  2.2719  1.2274
15886TIP3    H269150   0.193   1.151   4.641 -1.8286 -0.6757  0.3916
15887TIP3   OH269151   1.598   5.980   1.804  0.1399  0.0402  0.0375
15887TIP3    H169152   1.588   6.075   1.796 -0.1883  0.0320  0.3600
15887TIP3    H269153   1.645   5.967   1.886 -1.1367 -0.1394  0.7780
15888TIP3   OH269154   2.367   1.998  13.980 -0.2328  0.0905  0.6400
15888TIP3    H169155   2.370   1.902  13.987  2.7207  0.1643  1.5101
15888TIP3    H269156   2.313   2.014  13.903  0.7700 -2.3675 -0.7030
15889TIP3   OH269157   3.865   3.455  15.771  0.3353 -0.2121 -0.0021
15889TIP3    H169158   3.953   3.417  15.767  0.6470  0.5998 -1.6663
15889TIP3    H269159   3.838   3.461  15.680 -0.9545  0.7026  0.4221
15890TIP3   OH269160   2.205   3.097  15.700  0.0210  0.3264 -0.1918
15890TIP3    H169161   2.238   3.140  15.622  1.8947 -1.2415 -0.3276
15890TIP3    H269162   2.124   3.054  15.671 -0.0274  0.8919 -0.9116
15891TIP3   OH269163   4.041   4.992   0.640  0.2307  0.2141  0.0308
15891TIP3    H169164   4.026   4.910   0.686 -1.5990 -0.0785 -0.9993
15891TIP3    H269165   3.957   5.037   0.640  1.1597  2.0568  0.4462
15892TIP3   OH269166   4.796   0.830   4.921  0.0066 -0.3322  0.4043
15892TIP3    H169167   4.742   0.896   4.965  0.4533 -0.6372  1.4525
15892TIP3    H269168   4.869   0.815   4.981  1.4268  0.2683 -1.0947
15893TIP3   OH269169   3.007   0.592  13.528  0.3376  0.1449  0.0618
15893TIP3    H169170   2.950   0.664  13.503 -2.2487 -1.6537  0.4360
15893TIP3    H269171   3.019   0.541  13.448 -1.3801 -1.2677  0.6429
15894TIP3   OH269172   5.513   6.464   1.753  0.2602  0.0442  0.0946
15894TIP3    H169173   5.484   6.386   1.800  1.9231 -0.5152  0.2430
15894TIP3    H269174   5.596   6.487   1.793  0.3770  1.1847 -0.7625
15895TIP3   OH269175   3.682   5.027  15.132 -0.8170  0.0521 -0.0544
15895TIP3    H169176   3.616   4.997  15.070 -0.4244  0.7801 -0.8455
15895TIP3    H269177   3.749   4.958  15.132 -0.4403  0.4039 -1.0471
15896TIP3   OH269178   0.030   1.743   3.545  0.0286 -0.2469  0.2045
15896TIP3    H169179   0.017   1.822   3.598  0.6610  2.7525 -3.7011
15896TIP3    H269180   0.125   1.738   3.532 -0.2028  0.0353 -1.8315
15897TIP3   OH269181   6.613   2.591   4.958  0.5463 -0.3582  0.2069
15897TIP3    H169182   6.552   2.570   4.888  0.8918 -0.2608 -0.1232
15897TIP3    H269183   6.582   2.674   4.993  0.2535 -0.5068  0.3100
15898TIP3   OH269184   2.262   5.364   4.558  0.4697  0.1468  0.5925
15898TIP3    H169185   2.205   5.425   4.511  1.2645  0.2454 -0.2834
15898TIP3    H269186   2.289   5.411   4.637 -1.0158 -0.0809  1.2670
15899TIP3   OH269187   0.069   3.758   6.022  0.4043 -0.3205 -0.2820
15899TIP3    H169188   0.001   3.806   6.070  0.4659  0.5444 -1.0366
15899TIP3    H269189   0.142   3.753   6.084 -0.1722 -0.8595  0.3744
15900TIP3   OH269190   1.390   0.214   0.238  0.5553 -0.4230  0.1786
15900TIP3    H169191   1.336   0.272   0.292  1.1512  0.5822 -0.2746
15900TIP3    H269192   1.338   0.198   0.160  0.5013 -0.2720  0.1834
15901TIP3   OH269193   0.338   1.821   3.047 -0.2755 -0.2837 -0.3283
15901TIP3    H169194   0.406   1.753   3.039 -0.9002 -0.7494 -2.1013
15901TIP3    H269195   0.311   1.816   3.139  3.2902  1.1547  0.9707
15902TIP3   OH269196   3.220   6.180   5.219 -0.1012  0.2500 -0.3866
15902TIP3    H169197   3.260   6.254   5.172 -1.7843  0.3188 -1.8165
15902TIP3    H269198   3.190   6.121   5.149 -1.6469 -0.2273  0.6309
15903TIP3   OH269199   1.604   2.415   0.058  0.1303 -0.3097 -0.0920
15903TIP3    H169200   1.654   2.496   0.051 -0.2152  0.0847  1.4373
15903TIP3    H269201   1.599   2.381  -0.031  2.2738  0.1206 -0.4299
15904TIP3   OH269202   6.000   0.765  16.446 -0.2561  0.7015  0.0880
15904TIP3    H169203   5.947   0.816  16.508 -3.2328  0.6140 -2.1763
15904TIP3    H269204   6.037   0.830  16.386 -1.8113  0.4618 -1.1750
15905TIP3   OH269205   1.757   1.605   0.203 -0.3894 -0.2167  0.5304
15905TIP3    H169206   1.678   1.646   0.166 -0.0848 -0.0895  0.0139
15905TIP3    H269207   1.823   1.674   0.200  0.4742 -1.0396 -1.4657
15906TIP3   OH269208   5.423   2.181  12.852 -0.1897  0.6198  0.9415
15906TIP3    H169209   5.374   2.147  12.928 -2.1589 -1.3246 -1.0507
15906TIP3    H269210   5.407   2.276  12.855 -2.2484  0.3147  1.6611
15907TIP3   OH269211   4.844   1.280  14.661 -0.1933 -0.1435 -0.0181
15907TIP3    H169212   4.878   1.353  14.609  0.7815 -0.0170  0.7719
15907TIP3    H269213   4.767   1.250  14.612 -1.4646  2.2685  0.3102
15908TIP3   OH269214   4.515   6.633   2.661 -0.2636 -0.0089 -0.5648
15908TIP3    H169215   4.593   6.581   2.642 -0.4307 -0.0663 -1.1149
15908TIP3    H269216   4.473   6.645   2.576 -0.0900  1.2555 -0.4985
15909TIP3   OH269217   3.423   5.155  11.009 -0.4417  0.3459  0.5298
15909TIP3    H169218   3.420   5.211  11.087  0.2987  1.6302 -0.3465
15909TIP3    H269219   3.346   5.098  11.019 -0.8158  1.0155  1.7941
15910TIP3   OH269220   0.924   1.463  13.015  0.3642  0.2310  0.2263
15910TIP3    H169221   0.856   1.423  13.070  0.2571  1.2869  0.9165
15910TIP3    H269222   0.955   1.393  12.959  0.9086 -1.0881  2.0634
15911TIP3   OH269223   1.415   5.817   4.411 -1.0332  0.5544 -1.0718
15911TIP3    H169224   1.406   5.722   4.404  0.8238  0.2584 -0.1826
15911TIP3    H269225   1.448   5.844   4.325  0.0447  0.1271 -0.8121
15912TIP3   OH269226   6.555   0.895  14.835 -0.0468 -0.3711 -0.4110
15912TIP3    H169227   6.565   0.957  14.907 -2.0225  0.7744 -1.0504
15912TIP3    H269228   6.571   0.947  14.756 -2.2548 -0.4568 -0.9908
15913TIP3   OH269229   0.776   1.754  11.602 -0.3694 -0.2718 -0.5665
15913TIP3    H169230   0.721   1.801  11.539 -1.5442 -0.6097  0.1756
15913TIP3    H269231   0.817   1.685  11.550  0.6909  1.0018 -1.4849
15914TIP3   OH269232   6.725   2.336   4.672 -0.0301  0.1600  0.0958
15914TIP3    H169233   6.718   2.285   4.591  1.6389 -0.6905  0.4379
15914TIP3    H269234   6.753   2.272   4.737  1.1878  1.3360  0.7591
15915TIP3   OH269235   5.212   3.845   2.437  0.0788 -0.2845 -0.0260
15915TIP3    H169236   5.238   3.935   2.417  1.2224 -0.3800  0.8945
15915TIP3    H269237   5.237   3.795   2.360  0.0079  0.0886 -0.2924
15916TIP3   OH269238   5.387   0.306  12.578  0.5942 -0.3560  0.1184
15916TIP3    H169239   5.291   0.301  12.575  0.5899 -0.0945 -0.1634
15916TIP3    H269240   5.413   0.229  12.629  0.3258 -1.3606 -1.2172
15917TIP3   OH269241   6.579   4.206   1.869  0.3369 -0.0891  0.2116
15917TIP3    H169242   6.511   4.179   1.808 -1.2634  0.5098  1.6312
15917TIP3    H269243   6.641   4.256   1.816  0.6983 -2.2038 -1.4662
15918TIP3   OH269244   5.933   2.050  13.121 -0.1422  0.0155 -0.4490
15918TIP3    H169245   5.859   2.001  13.084  0.7506 -1.6385 -0.1048
15918TIP3    H269246   5.999   1.984  13.141  0.5394  1.2011  1.4358
15919TIP3   OH269247   2.989   2.260   3.137  0.5152 -0.1762 -0.0634
15919TIP3    H169248   2.958   2.170   3.127 -1.8725  0.4146  1.1520
15919TIP3    H269249   3.029   2.261   3.224 -0.9487  0.2755  0.6275
15920TIP3   OH269250   0.118   4.222  14.392  0.1567 -0.4131  0.1720
15920TIP3    H169251   0.102   4.207  14.299 -0.5312  2.0685 -0.1813
15920TIP3    H269252   0.106   4.136  14.432 -0.6368 -1.3343 -1.8711
15921TIP3   OH269253   4.991   0.450  15.674 -0.5344  0.0046  0.4203
15921TIP3    H169254   5.017   0.360  15.691 -0.9367  0.0563  1.3630
15921TIP3    H269255   5.070   0.493  15.641 -0.4450 -0.7792 -0.4380
15922TIP3   OH269256   0.481   1.832   5.621 -0.0163 -0.4862  0.2404
15922TIP3    H169257   0.561   1.852   5.668 -0.0710  1.5793 -0.4501
15922TIP3    H269258   0.507   1.827   5.529 -0.5409 -0.6456  0.0929
15923TIP3   OH269259   1.866   6.445   5.089  0.2061  0.4373  0.2307
15923TIP3    H169260   1.918   6.499   5.029  0.1663 -0.1266 -0.3203
15923TIP3    H269261   1.898   6.355   5.074 -1.0464  0.0560 -0.2512
15924TIP3   OH269262   2.738   0.253   1.469 -0.1206 -0.2210  0.2394
15924TIP3    H169263   2.789   0.324   1.430  1.2749 -1.9325 -1.2375
15924TIP3    H269264   2.698   0.208   1.394 -1.0796 -0.9296  1.1435
15925TIP3   OH269265   0.594   5.893   6.446 -0.7398 -0.3606 -0.4900
15925TIP3    H169266   0.622   5.918   6.358 -0.0298  3.2170  0.5941
15925TIP3    H269267   0.675   5.893   6.498 -1.1329 -2.5025  0.2276
15926TIP3   OH269268   1.001   2.113   6.443  0.1024 -0.0746  0.2688
15926TIP3    H169269   1.029   2.165   6.518  2.2967 -0.7690  0.0138
15926TIP3    H269270   1.070   2.047   6.433 -0.5589 -0.5132 -1.8526
15927TIP3   OH269271   0.289   5.657  15.252  0.3288  0.4514 -0.7059
15927TIP3    H169272   0.313   5.566  15.241 -0.5095  0.4651 -3.3484
15927TIP3    H269273   0.201   5.664  15.214 -0.2269  2.0911  0.7128
15928TIP3   OH269274   0.138   3.781   3.326 -0.7796  0.1414 -0.0486
15928TIP3    H169275   0.150   3.780   3.231 -1.0944  1.6604 -0.1297
15928TIP3    H269276   0.057   3.830   3.340  0.8833  2.7938  1.0998
15929TIP3   OH269277   0.667   4.172   2.046  0.0397  0.2730 -0.1813
15929TIP3    H169278   0.574   4.157   2.030  0.0243 -1.3008  1.1018
15929TIP3    H269279   0.688   4.117   2.122  2.4641 -0.9902 -1.6319
15930TIP3   OH269280   5.998   5.025   6.677  0.0884 -0.1143 -0.3407
15930TIP3    H169281   6.036   4.941   6.704 -4.5936 -2.3524  0.1302
15930TIP3    H269282   5.960   5.008   6.591 -1.6817  1.2272  0.1197
15931TIP3   OH269283   4.419   0.246   5.329  0.4850 -0.2237  0.0929
15931TIP3    H169284   4.345   0.250   5.389  0.8827  1.4124  0.5372
15931TIP3    H269285   4.446   0.154   5.328  0.0396 -0.3948  1.8916
15932TIP3   OH269286   4.437   5.309  11.540 -0.2343 -0.4238 -0.2708
15932TIP3    H169287   4.452   5.403  11.532 -1.5447 -0.1052  0.6739
15932TIP3    H269288   4.420   5.280  11.450  1.0694  0.0487 -0.6954
15933TIP3   OH269289   6.512   0.039  13.086 -0.2106 -0.2248 -0.1429
15933TIP3    H169290   6.491   0.047  12.993  2.1464  0.6875 -0.6580
15933TIP3    H269291   6.516  -0.055  13.102 -2.2905 -0.4235 -0.5045
15934TIP3   OH269292   4.881   4.716  15.968 -0.0398  0.6131  0.3471
15934TIP3    H169293   4.878   4.706  16.063  0.8027  0.7050  0.3950
15934TIP3    H269294   4.882   4.626  15.934 -0.2851  0.5805  0.4219
15935TIP3   OH269295   4.419   2.859  13.471  0.0879 -0.5676  0.3249
15935TIP3    H169296   4.463   2.786  13.515  0.6756  0.0172  0.7291
15935TIP3    H269297   4.489   2.922  13.453 -0.2986 -0.4210 -0.6824
15936TIP3   OH269298   1.443   4.043  16.686  0.0215 -0.5556  0.3920
15936TIP3    H169299   1.409   4.017  16.772  0.1365 -0.0779  0.5896
15936TIP3    H269300   1.473   4.133  16.699  1.7679 -1.0803  0.3574
15937TIP3   OH269301   0.584   0.104   0.933  0.0701 -0.1818  0.0541
15937TIP3    H169302   0.516   0.037   0.925  0.5806 -0.6502 -0.4677
15937TIP3    H269303   0.581   0.132   1.025 -1.7599  0.8164 -0.2643
15938TIP3   OH269304   6.638   6.202   3.381  0.3233  0.2255  0.3945
15938TIP3    H169305   6.728   6.208   3.350  0.2075  1.4277  0.2341
15938TIP3    H269306   6.640   6.243   3.468 -0.6964  3.6580 -1.0576
15939TIP3   OH269307   3.686   3.640   1.020 -0.5260  0.7734 -0.4923
15939TIP3    H169308   3.761   3.600   0.976 -0.2720  0.2900  0.3574
15939TIP3    H269309   3.666   3.579   1.091 -2.2272  0.4902 -1.1761
15940TIP3   OH269310   0.213   6.553  13.596  0.1888 -0.3378 -0.6334
15940TIP3    H169311   0.277   6.577  13.663 -1.6613  0.9181  0.7711
15940TIP3    H269312   0.202   6.633  13.544 -0.7508 -0.3287 -0.4244
15941TIP3   OH269313   0.534   2.202  15.828 -0.2173 -0.5930  0.1452
15941TIP3    H169314   0.459   2.261  15.836 -0.2157 -0.7436  1.5146
15941TIP3    H269315   0.514   2.129  15.887 -0.2741 -2.0668 -1.5835
15942TIP3   OH269316   3.848   2.848  11.186 -0.0508  0.1023 -0.1678
15942TIP3    H169317   3.920   2.785  11.196 -0.5848 -0.6795 -1.1056
15942TIP3    H269318   3.793   2.833  11.263 -0.1309 -0.5196 -0.3444
15943TIP3   OH269319   5.421   6.480  12.754 -0.1206 -0.3144 -0.3774
15943TIP3    H169320   5.337   6.435  12.760  0.7421 -2.2009 -1.4510
15943TIP3    H269321   5.445   6.475  12.662 -0.2147  2.9928 -0.6811
15944TIP3   OH269322   3.726   4.082   3.864 -0.5452 -0.1686  0.1471
15944TIP3    H169323   3.663   4.105   3.932 -0.8719  1.2018 -0.5844
15944TIP3    H269324   3.682   4.102   3.781  0.9019  1.0326 -0.3853
15945TIP3   OH269325   4.660   3.600  17.150  0.1815  0.1935 -0.6787
15945TIP3    H169326   4.628   3.527  17.203  1.2488 -1.0263 -1.6433
15945TIP3    H269327   4.754   3.582  17.139  0.3555  1.4247 -1.3928
15946TIP3   OH269328   1.680   5.041   4.164 -0.7900  0.0002  0.0734
15946TIP3    H169329   1.606   5.003   4.211 -0.1781 -0.4374  0.6949
15946TIP3    H269330   1.654   5.036   4.072 -0.4846 -2.4973  0.0635
15947TIP3   OH269331   0.058   5.994   0.113 -0.2859  0.8896 -0.3747
15947TIP3    H169332   0.070   6.082   0.150  1.5226  0.6589 -0.2937
15947TIP3    H269333   0.131   5.984   0.052 -0.6917 -0.4093 -0.6669
15948TIP3   OH269334   4.967   6.585  11.945  1.0221 -0.4344 -0.2822
15948TIP3    H169335   4.940   6.579  12.036 -1.1768 -0.2783 -0.8622
15948TIP3    H269336   5.047   6.638  11.946  1.8677 -1.6576  1.6557
15949TIP3   OH269337   0.656   1.172   3.395  0.1952 -0.0458 -0.0112
15949TIP3    H169338   0.653   1.202   3.305 -1.4137 -0.3819 -0.0896
15949TIP3    H269339   0.727   1.222   3.435  0.7669  0.2746 -1.3871
15950TIP3   OH269340   0.250   5.146  10.328  0.3450  0.1197 -0.2620
15950TIP3    H169341   0.297   5.226  10.305 -0.6635  0.3675 -1.5541
15950TIP3    H269342   0.159   5.173  10.337  0.0737 -0.7952 -0.1806
15951TIP3   OH269343   1.479   2.233   6.308  0.0837 -0.5497  0.5840
15951TIP3    H169344   1.549   2.231   6.243  1.6243  0.3876  2.1407
15951TIP3    H269345   1.503   2.166   6.372  0.0790  0.3792  1.5935
15952TIP3   OH269346   2.906   4.144   4.496 -0.8579  0.8769 -0.0241
15952TIP3    H169347   2.899   4.161   4.590 -0.6812  0.9262 -0.0193
15952TIP3    H269348   2.975   4.204   4.466  0.6557 -0.6818  0.2064
15953TIP3   OH269349   6.615   5.473   0.684 -0.4384  0.0781 -1.1899
15953TIP3    H169350   6.595   5.384   0.713  1.0049 -0.3882 -1.5587
15953TIP3    H269351   6.692   5.464   0.628  0.3462  1.6626 -0.4403
15954TIP3   OH269352   1.554   1.005   0.056 -0.1350  0.5098 -0.7475
15954TIP3    H169353   1.520   0.917   0.072  0.9528 -0.0975 -1.5924
15954TIP3    H269354   1.500   1.062   0.111  0.5831 -0.9202  1.6022
15955TIP3   OH269355   6.164   6.727   1.327  0.5999  0.2679  0.0068
15955TIP3    H169356   6.205   6.791   1.386  2.3382 -2.6315  2.1976
15955TIP3    H269357   6.077   6.714   1.363  0.6360  0.5624  0.2102
15956TIP3   OH269358   1.310   0.747   0.691 -0.1069 -0.0314  0.1354
15956TIP3    H169359   1.227   0.768   0.647 -1.3310  0.1948  2.3901
15956TIP3    H269360   1.290   0.670   0.744  1.4778 -0.6486 -0.0978
15957TIP3   OH269361   3.246   4.667  12.667 -0.4680 -0.0689  0.1656
15957TIP3    H169362   3.261   4.573  12.674 -0.8107 -0.1317  0.0637
15957TIP3    H269363   3.333   4.704  12.649 -0.4966 -0.4829 -0.9501
15958TIP3   OH269364   2.189   4.838   1.058  0.9606  0.1274 -0.0802
15958TIP3    H169365   2.242   4.884   0.993 -0.1422  0.7598 -0.5678
15958TIP3    H269366   2.244   4.835   1.136  1.7545  0.6466 -0.6015
15959TIP3   OH269367   4.253   2.126   2.060  0.1797  0.2041 -0.2579
15959TIP3    H169368   4.291   2.191   2.001 -0.9610  0.3930 -0.8249
15959TIP3    H269369   4.290   2.145   2.145  0.3743  1.1743 -0.5485
15960TIP3   OH269370   5.482   5.790  13.775 -0.1901 -0.4193 -0.2172
15960TIP3    H169371   5.481   5.697  13.800  3.0789 -0.2978  0.8396
15960TIP3    H269372   5.536   5.793  13.696  0.3231  0.6423  0.1577
15961TIP3   OH269373   3.030   2.683  15.716  0.7681  0.1212  0.5154
15961TIP3    H169374   3.120   2.651  15.710  0.8895  0.5415  0.0642
15961TIP3    H269375   3.013   2.723  15.631  0.5920  1.1796  1.0327
15962TIP3   OH269376   2.167   5.466  12.183  0.0661  0.1953 -0.5358
15962TIP3    H169377   2.107   5.537  12.206  1.3281  0.9950  0.3707
15962TIP3    H269378   2.119   5.386  12.207 -1.2929  0.7110 -1.3956
15963TIP3   OH269379   0.155   4.857  13.137  0.2413 -0.6736  0.2637
15963TIP3    H169380   0.062   4.837  13.145  0.3094 -0.5594  1.4925
15963TIP3    H269381   0.159   4.939  13.089 -0.3392 -0.2553  0.9170
15964TIP3   OH269382   4.338   5.122   4.596  0.3602  0.0344 -0.5456
15964TIP3    H169383   4.386   5.090   4.673 -0.9858 -2.3103 -0.6186
15964TIP3    H269384   4.251   5.144   4.630  0.2617  0.5637 -1.1272
15965TIP3   OH269385   6.660   3.548  13.793  0.3670 -0.0092  0.4880
15965TIP3    H169386   6.745   3.503  13.793  1.5347  1.9203  3.1280
15965TIP3    H269387   6.678   3.632  13.751 -0.2762  0.3410  0.8937
15966TIP3   OH269388   5.979   1.245  16.669  0.4001 -0.4238  0.0888
15966TIP3    H169389   5.954   1.191  16.744  1.6709  1.0782  1.6886
15966TIP3    H269390   6.028   1.186  16.612 -1.9424 -1.9991 -0.4202
15967TIP3   OH269391   3.994   4.115  12.177 -0.0110  0.5316 -0.6903
15967TIP3    H169392   4.035   4.200  12.187 -0.4461  0.9351 -2.0241
15967TIP3    H269393   3.940   4.104  12.255 -0.2717  1.6696 -0.7004
15968TIP3   OH269394   6.768   0.576  11.485  0.0689  0.2242  0.5702
15968TIP3    H169395   6.775   0.668  11.463 -1.7331  0.1446 -0.6250
15968TIP3    H269396   6.802   0.530  11.408 -1.2748 -0.0699  0.1213
15969TIP3   OH269397   5.482   4.998   5.805  0.5591 -0.1761  0.1865
15969TIP3    H169398   5.566   4.965   5.840  0.6176  0.3397  0.5500
15969TIP3    H269399   5.484   4.977   5.712  0.4071 -1.5818  0.4870
15970TIP3   OH269400   4.312   1.044  11.482  0.3279 -0.2297 -0.5031
15970TIP3    H169401   4.337   1.082  11.397 -0.0934 -1.0171 -0.9885
15970TIP3    H269402   4.236   1.095  11.510  0.8669  0.4611 -0.2768
15971TIP3   OH269403   0.732   1.975  12.590  0.0013 -0.0662  0.6646
15971TIP3    H169404   0.727   2.027  12.510  3.3897 -0.3859  0.0801
15971TIP3    H269405   0.711   1.886  12.561 -1.6917  0.2723  0.7925
15972TIP3   OH269406   5.597   3.861  13.551  0.8259  0.3845 -0.3764
15972TIP3    H169407   5.654   3.830  13.482 -0.5942  0.2675 -1.5466
15972TIP3    H269408   5.634   3.946  13.577  0.3530  1.3718 -2.6558
15973TIP3   OH269409   2.733   0.354   4.781 -0.6374 -0.4642  0.1174
15973TIP3    H169410   2.648   0.398   4.793  0.0396  0.5090  1.7545
15973TIP3    H269411   2.724   0.272   4.830 -0.3053  0.1458  1.2422
15974TIP3   OH269412   3.255   5.086   1.967 -0.5673 -0.4824 -0.7301
15974TIP3    H169413   3.198   5.112   2.039 -2.4294 -0.1469 -2.2403
15974TIP3    H269414   3.305   5.012   2.002 -1.4356 -0.3553  0.8878
15975TIP3   OH269415   6.105   2.041  12.734  0.2378 -0.5741  0.5270
15975TIP3    H169416   6.143   2.012  12.817  0.4387 -1.1866  0.2266
15975TIP3    H269417   6.011   2.043  12.751  0.1301 -2.3050  0.3003
15976TIP3   OH269418   1.702   5.592   4.787 -0.0195 -0.0983 -0.4447
15976TIP3    H169419   1.643   5.523   4.816 -1.0440  0.6614 -0.6892
15976TIP3    H269420   1.646   5.658   4.747  1.0372  0.4369 -1.1070
15977TIP3   OH269421   4.227   5.365  15.882 -0.2247 -0.0157  0.1476
15977TIP3    H169422   4.181   5.325  15.808 -1.3388  1.7523 -0.1570
15977TIP3    H269423   4.161   5.377  15.949  0.3623  0.1601  0.7069
15978TIP3   OH269424   2.332   5.141   0.380 -0.1914  0.3336  0.3542
15978TIP3    H169425   2.372   5.065   0.422  0.2231  0.3050 -0.0844
15978TIP3    H269426   2.277   5.180   0.448  0.0784 -0.0000  0.7682
15979TIP3   OH269427   5.490   5.201   5.562 -0.0264 -0.1658  0.3661
15979TIP3    H169428   5.407   5.237   5.530 -0.6919 -1.5681  0.4383
15979TIP3    H269429   5.556   5.237   5.503 -0.7949  0.2044 -0.2863
15980TIP3   OH269430   2.237   4.602  12.592 -0.2013  0.0583  0.1406
15980TIP3    H169431   2.207   4.662  12.661  0.6142  1.1792 -0.4400
15980TIP3    H269432   2.289   4.536  12.639 -2.3830 -1.1593  0.9863
15981TIP3   OH269433   5.104   5.690  14.054 -0.0770 -0.4184  0.4848
15981TIP3    H169434   5.134   5.615  14.003  1.5783  0.7099 -0.2976
15981TIP3    H269435   5.037   5.731  13.999  0.6979 -0.0070 -0.1700
15982TIP3   OH269436   0.752   0.620   3.363  0.2389 -0.0256 -0.4447
15982TIP3    H169437   0.741   0.538   3.411  1.2839 -0.9434 -1.6879
15982TIP3    H269438   0.824   0.664   3.409  0.6051 -0.4650 -0.5807
15983TIP3   OH269439   3.191   0.347   2.598 -1.1171  0.3465 -0.4437
15983TIP3    H169440   3.258   0.292   2.640 -1.7921  0.3490  0.7017
15983TIP3    H269441   3.240   0.409   2.545 -0.1519  0.9032  1.0424
15984TIP3   OH269442   6.815   4.633  11.543  0.8662 -0.1385 -0.2690
15984TIP3    H169443   6.877   4.619  11.471  1.8426  0.8920  0.3464
15984TIP3    H269444   6.813   4.728  11.554 -1.5313 -0.0655 -0.8577
15985TIP3   OH269445   2.837   2.309  13.284  0.0864 -0.1283  0.1260
15985TIP3    H169446   2.828   2.395  13.324 -0.2067  0.3655 -0.9657
15985TIP3    H269447   2.747   2.282  13.263  0.2498 -0.2110 -0.5070
15986TIP3   OH269448   0.812   2.698   2.260 -0.6758  0.3162 -0.2178
15986TIP3    H169449   0.778   2.609   2.250 -0.6761  0.1256  1.2746
15986TIP3    H269450   0.894   2.698   2.210 -0.7113 -0.5064 -0.2900
15987TIP3   OH269451   0.908   4.565  15.754  0.5751 -0.4255  0.4817
15987TIP3    H169452   0.873   4.649  15.727  1.7951  0.2369  0.8597
15987TIP3    H269453   0.904   4.568  15.850  2.2474 -0.0299  0.5698
15988TIP3   OH269454   4.340   4.432  12.904  0.0746  0.1916 -0.5767
15988TIP3    H169455   4.348   4.411  12.811 -1.6452 -1.8983 -0.3411
15988TIP3    H269456   4.348   4.348  12.948 -3.9965  0.2636  0.7404
15989TIP3   OH269457   6.205   6.709   2.201 -0.1362  0.4259 -0.0691
15989TIP3    H169458   6.206   6.614   2.201  2.3649  0.3646 -0.1252
15989TIP3    H269459   6.219   6.733   2.109 -0.9134  0.8560 -0.0823
15990TIP3   OH269460   1.060   5.616  11.450 -0.5933 -0.1051  0.1655
15990TIP3    H169461   1.006   5.694  11.434 -0.1543  0.7820  2.5995
15990TIP3    H269462   1.035   5.588  11.538  1.0263 -1.2674  0.2892
15991TIP3   OH269463   0.162   1.624  16.055 -0.4405  0.5121  0.1171
15991TIP3    H169464   0.075   1.659  16.040  0.4082  2.9299  0.3687
15991TIP3    H269465   0.182   1.574  15.975 -1.3457  1.4757 -0.7380
15992TIP3   OH269466   3.766   0.379   6.531 -0.3979 -0.1175  0.5888
15992TIP3    H169467   3.772   0.456   6.587 -0.8314 -1.4901  2.5990
15992TIP3    H269468   3.838   0.390   6.468  0.0774  1.4826  1.3628
15993TIP3   OH269469   0.521   0.679   3.597  0.3162 -0.0718  0.7343
15993TIP3    H169470   0.520   0.616   3.525  1.2660 -0.5014  1.0879
15993TIP3    H269471   0.443   0.659   3.647 -1.9463  2.0035 -1.6354
15994TIP3   OH269472   5.090   1.946   2.667 -0.0509  0.2434 -0.0103
15994TIP3    H169473   5.074   1.902   2.583 -0.1116 -0.7185  0.4974
15994TIP3    H269474   5.177   1.984   2.657  0.6394 -1.2465  0.0560
15995TIP3   OH269475   6.129   3.253   1.670  0.0340 -0.2450 -0.2557
15995TIP3    H169476   6.131   3.263   1.766 -1.4357  0.4896 -0.2749
15995TIP3    H269477   6.181   3.327   1.638 -0.7879  0.4408 -0.0486
15996TIP3   OH269478   5.569   3.094  15.664  0.1731 -0.2258  0.3682
15996TIP3    H169479   5.637   3.055  15.718  0.4283  0.3871  0.4982
15996TIP3    H269480   5.490   3.087  15.716  0.0040 -1.4549 -0.0114
15997TIP3   OH269481   2.008   3.052  11.902  0.0689 -0.4162 -0.9911
15997TIP3    H169482   2.067   2.991  11.946 -0.3203  0.1992  0.4249
15997TIP3    H269483   1.959   3.094  11.973 -1.6738 -0.4958 -2.0812
15998TIP3   OH269484   0.578   0.488  13.430 -0.1564  0.0729 -0.0659
15998TIP3    H169485   0.640   0.543  13.382  2.3671 -0.5526  2.2342
15998TIP3    H269486   0.555   0.418  13.368  2.0382 -0.0728 -0.8123
15999TIP3   OH269487   2.151   5.560  10.981  0.2076  0.4928 -0.5406
15999TIP3    H169488   2.227   5.510  11.011 -0.7405  0.7772  2.7427
15999TIP3    H269489   2.116   5.509  10.908 -0.2728 -3.3915  2.0910
16000TIP3   OH269490   6.075   3.091   2.672  0.2839  0.1728 -0.1268
16000TIP3    H169491   5.998   3.146   2.687 -1.8015 -1.9761 -2.0961
16000TIP3    H269492   6.069   3.023   2.739  1.4103  0.8855  0.7144
16001TIP3   OH269493   5.980   2.486   3.391 -0.3690 -0.3912  0.4377
16001TIP3    H169494   5.906   2.444   3.347  1.6391 -1.0940 -2.5503
16001TIP3    H269495   6.012   2.421   3.453 -1.0156 -0.8788  0.2690
16002TIP3   OH269496   1.067   3.510  16.865 -0.2396 -0.1518 -0.0561
16002TIP3    H169497   1.100   3.420  16.873  2.3520  0.6370 -0.8241
16002TIP3    H269498   1.017   3.510  16.783 -0.0701 -0.8600 -0.1639
16003TIP3   OH269499   3.482   5.661   3.535  0.2341 -0.6191 -0.6014
16003TIP3    H169500   3.463   5.592   3.472  1.9228 -1.3087 -0.4034
16003TIP3    H269501   3.414   5.650   3.603  0.0607 -1.6325 -0.9195
16004TIP3   OH269502   3.723   5.044   4.945 -0.2842  0.0758  0.2935
16004TIP3    H169503   3.636   5.083   4.931 -0.1570  0.9615  1.7655
16004TIP3    H269504   3.778   5.082   4.877  0.2350  3.8996  2.5489
16005TIP3   OH269505   4.791   6.766  13.045  0.1153 -0.2159  0.1316
16005TIP3    H169506   4.797   6.844  12.991  1.6401 -0.2339  0.2500
16005TIP3    H269507   4.707   6.727  13.020  0.1331  0.5184 -1.1988
16006TIP3   OH269508   3.341   2.562  15.470  0.0197  0.3952 -0.5114
16006TIP3    H169509   3.397   2.626  15.514 -1.0676  0.7445  0.4175
16006TIP3    H269510   3.294   2.518  15.541 -0.7528 -0.0110 -1.2528
16007TIP3   OH269511   1.049   3.644  13.383 -0.3887  0.4330  0.5213
16007TIP3    H169512   1.076   3.729  13.419 -0.7328  0.0855  1.6602
16007TIP3    H269513   0.961   3.659  13.349 -0.1711  0.7009  0.0718
16008TIP3   OH269514   5.413   4.873   4.478  0.0811 -0.4049  0.3096
16008TIP3    H169515   5.443   4.850   4.390 -1.0249  2.8891 -1.0931
16008TIP3    H269516   5.456   4.956   4.496 -0.7574 -0.3620  2.3361
16009TIP3   OH269517   2.108   2.492   5.841  0.2228  0.0558 -0.0901
16009TIP3    H169518   2.083   2.499   5.933  0.9166  0.6889  0.0636
16009TIP3    H269519   2.203   2.497   5.841  0.3816 -2.0057 -0.6886
16010TIP3   OH269520   1.286   1.307   2.779  0.6243  0.4333  0.6770
16010TIP3    H169521   1.376   1.277   2.766  0.4403  0.6660 -1.3657
16010TIP3    H269522   1.246   1.238   2.833  1.2779 -1.1166 -0.7276
16011TIP3   OH269523   0.206   2.558  13.902 -0.1683 -1.0209 -0.8097
16011TIP3    H169524   0.299   2.572  13.921 -0.8903  1.0540  1.6899
16011TIP3    H269525   0.180   2.636  13.854 -0.9102 -0.9727 -0.3343
16012TIP3   OH269526   4.243   5.179   5.577  0.2429  0.2456  0.2996
16012TIP3    H169527   4.185   5.191   5.652 -1.0745  0.7564 -0.7634
16012TIP3    H269528   4.215   5.246   5.514  1.3374 -0.1481 -0.6341
16013TIP3   OH269529   5.333   3.460  15.126  0.0791 -0.4832 -0.1047
16013TIP3    H169530   5.387   3.443  15.049  0.7622 -2.8393  0.8136
16013TIP3    H269531   5.386   3.520  15.179  0.6304 -0.6839 -0.4157
16014TIP3   OH269532   4.739   1.775   4.507  0.2190 -0.2399  0.5156
16014TIP3    H169533   4.781   1.733   4.582 -1.0145 -1.9571  0.2890
16014TIP3    H269534   4.802   1.765   4.436  2.4242  3.3808  1.6908
16015TIP3   OH269535   1.096   0.581   2.046 -0.6497 -0.1001  0.3360
16015TIP3    H169536   1.088   0.573   2.141 -1.3373  0.6868  0.3639
16015TIP3    H269537   1.040   0.511   2.011 -0.5191 -0.2936  0.5149
16016TIP3   OH269538   5.594   1.762   3.146 -0.2498 -0.6109  0.3262
16016TIP3    H169539   5.659   1.705   3.187  1.4017  0.1643 -1.0909
16016TIP3    H269540   5.624   1.850   3.165 -1.7747 -0.2034  0.9583
16017TIP3   OH269541   6.209   4.995  15.827  0.3303 -0.1107  0.5095
16017TIP3    H169542   6.294   5.007  15.871 -0.5636  0.0002  2.2832
16017TIP3    H269543   6.144   5.011  15.895 -1.1410 -0.2526 -0.8038
16018TIP3   OH269544   1.287   0.121  17.230  0.1161 -0.6528  0.7737
16018TIP3    H169545   1.213   0.088  17.280 -0.5760  0.0210  0.2149
16018TIP3    H269546   1.254   0.130  17.141  1.5606 -2.6571 -0.0611
16019TIP3   OH269547   4.757   4.018   2.597 -0.2753 -0.3976 -0.1121
16019TIP3    H169548   4.806   4.100   2.594  2.5891 -1.8497  2.2652
16019TIP3    H269549   4.722   4.014   2.686 -1.0578 -1.4175 -0.4501
16020TIP3   OH269550   2.417   0.605  10.509 -0.4892 -0.4656 -0.3079
16020TIP3    H169551   2.415   0.689  10.463 -1.5065  0.1220  0.7452
16020TIP3    H269552   2.338   0.559  10.479 -1.5211  0.1913  1.2493
16021TIP3   OH269553   2.085   2.951   0.374 -0.6255 -0.0062 -0.8452
16021TIP3    H169554   2.062   2.994   0.456 -0.0501  0.1442 -0.7641
16021TIP3    H269555   2.100   3.022   0.312  0.0776 -0.0889 -0.7757
16022TIP3   OH269556   5.869   0.802  16.140 -0.1676  0.6002  0.3866
16022TIP3    H169557   5.858   0.841  16.227 -0.9854  0.0541  0.5361
16022TIP3    H269558   5.955   0.759  16.144  0.0290  1.0181  0.7480
16023TIP3   OH269559   1.215   0.354   1.497  0.1600 -0.0005  0.1108
16023TIP3    H169560   1.183   0.370   1.409  0.3928  3.0202  0.4833
16023TIP3    H269561   1.152   0.293   1.535 -0.3050 -0.8394 -1.8765
16024TIP3   OH269562   5.702   3.253   1.091 -0.0373 -0.0974  0.5399
16024TIP3    H169563   5.692   3.236   0.997 -0.9528 -0.3520  0.6798
16024TIP3    H269564   5.711   3.166   1.130 -1.8016 -0.1508  0.9185
16025TIP3   OH269565   1.882   3.098  15.835  0.7390 -0.0574 -0.3298
16025TIP3    H169566   1.846   3.047  15.907 -1.4832  0.9134 -0.6796
16025TIP3    H269567   1.893   3.036  15.764  0.9671 -0.6166  0.1849
16026TIP3   OH269568   0.534   0.460   0.014 -0.5978 -0.2549  0.0581
16026TIP3    H169569   0.523   0.551  -0.015 -2.0856 -0.2958  0.4118
16026TIP3    H269570   0.581   0.468   0.098 -1.8510  0.3080  0.7391
16027TIP3   OH269571   3.483   1.767  13.370 -0.1597  0.1298 -0.1713
16027TIP3    H169572   3.431   1.704  13.420  0.0968  1.8969  2.5478
16027TIP3    H269573   3.427   1.843  13.361  0.3554  0.3954 -1.3127
16028TIP3   OH269574   6.067   1.361   0.004  0.2156  0.0657  0.2500
16028TIP3    H169575   5.999   1.361   0.071 -0.7401 -1.5503 -0.6682
16028TIP3    H269576   6.042   1.432  -0.056  0.6878  1.0489  1.1854
16029TIP3   OH269577   3.550   2.981   1.793  0.1760  0.4940  0.1348
16029TIP3    H169578   3.527   3.062   1.839  0.8995  0.1001  1.2306
16029TIP3    H269579   3.470   2.929   1.795  0.0912  0.6366  0.6318
16030TIP3   OH269580   2.315   2.953   4.838 -0.8698  0.0581 -0.1004
16030TIP3    H169581   2.395   3.003   4.854 -0.8134 -0.3725  1.0567
16030TIP3    H269582   2.334   2.902   4.759  0.8662 -1.7298  1.3602
16031TIP3   OH269583   2.483   0.593  16.742 -0.2514 -0.2154  0.2168
16031TIP3    H169584   2.461   0.543  16.821 -0.1010 -0.9653 -0.2004
16031TIP3    H269585   2.415   0.570  16.679 -0.9165  1.1212  0.4129
16032TIP3   OH269586   0.956   0.836   5.303  0.6610  0.5655  0.1748
16032TIP3    H169587   0.949   0.930   5.285  0.2405  0.5856  0.4208
16032TIP3    H269588   0.976   0.831   5.396  0.8001  0.4129  0.1363
16033TIP3   OH269589   6.813   1.318   1.797 -0.3477  0.2573 -0.5925
16033TIP3    H169590   6.752   1.277   1.736 -0.6308 -0.7874  0.3537
16033TIP3    H269591   6.785   1.287   1.883 -0.4901  2.3502  0.1784
16034TIP3   OH269592   1.525   1.038   5.712 -0.2399 -0.4077 -0.2881
16034TIP3    H169593   1.546   1.108   5.651  0.1252 -1.0613 -0.9280
16034TIP3    H269594   1.607   0.991   5.725 -0.5236 -0.8500 -0.0380
16035TIP3   OH269595   4.624   6.075  11.670  0.3461 -0.1583 -0.3843
16035TIP3    H169596   4.709   6.115  11.688  0.6515 -0.6873 -0.6070
16035TIP3    H269597   4.645   5.995  11.621 -0.2923 -0.1915 -0.6207
16036TIP3   OH269598   0.080   1.889   2.799  0.1878 -0.6219 -0.1542
16036TIP3    H169599   0.174   1.872   2.794  0.1472 -0.7966 -0.3175
16036TIP3    H269600   0.040   1.820   2.746  0.0540  0.2116 -1.1676
16037TIP3   OH269601   0.855   1.559  11.372  0.1672  0.0369 -0.7531
16037TIP3    H169602   0.896   1.636  11.333 -0.3206  0.9170  0.4204
16037TIP3    H269603   0.775   1.546  11.322  0.0310  0.5656 -0.6713
16038TIP3   OH269604   2.324   0.893  16.498 -0.0416  0.1447 -0.2643
16038TIP3    H169605   2.380   0.857  16.567 -0.6202 -0.0813  0.0906
16038TIP3    H269606   2.386   0.926  16.433  0.6464  3.1417  1.6978
16039TIP3   OH269607   5.367   6.608  12.978  0.2196  0.4304 -0.0801
16039TIP3    H169608   5.419   6.688  12.982  1.8540 -0.4517 -1.8514
16039TIP3    H269609   5.397   6.564  12.898 -1.3812 -1.4321  0.2704
16040TIP3   OH269610   6.514   1.503   4.573 -0.2226 -0.1897 -0.3601
16040TIP3    H169611   6.535   1.424   4.523  1.4607  0.0790 -0.1391
16040TIP3    H269612   6.567   1.572   4.532 -0.5564  0.5216  0.3690
16041TIP3   OH269613   4.665   2.348  15.254  0.7598  0.2655 -0.1541
16041TIP3    H169614   4.660   2.439  15.225 -0.5001  0.2429 -0.0571
16041TIP3    H269615   4.677   2.354  15.349  0.5924  0.3318 -0.1373
16042TIP3   OH269616   4.161   0.217  15.349  0.3791  0.9868 -0.7020
16042TIP3    H169617   4.085   0.273  15.340 -1.4508 -1.1009  0.6497
16042TIP3    H269618   4.131   0.131  15.320  0.8446 -0.8520  3.5115
16043TIP3   OH269619   1.568   2.668  11.768 -0.1108 -0.1124 -0.3483
16043TIP3    H169620   1.599   2.578  11.755  0.4869  0.2339 -1.4838
16043TIP3    H269621   1.648   2.721  11.762 -0.4061  0.4742  0.6715
16044TIP3   OH269622   4.309   0.371   4.578 -0.0165  0.2447 -0.1284
16044TIP3    H169623   4.342   0.393   4.491  0.2012 -0.8806 -0.3381
16044TIP3    H269624   4.299   0.276   4.577  1.5873 -0.0062  1.6024
16045TIP3   OH269625   0.241   2.147   6.384  0.1525  0.4647 -0.0511
16045TIP3    H169626   0.294   2.084   6.434  0.9342  1.7145  0.7741
16045TIP3    H269627   0.158   2.152   6.432 -0.3814 -0.7850 -0.7979
16046TIP3   OH269628   5.807   3.740  13.838 -0.6207 -0.1231  0.2284
16046TIP3    H169629   5.774   3.676  13.775 -3.4083  0.3467  1.0747
16046TIP3    H269630   5.896   3.759  13.808 -1.0600 -1.5173 -2.2636
16047TIP3   OH269631   6.290   5.416   5.241 -0.3967 -0.2441  0.3596
16047TIP3    H169632   6.315   5.456   5.324 -0.5457  3.2023 -1.0958
16047TIP3    H269633   6.370   5.413   5.190 -0.9310  1.1885 -0.6355
16048TIP3   OH269634   4.143   3.492  13.482  0.5192 -0.1574 -0.0515
16048TIP3    H169635   4.073   3.548  13.447  0.0123 -0.9847 -0.3932
16048TIP3    H269636   4.150   3.517  13.574  1.0865  1.2560 -0.4435
16049TIP3   OH269637   4.380   2.342  14.263 -0.1898 -0.3617  0.4775
16049TIP3    H169638   4.419   2.367  14.179  2.7925 -1.5582  1.3902
16049TIP3    H269639   4.325   2.417  14.286 -1.6599 -0.2318 -2.7480
16050TIP3   OH269640   6.378   2.252   1.202 -0.4177 -0.1212 -0.1470
16050TIP3    H169641   6.463   2.266   1.161  0.2591 -0.5424  1.0695
16050TIP3    H269642   6.381   2.162   1.235 -2.4853 -1.2707 -2.7001
16051TIP3   OH269643   3.937   0.865  15.197  0.3318  0.0638 -0.5120
16051TIP3    H169644   3.939   0.862  15.293  1.6843 -0.3990 -0.5325
16051TIP3    H269645   3.858   0.815  15.173  1.0371 -1.5395  0.3315
16052TIP3   OH269646   3.149   1.045  16.154  0.2790  0.3912 -0.0503
16052TIP3    H169647   3.148   1.140  16.147 -0.2034  0.3889 -0.0322
16052TIP3    H269648   3.227   1.025  16.206 -0.3984  0.8625  1.1792
16053TIP3   OH269649   4.299   1.804  15.240  0.1312 -0.0853  0.3182
16053TIP3    H169650   4.365   1.793  15.172 -0.1082 -1.0309  0.2285
16053TIP3    H269651   4.320   1.888  15.281  1.5507 -0.4982  0.4842
16054TIP3   OH269652   1.756   4.543  16.322  0.1062  0.0998  0.2149
16054TIP3    H169653   1.730   4.462  16.365  1.3064 -0.0661  0.6458
16054TIP3    H269654   1.767   4.518  16.230  0.5348 -0.2364  0.3572
16055TIP3   OH269655   2.177   4.090   1.142  0.0795 -0.1162 -0.2239
16055TIP3    H169656   2.189   4.067   1.050  0.7873 -1.6413  0.2037
16055TIP3    H269657   2.242   4.037   1.189 -0.7863  0.0283  1.2240
16056TIP3   OH269658   2.843   4.701  16.927 -0.3058 -0.1875  0.3380
16056TIP3    H169659   2.786   4.650  16.984 -0.2430  0.0418  0.6057
16056TIP3    H269660   2.841   4.790  16.962  0.1571 -0.1612  0.3112
16057TIP3   OH269661   5.614   0.247   5.008 -0.5523  0.3578  0.5155
16057TIP3    H169662   5.688   0.257   5.067 -1.1824 -1.0211  1.5807
16057TIP3    H269663   5.604   0.153   4.996 -3.0651  0.3840  1.6700
16058TIP3   OH269664   6.595   5.845  16.341 -0.0776  0.1320 -0.5782
16058TIP3    H169665   6.606   5.843  16.436 -0.1966  0.6961 -0.5522
16058TIP3    H269666   6.612   5.936  16.317 -3.9135  0.9966 -0.6269
16059TIP3   OH269667   0.954   5.759   3.275  0.2086 -0.2507 -0.7636
16059TIP3    H169668   0.863   5.732   3.271 -0.8673  2.6944  1.0765
16059TIP3    H269669   0.984   5.731   3.362 -0.1593  1.9197  0.1327
16060TIP3   OH269670   2.585   6.439   6.067  0.0490 -0.0477 -0.5648
16060TIP3    H169671   2.514   6.375   6.061  2.2202 -2.5767 -1.1020
16060TIP3    H269672   2.648   6.400   6.128  2.3237  0.6457 -2.2925
16061TIP3   OH269673   6.743   6.668   2.462 -0.3333  0.0676  0.1577
16061TIP3    H169674   6.801   6.619   2.519 -0.8244  2.0438  2.5108
16061TIP3    H269675   6.655   6.635   2.481 -0.2527 -2.0306 -2.4767
16062TIP3   OH269676   6.705   1.908   3.361 -0.5126 -0.0174  0.2890
16062TIP3    H169677   6.780   1.860   3.397 -1.0019  0.0832  1.4977
16062TIP3    H269678   6.725   1.918   3.268  0.5912 -0.6983  0.4350
16063TIP3   OH269679   6.055   3.590  14.022 -0.1588 -0.3681  0.5614
16063TIP3    H169680   6.098   3.639  14.092  0.2910  0.1316 -0.0563
16063TIP3    H269681   5.968   3.571  14.057 -0.3944  0.9918  0.7558
16064TIP3   OH269682   3.301   4.363  11.818 -0.4729  0.1101  0.0802
16064TIP3    H169683   3.367   4.334  11.754 -0.7126  1.9349 -1.0765
16064TIP3    H269684   3.219   4.365  11.768 -1.2029 -0.9455  1.1824
16065TIP3   OH269685   2.773   4.255   4.257  0.9035  0.4257 -0.4048
16065TIP3    H169686   2.714   4.183   4.233  0.8738  0.5657 -0.7644
16065TIP3    H269687   2.783   4.248   4.351 -1.3320  1.6095 -0.0049
16066TIP3   OH269688   4.123   5.788  10.707  0.8793 -0.1749  0.4077
16066TIP3    H169689   4.075   5.768  10.627 -0.5176  1.6304  0.7461
16066TIP3    H269690   4.210   5.816  10.676  0.3809  0.4400 -0.4874
16067TIP3   OH269691   6.524   1.017  13.194 -0.0464 -0.0701  0.5771
16067TIP3    H169692   6.522   0.939  13.139  0.3581 -0.2766  0.8530
16067TIP3    H269693   6.541   0.985  13.282 -0.0964  0.3120  0.7306
16068TIP3   OH269694   4.008   4.251   2.314 -0.6186 -0.5275 -0.0445
16068TIP3    H169695   3.941   4.227   2.249  0.7055 -0.1423 -1.5985
16068TIP3    H269696   4.090   4.253   2.265  0.6845 -1.6659  1.9552
16069TIP3   OH269697   1.527   5.568  16.131  0.4663  0.1403 -0.3122
16069TIP3    H169698   1.569   5.602  16.052 -0.6396  1.8732 -0.2164
16069TIP3    H269699   1.436   5.553  16.105  0.2904 -0.0982  0.4202
16070TIP3   OH269700   0.100   5.927  15.036 -0.0628 -0.1600  0.1248
16070TIP3    H169701   0.035   5.913  14.967 -0.7233  0.7251  0.5401
16070TIP3    H269702   0.091   5.850  15.092 -0.8626  0.0075  0.2472
16071TIP3   OH269703   2.826   0.773   0.889  0.0875  0.4004  0.3263
16071TIP3    H169704   2.792   0.688   0.860 -2.0375  1.1106  0.6128
16071TIP3    H269705   2.920   0.768   0.871 -0.4430 -0.8181 -2.5869
16072TIP3   OH269706   4.964   3.234   0.206  0.0920  0.1856  0.2710
16072TIP3    H169707   4.886   3.181   0.226 -0.1326  0.1981 -0.5451
16072TIP3    H269708   4.964   3.242   0.111  0.2774  1.4333  0.3611
16073TIP3   OH269709   6.395   1.417   4.836 -0.1121  0.0197  0.2882
16073TIP3    H169710   6.444   1.444   4.758 -0.8135 -1.0146 -0.5457
16073TIP3    H269711   6.349   1.496   4.864  1.9461  1.0129  1.0720
16074TIP3   OH269712   0.198   1.851  12.804  0.3158  0.2436  0.9849
16074TIP3    H169713   0.130   1.822  12.743 -0.7004 -0.2543  2.3178
16074TIP3    H269714   0.251   1.913  12.753 -0.2997 -0.4028 -0.4869
16075TIP3   OH269715   5.253   3.325  12.866 -0.1592  0.0942 -0.3623
16075TIP3    H169716   5.306   3.375  12.805  1.0411  2.6935  2.5766
16075TIP3    H269717   5.163   3.350  12.846  0.1247  0.1624 -1.6137
16076TIP3   OH269718   4.502   1.243  15.960 -0.2536 -0.1479 -0.2900
16076TIP3    H169719   4.500   1.154  15.925 -1.2785  0.0729 -0.8232
16076TIP3    H269720   4.551   1.235  16.042  3.0090 -0.5000 -2.1373
16077TIP3   OH269721   2.700   3.965  13.659  0.2432  0.6518  0.0788
16077TIP3    H169722   2.713   4.019  13.737  0.2551 -0.4460  0.8620
16077TIP3    H269723   2.662   3.884  13.692  0.6229  0.0070 -1.0099
16078TIP3   OH269724   5.009   6.145  11.116 -0.3204  0.6758 -0.3980
16078TIP3    H169725   4.948   6.199  11.067 -0.9151  1.1575  0.8218
16078TIP3    H269726   4.956   6.074  11.152 -0.5786  1.9648  2.0031
16079TIP3   OH269727   3.292   0.475   0.922  0.3682 -0.2224 -0.0789
16079TIP3    H169728   3.300   0.562   0.961 -0.5466 -0.3421  0.3997
16079TIP3    H269729   3.251   0.422   0.990 -1.4534 -0.3898 -1.2273
16080TIP3   OH269730   6.443   5.202  11.316  0.0215  0.8609 -0.5472
16080TIP3    H169731   6.485   5.189  11.231 -1.7634 -0.0772 -1.3433
16080TIP3    H269732   6.371   5.262  11.298 -0.8000  0.1163  0.1363
16081TIP3   OH269733   4.862   1.933   1.887 -0.2109 -0.5262 -0.0053
16081TIP3    H169734   4.820   1.996   1.946 -0.6201  0.2681 -1.1030
16081TIP3    H269735   4.792   1.907   1.827  0.5134 -0.3007 -0.9623
16082TIP3   OH269736   3.525   3.242   0.923  0.1443  0.2250  0.1763
16082TIP3    H169737   3.579   3.170   0.956  1.8507  0.4606 -1.8375
16082TIP3    H269738   3.443   3.201   0.897 -0.2009 -0.3833  2.0690
16083TIP3   OH269739   0.366   2.625   4.607 -0.6026  0.5129 -0.0307
16083TIP3    H169740   0.403   2.621   4.695 -2.6441  0.1207  0.8634
16083TIP3    H269741   0.285   2.675   4.617  0.1793  2.4024 -2.1274
16084TIP3   OH269742   6.120   6.104  15.973  0.7126 -0.3983 -0.1972
16084TIP3    H169743   6.121   6.099  16.068  0.7623  0.1986 -0.1650
16084TIP3    H269744   6.143   6.194  15.953 -0.2007 -0.2704 -0.7444
16085TIP3   OH269745   5.184   3.763   0.405 -0.1162  0.2059 -0.2547
16085TIP3    H169746   5.251   3.743   0.339 -1.0279  0.5738 -1.3334
16085TIP3    H269747   5.205   3.706   0.478 -0.8687 -2.6011 -2.0623
16086TIP3   OH269748   2.233   0.623   3.227  0.1134 -0.7863  0.6056
16086TIP3    H169749   2.147   0.653   3.200  1.1177  1.3598 -0.3885
16086TIP3    H269750   2.258   0.681   3.299  0.8977 -1.1338  0.6312
16087TIP3   OH269751   3.451   4.289  11.601 -0.6575  0.2590  0.2346
16087TIP3    H169752   3.536   4.246  11.588 -0.3425  1.2203 -1.0579
16087TIP3    H269753   3.387   4.226  11.569 -0.2141  0.6160 -1.4420
16088TIP3   OH269754   6.507   0.034  15.578 -0.0429  0.4905 -0.4271
16088TIP3    H169755   6.511   0.123  15.543 -0.8358  0.2487 -1.1769
16088TIP3    H269756   6.415   0.023  15.603  0.0157 -0.1851 -0.5095
16089TIP3   OH269757   4.024   5.014  16.431 -0.4597 -0.8176 -0.5966
16089TIP3    H169758   4.007   4.923  16.455  0.6226 -0.7764  0.4773
16089TIP3    H269759   4.079   5.008  16.353  0.7170 -1.1634  0.2172
16090TIP3   OH269760   5.424   6.821   4.599  0.1142 -0.3812  0.4273
16090TIP3    H169761   5.453   6.894   4.653 -0.5669 -0.1751  0.5268
16090TIP3    H269762   5.445   6.847   4.509  0.9892 -0.6022  0.5603
16091TIP3   OH269763   2.270   1.724  10.764  0.9445 -0.0733  0.1425
16091TIP3    H169764   2.262   1.762  10.852  3.8344  1.7401 -0.2228
16091TIP3    H269765   2.219   1.643  10.768 -1.6392  1.5071  2.4633
16092TIP3   OH269766   0.248   5.398   2.400 -0.3060 -0.0256 -0.2586
16092TIP3    H169767   0.339   5.391   2.372 -0.2067  1.7221 -0.4807
16092TIP3    H269768   0.251   5.378   2.494 -0.2159 -3.0294 -0.7897
16093TIP3   OH269769   6.039   2.259   3.610 -0.2684 -0.1343  0.2748
16093TIP3    H169770   6.063   2.170   3.583 -0.8426 -0.6174  1.3045
16093TIP3    H269771   6.122   2.306   3.610  0.1358 -0.8279  0.3095
16094TIP3   OH269772   6.583   5.225  14.018 -0.0513  0.2300  0.8712
16094TIP3    H169773   6.647   5.154  14.023 -2.2467 -2.0432 -0.5134
16094TIP3    H269774   6.546   5.231  14.106  0.1163 -0.4160  0.9890
16095TIP3   OH269775   2.315   6.761  12.026 -0.0333  0.3088  0.1384
16095TIP3    H169776   2.347   6.674  12.002 -0.8029  0.3554 -1.1408
16095TIP3    H269777   2.298   6.804  11.943  0.0762  1.5960  0.7617
16096TIP3   OH269778   0.837   5.964   0.140  0.0235  0.0253 -0.2902
16096TIP3    H169779   0.769   5.903   0.170  0.7970 -0.2842  0.9021
16096TIP3    H269780   0.857   5.935   0.051  0.3988 -1.5125  0.2602
16097TIP3   OH269781   4.151   6.095  11.501  0.4985 -0.1287  0.4123
16097TIP3    H169782   4.066   6.095  11.458 -0.0382  3.6740  1.0770
16097TIP3    H269783   4.139   6.041  11.579 -1.1675 -0.0091  0.2663
16098TIP3   OH269784   1.277   2.876   0.040 -0.3957  0.5231  0.2776
16098TIP3    H169785   1.320   2.893   0.123 -1.0671  1.4383  0.4458
16098TIP3    H269786   1.228   2.956   0.020 -1.1790 -0.1032 -0.4169
16099TIP3   OH269787   2.651   3.854  17.125  0.6201 -0.1021  0.2253
16099TIP3    H169788   2.658   3.812  17.039 -0.0234  0.1354  0.0513
16099TIP3    H269789   2.739   3.848  17.161  0.8143 -0.5341 -0.2972
16100TIP3   OH269790   1.509   1.660   1.723 -0.2876  0.8086 -0.0532
16100TIP3    H169791   1.424   1.682   1.762 -0.8625 -2.8700  1.1900
16100TIP3    H269792   1.573   1.682   1.791 -0.9249 -1.8437  1.5445
16101TIP3   OH269793   4.899   5.735  11.744 -0.8359 -0.0867 -0.2198
16101TIP3    H169794   4.920   5.643  11.755 -0.3804  0.2889  2.8689
16101TIP3    H269795   4.911   5.774  11.831 -0.8253  2.9365 -1.4308
16102TIP3   OH269796   0.576   5.220   5.236 -0.1750 -0.3556 -0.4610
16102TIP3    H169797   0.563   5.302   5.188 -0.6221 -1.0576 -1.5701
16102TIP3    H269798   0.580   5.153   5.168  3.2575 -0.9767  0.1787
16103TIP3   OH269799   4.191   5.805   5.051  0.1188 -0.0336 -0.4790
16103TIP3    H169800   4.123   5.871   5.066 -1.3775 -1.5763 -0.1916
16103TIP3    H269801   4.268   5.840   5.097 -0.6730  1.4097 -0.1809
16104TIP3   OH269802   0.534   5.939  11.374 -0.3796 -0.3621  0.5465
16104TIP3    H169803   0.623   5.974  11.367 -0.6940  0.5869  1.1240
16104TIP3    H269804   0.489   5.972  11.296 -0.9381  1.3625  1.5560
16105TIP3   OH269805   1.560   3.556   2.749 -0.1476  0.3802 -0.4907
16105TIP3    H169806   1.655   3.555   2.744 -0.0661 -0.1992  0.8225
16105TIP3    H269807   1.538   3.641   2.787  0.0032 -0.3126  1.2457
16106TIP3   OH269808   1.844   3.459   4.522 -0.0777  0.3240  0.5842
16106TIP3    H169809   1.766   3.442   4.469 -1.4326  1.4675  2.1394
16106TIP3    H269810   1.880   3.541   4.486 -0.0992  0.2775  0.4549
16107TIP3   OH269811   2.406   4.183  13.919 -0.6633  0.3587 -0.0503
16107TIP3    H169812   2.317   4.190  13.952  0.0266 -1.1754  2.3048
16107TIP3    H269813   2.404   4.108  13.859 -0.6149 -0.8109  1.3720
16108TIP3   OH269814   2.835   1.287  12.748  0.5067 -0.3467  0.1496
16108TIP3    H169815   2.745   1.277  12.720 -0.1971  1.4892  1.5178
16108TIP3    H269816   2.886   1.291  12.667 -0.9451  0.9255 -0.7424
16109TIP3   OH269817   0.239   0.422   3.990  0.1240 -0.0647 -0.0012
16109TIP3    H169818   0.334   0.421   3.975  0.4666 -0.1089  2.0131
16109TIP3    H269819   0.225   0.360   4.061 -1.6252 -1.1163 -1.1876
16110TIP3   OH269820   1.105   2.987  12.451 -0.2281 -0.1766  0.4648
16110TIP3    H169821   1.148   3.032  12.524 -0.5065  2.8411 -1.0600
16110TIP3    H269822   1.173   2.975  12.386 -0.8750  1.3926 -0.5534
16111TIP3   OH269823   1.113   6.336  11.738 -0.5849 -0.1703  0.3123
16111TIP3    H169824   1.077   6.398  11.674 -1.0864  0.8220  1.5029
16111TIP3    H269825   1.143   6.392  11.809  1.0900 -1.1643  0.4245
16112TIP3   OH269826   2.607   3.815   5.118 -0.0281 -0.2644 -0.1720
16112TIP3    H169827   2.678   3.751   5.109  1.3605  1.3498 -1.3858
16112TIP3    H269828   2.561   3.789   5.198  2.0287 -1.2801  0.7577
16113TIP3   OH269829   3.455   1.479  13.440  0.9915  0.2658  0.1957
16113TIP3    H169830   3.396   1.420  13.487  0.5178 -0.3518 -1.1509
16113TIP3    H269831   3.534   1.482  13.495  0.6236 -0.7882  0.8064
16114TIP3   OH269832   1.033   5.773   5.095  0.1734  0.1306 -0.4330
16114TIP3    H169833   1.032   5.787   5.190  0.2448  2.0917 -0.6745
16114TIP3    H269834   0.941   5.764   5.071  0.2371 -2.8638  0.0712
16115TIP3   OH269835   2.611   4.422  16.385  0.0255 -0.1332 -0.3773
16115TIP3    H169836   2.530   4.440  16.432 -0.5919 -2.8508 -0.2363
16115TIP3    H269837   2.670   4.388  16.451  0.8275  0.5070 -0.7453
16116TIP3   OH269838   2.635   6.187  12.648  0.2600  0.0726  0.0701
16116TIP3    H169839   2.553   6.223  12.615 -1.0967 -1.8310  1.1336
16116TIP3    H269840   2.700   6.207  12.579 -1.8991 -1.6714 -2.6998
16117TIP3   OH269841   0.633   0.387   4.608  1.0085  0.7169  0.4865
16117TIP3    H169842   0.700   0.336   4.562  0.6474 -0.5611  1.3214
16117TIP3    H269843   0.643   0.362   4.700 -1.0702 -0.0533  0.5467
16118TIP3   OH269844   1.181   2.624  12.983  0.8287 -0.3278 -0.0009
16118TIP3    H169845   1.182   2.579  13.067 -0.0060  0.4823  0.4656
16118TIP3    H269846   1.135   2.565  12.924  0.6428 -0.5237  0.3376
16119TIP3   OH269847   4.374   1.344  14.996  0.3273  0.2124 -0.1097
16119TIP3    H169848   4.463   1.311  15.007  0.5357  1.2222  1.7340
16119TIP3    H269849   4.383   1.419  14.938  0.2191 -1.3120 -2.2104
16120TIP3   OH269850   1.673   6.397  16.280  0.0625  0.1843  0.6821
16120TIP3    H169851   1.714   6.328  16.227 -1.3224  0.4421 -0.7967
16120TIP3    H269852   1.746   6.449  16.312  1.1970 -2.1571  2.1915
16121TIP3   OH269853   1.646   3.414   4.352  0.1583  0.3101 -0.4350
16121TIP3    H169854   1.634   3.376   4.265  0.0037 -1.1012  0.1771
16121TIP3    H269855   1.569   3.468   4.366 -1.0371 -1.3754 -0.2285
16122TIP3   OH269856   1.290   5.828   0.537 -0.2523  0.2191  0.1620
16122TIP3    H169857   1.300   5.842   0.442 -1.7722  0.8018  0.0618
16122TIP3    H269858   1.316   5.911   0.576  0.8362 -0.1761  0.3072
16123TIP3   OH269859   1.275   6.717   2.170  0.3321 -0.0707 -0.1694
16123TIP3    H169860   1.232   6.685   2.249 -1.8095  1.3856 -0.6292
16123TIP3    H269861   1.262   6.812   2.173  3.1704  0.4179 -0.6401
16124TIP3   OH269862   2.710   2.394  15.210 -0.3982 -0.2948  0.1468
16124TIP3    H169863   2.728   2.458  15.141 -0.6117  0.0289  0.3874
16124TIP3    H269864   2.725   2.442  15.291 -2.4140  0.0214  0.3691
16125TIP3   OH269865   2.747   0.176   3.530  0.6824  0.1350  0.2267
16125TIP3    H169866   2.804   0.169   3.607 -1.3565 -2.1047  1.6957
16125TIP3    H269867   2.761   0.094   3.482  1.7668  1.4168 -1.7643
16126TIP3   OH269868   6.054   6.523  13.439 -0.1535  0.2923 -0.2747
16126TIP3    H169869   5.989   6.585  13.470 -1.3646 -1.0845  0.0206
16126TIP3    H269870   6.024   6.497  13.352  1.0368  1.0515 -0.9460
16127TIP3   OH269871   2.510   2.124  11.392 -0.3728 -0.1565 -0.4171
16127TIP3    H169872   2.505   2.211  11.351  2.2339  0.4048  0.2935
16127TIP3    H269873   2.479   2.137  11.481  2.1639  0.6517  0.4204
16128TIP3   OH269874   6.262   0.981   0.209  0.1666  0.2866  0.5351
16128TIP3    H169875   6.266   1.064   0.162 -0.7259  0.6717  1.1306
16128TIP3    H269876   6.351   0.946   0.201  0.9170  1.9059  1.3855
16129TIP3   OH269877   5.441   4.178   2.093  0.1399 -0.1283  0.1251
16129TIP3    H169878   5.520   4.227   2.070  0.6814 -1.5310 -1.1628
16129TIP3    H269879   5.370   4.225   2.049  0.5115  0.1050 -0.2322
16130TIP3   OH269880   5.483   2.590  16.292 -0.1457 -0.2634  0.3819
16130TIP3    H169881   5.575   2.593  16.320  0.0480 -2.4734  0.1312
16130TIP3    H269882   5.462   2.497  16.287 -1.2408  0.0314 -3.3520
16131TIP3   OH269883   2.106   1.055  17.013  0.5226 -0.1832 -0.0065
16131TIP3    H169884   2.197   1.025  17.007  0.2972 -0.6222 -1.6784
16131TIP3    H269885   2.112   1.146  17.040  1.4340 -0.3041  0.2350
16132TIP3   OH269886   4.201   3.785  15.650 -0.1129 -0.8225 -0.6364
16132TIP3    H169887   4.272   3.723  15.634  1.4064  0.6977 -0.1694
16132TIP3    H269888   4.150   3.745  15.720  1.2168 -1.2782  0.1266
16133TIP3   OH269889   3.680   1.350  14.475 -0.1556 -0.3299 -0.0429
16133TIP3    H169890   3.698   1.285  14.543  1.1729 -0.6338 -0.6499
16133TIP3    H269891   3.600   1.319  14.432  0.4115 -1.5273 -0.2742
16134TIP3   OH269892   6.752   1.375   0.359  0.0625 -0.0884 -0.3975
16134TIP3    H169893   6.706   1.349   0.439 -0.4554  1.0688 -0.2925
16134TIP3    H269894   6.752   1.471   0.362 -1.2744  0.0457 -2.5108
16135TIP3   OH269895   4.454   3.768  14.871 -0.0764  0.1414  0.0342
16135TIP3    H169896   4.407   3.757  14.788  0.3671  1.0662 -0.3537
16135TIP3    H269897   4.522   3.701  14.869 -0.9233 -0.7591  0.2952
16136TIP3   OH269898   0.920   1.983  11.646  0.5658 -0.2562  0.3221
16136TIP3    H169899   0.884   2.028  11.570  1.2468 -0.0650  0.1086
16136TIP3    H269900   0.889   1.893  11.637 -1.0805  0.2143  0.9277
16137TIP3   OH269901   4.233   4.741   3.582  0.1923 -0.5690  0.1717
16137TIP3    H169902   4.239   4.745   3.678  0.3226  0.9444  0.1283
16137TIP3    H269903   4.180   4.817   3.558 -3.0624 -2.9367 -0.7659
16138TIP3   OH269904   4.862   0.043  14.727 -0.4498 -0.2025  0.4785
16138TIP3    H169905   4.828   0.131  14.738 -0.7279 -0.3950  1.2432
16138TIP3    H269906   4.902   0.022  14.812 -0.2466 -0.7458  0.2533
16139TIP3   OH269907   5.394   1.415   2.411  0.6039 -0.1582 -0.2018
16139TIP3    H169908   5.445   1.348   2.366  1.4745  0.7764 -0.6628
16139TIP3    H269909   5.365   1.474   2.341  0.6140  0.4299  0.2818
16140TIP3   OH269910   3.033   5.884   1.339 -0.5301 -0.1214 -0.0303
16140TIP3    H169911   2.991   5.827   1.276  0.7876  0.8108 -1.8268
16140TIP3    H269912   3.071   5.955   1.287  0.5815  0.7229  1.8034
16141TIP3   OH269913   1.929   3.799  15.957 -0.1863 -0.4942  0.4237
16141TIP3    H169914   1.913   3.863  16.027  2.5976  0.7057  0.1003
16141TIP3    H269915   1.893   3.840  15.879 -0.8304 -0.5962  0.6552
16142TIP3   OH269916   2.727   4.132   1.258  0.5433 -0.3947 -0.3686
16142TIP3    H169917   2.799   4.194   1.253  0.6331 -0.5129 -0.5736
16142TIP3    H269918   2.662   4.166   1.196 -0.8550  1.3254  1.8740
16143TIP3   OH269919   3.705   2.129  10.644 -0.2417 -0.0732 -0.6769
16143TIP3    H169920   3.679   2.188  10.573 -1.4697  1.4412  0.9799
16143TIP3    H269921   3.627   2.120  10.698  0.1649 -2.6017 -0.4030
16144TIP3   OH269922   2.218   2.617  14.417  0.5655 -0.6209  0.4178
16144TIP3    H169923   2.172   2.670  14.352  1.2328 -0.8401 -0.2669
16144TIP3    H269924   2.162   2.617  14.494 -0.1865 -0.2368 -0.1199
16145TIP3   OH269925   2.335   4.565  16.158  0.2114  0.5237 -0.2400
16145TIP3    H169926   2.325   4.583  16.064 -2.9595  0.9727  0.0609
16145TIP3    H269927   2.383   4.641  16.191  1.0463  0.5448 -1.4473
16146TIP3   OH269928   2.053   0.854   2.647 -0.1777  0.1407  0.2394
16146TIP3    H169929   2.007   0.865   2.730  0.1057  0.5768  0.3416
16146TIP3    H269930   2.071   0.943   2.617 -1.9702  0.0586 -1.2515
16147TIP3   OH269931   5.622   2.975  16.130  0.7044 -0.2954  0.6100
16147TIP3    H169932   5.564   3.002  16.201  1.0077  0.3901  0.6022
16147TIP3    H269933   5.563   2.934  16.066  0.3302 -0.2574  0.9272
16148TIP3   OH269934   0.589   2.922   1.755  0.4176  0.2180  1.4322
16148TIP3    H169935   0.646   2.998   1.757 -0.4507  0.9412  0.0748
16148TIP3    H269936   0.647   2.847   1.746  1.2240  0.8040  1.7204
16149TIP3   OH269937   4.139   1.230   1.307  0.3854 -0.4123 -0.2609
16149TIP3    H169938   4.219   1.273   1.336 -0.3256  1.5297 -1.0073
16149TIP3    H269939   4.158   1.202   1.218  1.1986 -2.7206  0.5611
16150TIP3   OH269940   6.043   6.294   4.469 -0.1781  0.0702  0.0118
16150TIP3    H169941   6.057   6.299   4.564 -0.9687  0.5811  0.1086
16150TIP3    H269942   6.128   6.314   4.431 -0.1821  1.2941  0.6010
16151TIP3   OH269943   5.187   5.490  13.878 -0.5305 -0.6360  0.7239
16151TIP3    H169944   5.156   5.410  13.920  0.0598 -0.5664  1.3066
16151TIP3    H269945   5.267   5.465  13.833 -0.3439 -0.3696  0.9087
16152TIP3   OH269946   1.417   4.279   5.790 -0.5155  0.5892  0.3520
16152TIP3    H169947   1.465   4.318   5.718  0.9130 -2.0106 -0.2243
16152TIP3    H269948   1.482   4.270   5.860 -0.3627 -1.8834 -0.0225
16153TIP3   OH269949   5.457   5.826  16.489 -0.1457 -0.2779  0.8039
16153TIP3    H169950   5.538   5.877  16.494 -0.2825  0.7092 -3.5893
16153TIP3    H269951   5.387   5.890  16.503 -0.2111 -0.0365 -0.4852
16154TIP3   OH269952   3.074   3.125  11.474 -0.0075 -0.1454  0.7444
16154TIP3    H169953   3.049   3.051  11.528 -1.2483 -2.4299 -2.6536
16154TIP3    H269954   2.993   3.155  11.434  0.9027  1.0988 -0.2711
16155TIP3   OH269955   6.438   3.781   4.826  0.0686 -0.0230  0.1649
16155TIP3    H169956   6.354   3.823   4.845  0.3158 -0.0988  1.4958
16155TIP3    H269957   6.414   3.696   4.789 -0.4536 -0.0624  0.5742
16156TIP3   OH269958   0.632   5.828   2.297 -0.1870  0.5840  0.4489
16156TIP3    H169959   0.677   5.789   2.371 -0.8673  1.2019  1.2120
16156TIP3    H269960   0.699   5.878   2.252  0.0251  1.0629  1.2691
16157TIP3   OH269961   5.162   3.892   1.617 -0.3769  0.2058  0.1108
16157TIP3    H169962   5.113   3.810   1.605 -0.3754  0.2083  0.0873
16157TIP3    H269963   5.192   3.915   1.529  0.9807 -0.6191  0.3191
16158TIP3   OH269964   4.781   0.130  15.975  0.3867 -0.1111  0.0518
16158TIP3    H169965   4.739   0.064  15.920  0.0303 -0.2865  0.5237
16158TIP3    H269966   4.709   0.171  16.023  0.6255  0.4865 -0.0826
16159TIP3   OH269967   1.390   2.700   1.374 -0.5094  0.0336 -0.6929
16159TIP3    H169968   1.339   2.711   1.294  0.5375 -1.1273 -1.5405
16159TIP3    H269969   1.410   2.789   1.402  0.0976  0.4531 -2.3721
16160TIP3   OH269970   5.630   2.032  16.533 -0.0040 -0.4070  0.3616
16160TIP3    H169971   5.666   2.121  16.534  0.9683 -0.7754  2.0219
16160TIP3    H269972   5.537   2.043  16.556  0.5901  0.0675  2.8763
16161TIP3   OH269973   4.877   5.587  12.585 -1.3168  0.4165  0.0075
16161TIP3    H169974   4.818   5.659  12.603 -1.7905 -0.0965  0.5734
16161TIP3    H269975   4.964   5.622  12.603 -1.5292  0.8814  0.1440
16162TIP3   OH269976   1.908   1.352   2.910  0.3511 -0.2609 -0.8699
16162TIP3    H169977   1.956   1.430   2.937 -0.3406 -0.2424  0.3512
16162TIP3    H269978   1.827   1.354   2.961  0.1630 -1.5911 -1.0750
16163TIP3   OH269979   0.441   3.296   4.740 -0.1592  0.3382 -0.3525
16163TIP3    H169980   0.346   3.304   4.727 -0.4473  0.7744  1.6764
16163TIP3    H269981   0.467   3.383   4.771  0.3624 -0.5516  1.8957
16164TIP3   OH269982   6.158   6.025   6.605 -0.1003  0.2764 -0.2953
16164TIP3    H169983   6.168   6.118   6.622  0.1524  0.4407 -1.2658
16164TIP3    H269984   6.247   5.992   6.598 -0.1867  0.1303 -0.7771
16165TIP3   OH269985   4.364   0.385  12.340  0.0415 -0.9577  0.9912
16165TIP3    H169986   4.366   0.328  12.417  2.2997 -0.5725  1.2752
16165TIP3    H269987   4.287   0.356  12.291  0.1135 -3.0573  2.0200
16166TIP3   OH269988   3.459   6.749   1.914  0.2463  0.6119 -0.3717
16166TIP3    H169989   3.532   6.704   1.872 -0.1530  0.2197 -0.6595
16166TIP3    H269990   3.383   6.726   1.860 -0.0221  1.3644 -0.3304
16167TIP3   OH269991   4.540   5.704  16.243 -0.1655 -0.1957 -0.0404
16167TIP3    H169992   4.631   5.699  16.271 -0.0920  1.0725 -0.0148
16167TIP3    H269993   4.494   5.640  16.297  0.4870  0.0874  0.8596
16168TIP3   OH269994   2.397   6.597   0.707  0.0936 -0.5499  0.5842
16168TIP3    H169995   2.341   6.602   0.629 -0.6769  0.0244  1.1601
16168TIP3    H269996   2.346   6.639   0.776  1.3568  0.2653  1.0612
16169TIP3   OH269997   3.229   6.017  14.220  0.2564 -0.0853  0.2932
16169TIP3    H169998   3.192   6.011  14.309 -0.7196  1.9500  0.0967
16169TIP3    H269999   3.188   5.945  14.172 -1.4174  0.4851  0.8017
16170TIP3   OH270000   5.433   0.513   5.579 -0.5968  0.0203  0.3632
16170TIP3    H170001   5.487   0.467   5.515 -0.9314  1.2840 -0.8660
16170TIP3    H270002   5.433   0.456   5.656 -1.8786 -2.5619 -1.4192
16171TIP3   OH270003   2.780   0.678   3.555 -0.4807  0.2455  0.0218
16171TIP3    H170004   2.808   0.746   3.618  1.3960 -0.2268 -0.2409
16171TIP3    H270005   2.688   0.664   3.575 -0.1732  0.7766  2.0722
16172TIP3   OH270006   6.610   1.765   3.747 -0.3349 -0.0312  0.3986
16172TIP3    H170007   6.589   1.756   3.654 -0.7358  0.3187  0.4518
16172TIP3    H270008   6.687   1.822   3.749  0.8827 -1.6015  0.1836
16173TIP3   OH270009   6.214   2.051   5.818  0.1641 -0.0874  0.2624
16173TIP3    H170010   6.174   1.967   5.842 -0.0500 -0.3871 -1.0857
16173TIP3    H270011   6.231   2.093   5.902 -0.5729 -1.0805  0.9451
16174TIP3   OH270012   5.756   4.708   4.900 -0.2169  1.0042 -0.1406
16174TIP3    H170013   5.691   4.708   4.829  1.4950  2.0632 -1.8179
16174TIP3    H270014   5.783   4.617   4.908 -0.0800  0.9397 -1.2222
16175TIP3   OH270015   1.511   1.088   3.393 -0.0602  0.1467  0.2589
16175TIP3    H170016   1.459   1.094   3.474 -2.4035 -0.3968 -1.1245
16175TIP3    H270017   1.581   1.026   3.415 -0.5845  0.0718  1.8831
16176TIP3   OH270018   6.363   6.731  13.950 -0.0557  0.0453  0.6470
16176TIP3    H170019   6.346   6.789  14.024  2.2656  2.2747 -0.4309
16176TIP3    H270020   6.458   6.727  13.943 -0.1700  0.3875 -2.4936
16177TIP3   OH270021   1.327   2.702  14.221 -0.0181  0.3717  0.3964
16177TIP3    H170022   1.258   2.649  14.182 -1.5986  1.7500  1.2179
16177TIP3    H270023   1.345   2.659  14.305 -0.4967  0.4923  0.5639
16178TIP3   OH270024   4.780   6.043   3.380  0.0851 -0.2653 -0.1351
16178TIP3    H170025   4.780   6.064   3.286 -1.4080  2.3551  0.3582
16178TIP3    H270026   4.823   6.118   3.421  1.3194 -1.6865  1.2791
16179TIP3   OH270027   2.845   1.750   1.622 -0.2217 -0.2613 -0.3350
16179TIP3    H170028   2.886   1.668   1.650  1.0263  0.3556 -0.3030
16179TIP3    H270029   2.916   1.801   1.584 -0.8679  1.0398  0.1436
16180TIP3   OH270030   5.274   2.970   0.172  0.1451  0.2282  0.3784
16180TIP3    H170031   5.186   3.000   0.148  0.1335  0.3669  0.5902
16180TIP3    H270032   5.309   2.932   0.092  0.1618  0.8226  0.0971
16181TIP3   OH270033   0.407   1.470   0.934  0.0715 -0.8475 -0.1586
16181TIP3    H170034   0.481   1.411   0.931 -0.4800 -1.4983 -1.9804
16181TIP3    H270035   0.339   1.427   0.882 -0.6534  0.9698 -0.7899
16182TIP3   OH270036   3.806   6.661   0.938  0.2157 -1.1278  0.1427
16182TIP3    H170037   3.778   6.614   0.859 -3.5337  1.0603 -0.0682
16182TIP3    H270038   3.821   6.751   0.908  1.2952 -0.8092  1.5496
16183TIP3   OH270039   0.213   4.941   0.809  0.3946  0.4624 -0.1310
16183TIP3    H170040   0.150   5.012   0.803  0.1428  0.2002 -0.7048
16183TIP3    H270041   0.163   4.862   0.787  0.6017  0.0623  0.7814
16184TIP3   OH270042   1.047   6.591   0.041 -0.1803  0.6142 -0.3766
16184TIP3    H170043   1.040   6.596  -0.055  1.3131 -1.7818 -0.6846
16184TIP3    H270044   1.019   6.502   0.062 -0.1156  0.9843  1.4120
16185TIP3   OH270045   2.959   1.280   0.290 -0.2668  0.7889 -0.1774
16185TIP3    H170046   2.915   1.271   0.374 -2.7361  1.0463 -1.3365
16185TIP3    H270047   2.958   1.374   0.272  2.1285  0.9836  0.3615
16186TIP3   OH270048   0.710   4.449   4.527 -0.5812  0.2100  0.5396
16186TIP3    H170049   0.664   4.411   4.451  0.1129 -0.2755  0.3451
16186TIP3    H270050   0.671   4.535   4.538 -0.1603  0.6114 -0.8739
16187TIP3   OH270051   2.432   6.520  10.772  0.0559 -0.0844 -0.5618
16187TIP3    H170052   2.417   6.525  10.867  0.4342 -0.8180 -0.4570
16187TIP3    H270053   2.516   6.564  10.758  0.5596 -0.9585 -0.3945
16188TIP3   OH270054   5.809   4.409   4.892 -0.1008  0.3352  0.0564
16188TIP3    H170055   5.838   4.342   4.831  3.1998  0.3104  1.4038
16188TIP3    H270056   5.763   4.361   4.961 -1.3073  0.0053 -0.9660
16189TIP3   OH270057   4.958   6.280   2.040 -0.5919  0.7097  0.3384
16189TIP3    H170058   4.896   6.281   2.113 -1.3452 -0.6835 -0.2415
16189TIP3    H270059   4.927   6.349   1.981 -2.4803 -0.8104 -0.5844
16190TIP3   OH270060   5.551   0.772  14.679  0.1316 -0.4351  0.0970
16190TIP3    H170061   5.633   0.814  14.651  0.2155  0.3444  1.4352
16190TIP3    H270062   5.579   0.706  14.743 -0.2830 -0.2080  0.5115
16191TIP3   OH270063   0.485   4.160   4.415 -0.9963  0.1094 -0.2126
16191TIP3    H170064   0.429   4.224   4.371 -0.5928 -0.6789 -1.9537
16191TIP3    H270065   0.466   4.171   4.508 -1.4762  2.2268 -0.5241
16192TIP3   OH270066   3.476   3.163  12.093  0.2814 -0.4502  0.2075
16192TIP3    H170067   3.477   3.117  12.009 -0.8077 -0.6100  0.2730
16192TIP3    H270068   3.499   3.253  12.071 -1.5788 -0.1069 -0.5267
16193TIP3   OH270069   6.314   2.500   4.858  0.3062  0.0181  0.4495
16193TIP3    H170070   6.314   2.410   4.891  0.8770  0.4141  1.5939
16193TIP3    H270071   6.245   2.543   4.908  0.7881  0.4852  0.7218
16194TIP3   OH270072   4.552   5.778   6.482  0.2539 -0.4267  0.1931
16194TIP3    H170073   4.456   5.781   6.487  0.2692  1.9126  0.4695
16194TIP3    H270074   4.575   5.689   6.509 -1.8656 -1.3570 -0.8478
16195TIP3   OH270075   0.766   6.804  10.409  0.0967  0.1156  0.6271
16195TIP3    H170076   0.818   6.775  10.484 -0.5863  1.3517  1.6042
16195TIP3    H270077   0.719   6.725  10.381  1.0436 -0.5630  0.9152
16196TIP3   OH270078   6.079   3.541  13.377 -0.4224 -0.0533  0.5881
16196TIP3    H170079   6.160   3.549  13.326 -1.5534  1.9646 -1.0532
16196TIP3    H270080   6.099   3.475  13.443  2.0432 -0.7652 -0.7290
16197TIP3   OH270081   2.976   5.585  12.167 -0.6943  0.6396  0.1015
16197TIP3    H170082   3.052   5.548  12.213  0.3007  1.7141 -0.6314
16197TIP3    H270083   2.947   5.657  12.224 -1.1912  0.2214  0.3875
16198TIP3   OH270084   2.909   5.034  10.687  0.0274 -0.5267 -0.3641
16198TIP3    H170085   2.904   5.077  10.602  2.5310  0.8982  0.1234
16198TIP3    H270086   2.991   4.984  10.684 -0.2006 -1.0218  0.9715
16199TIP3   OH270087   3.123   2.673  11.432 -0.1972 -0.0353  0.1182
16199TIP3    H170088   3.087   2.723  11.505 -0.2228  0.1635 -0.0293
16199TIP3    H270089   3.199   2.629  11.468  0.2667  0.7022  0.0687
16200TIP3   OH270090   1.337   3.277   5.100  0.4280  0.3109 -0.0507
16200TIP3    H170091   1.373   3.327   5.173 -0.8190 -0.1233  0.9016
16200TIP3    H270092   1.250   3.314   5.086 -0.8003 -1.9786  1.1282
16201TIP3   OH270093   4.295   1.740   2.737  0.2944  0.1386  0.0725
16201TIP3    H170094   4.244   1.742   2.656  0.8461 -0.4330 -0.2985
16201TIP3    H270095   4.289   1.650   2.768  1.3885 -0.0385 -0.1876
16202TIP3   OH270096   4.851   2.029  14.612  0.4406 -0.3618  0.1181
16202TIP3    H170097   4.927   1.978  14.584  1.5564  1.0263  0.5230
16202TIP3    H270098   4.884   2.118  14.624 -0.8968 -0.0268  1.8006
16203TIP3   OH270099   5.034   1.450   2.286  0.0756 -0.1163 -0.1664
16203TIP3    H170100   4.970   1.514   2.254  0.2371  0.8523  1.3361
16203TIP3    H270101   5.117   1.478   2.247  0.3017  1.1517  1.1259
16204TIP3   OH270102   4.229   2.933  16.062 -0.0762 -0.1069  0.0765
16204TIP3    H170103   4.191   2.878  16.131  0.6359  0.3459  0.8584
16204TIP3    H270104   4.320   2.905  16.057 -0.1552 -0.2269 -0.7876
16205TIP3   OH270105   1.091   5.646   2.288  0.0830  0.2349  0.5080
16205TIP3    H170106   1.174   5.658   2.334  1.0800 -1.0188 -0.8719
16205TIP3    H270107   1.094   5.709   2.216  0.3014 -0.4752 -0.1181
16206TIP3   OH270108   2.004   6.492   5.333  0.4561 -0.1031 -0.5439
16206TIP3    H170109   2.050   6.572   5.308 -0.8446  0.6130 -0.6901
16206TIP3    H270110   1.917   6.500   5.294  0.1666 -1.4092 -0.2222
16207TIP3   OH270111   2.543   3.838  14.018  0.1537 -0.3041 -0.0719
16207TIP3    H170112   2.576   3.781  13.948  2.0451 -0.6505  1.0278
16207TIP3    H270113   2.463   3.877  13.982  0.3252 -1.5140 -1.8896
16208TIP3   OH270114   1.636   1.417  12.808  0.5485 -0.1426  0.4843
16208TIP3    H170115   1.565   1.353  12.798 -0.2281  0.8898 -1.2294
16208TIP3    H270116   1.592   1.497  12.836  1.0691  0.3859 -0.1644
16209TIP3   OH270117   0.869   6.361   4.791 -0.0554 -0.1298  0.0325
16209TIP3    H170118   0.818   6.442   4.797  1.1599  0.6697 -0.0470
16209TIP3    H270119   0.879   6.333   4.882 -1.5246 -0.9068 -0.0072
16210TIP3   OH270120   1.179   6.333  15.317  0.5624 -0.4352 -0.0679
16210TIP3    H170121   1.111   6.398  15.333  1.7915  0.3157  2.6660
16210TIP3    H270122   1.202   6.345  15.225 -0.8537  1.3864 -0.2425
16211TIP3   OH270123   5.364   2.518  15.425 -0.8004 -0.4633 -0.7283
16211TIP3    H170124   5.441   2.465  15.404 -0.1850  0.3769 -0.6639
16211TIP3    H270125   5.396   2.582  15.489 -1.4122  0.2628 -1.1322
16212TIP3   OH270126   4.867   6.556  17.039  0.0124 -0.8790  0.3024
16212TIP3    H170127   4.924   6.583  16.967 -1.6782  0.3077 -0.6748
16212TIP3    H270128   4.897   6.469  17.062  0.6025 -1.3277 -1.8988
16213TIP3   OH270129   1.266   1.238   3.855 -0.0636 -0.0502  0.3733
16213TIP3    H170130   1.198   1.228   3.921 -0.0736 -0.2696  0.3315
16213TIP3    H270131   1.348   1.246   3.904 -0.2261  1.1855  0.4529
16214TIP3   OH270132   1.341   3.177   3.625  0.0158  0.0768 -0.0660
16214TIP3    H170133   1.328   3.179   3.719  1.4199  0.7231  0.1282
16214TIP3    H270134   1.425   3.220   3.610 -0.4746  0.5637 -1.6682
16215TIP3   OH270135   3.352   2.207   0.352 -0.4969  0.0307 -0.5117
16215TIP3    H170136   3.311   2.276   0.300 -0.1571 -0.4439 -1.4283
16215TIP3    H270137   3.347   2.129   0.297 -0.1312 -0.4866  0.1708
16216TIP3   OH270138   2.115   0.334   4.577 -0.3963 -0.3265 -0.8294
16216TIP3    H170139   2.208   0.311   4.581 -0.1863  0.4699 -0.8548
16216TIP3    H270140   2.070   0.262   4.621  0.4947  0.6371  1.8381
16217TIP3   OH270141   1.683   3.566  11.180  0.0709  0.6717  0.2357
16217TIP3    H170142   1.596   3.535  11.153 -0.0312  1.4121 -0.3118
16217TIP3    H270143   1.711   3.623  11.109  2.1905 -1.6353 -0.9307
16218TIP3   OH270144   1.387   0.611   2.365 -0.1428  0.1389 -0.3989
16218TIP3    H170145   1.420   0.648   2.447 -2.6233  0.9720  0.3258
16218TIP3    H270146   1.465   0.580   2.319  1.2376 -2.2559  3.1334
16219TIP3   OH270147   4.061   4.768   2.968  0.0225 -0.0021 -0.2751
16219TIP3    H170148   3.965   4.770   2.962  0.1081  0.4186 -2.0833
16219TIP3    H270149   4.082   4.845   3.021 -0.6184  0.1991 -0.2987
16220TIP3   OH270150   1.465   0.627   4.728  0.0144  0.2109 -0.3597
16220TIP3    H170151   1.391   0.676   4.763 -0.7694 -0.4251 -1.1054
16220TIP3    H270152   1.484   0.668   4.644 -0.6781 -0.7695 -1.0123
16221TIP3   OH270153   6.600   2.475  15.906 -0.0924  0.1815 -0.7260
16221TIP3    H170154   6.669   2.459  15.842  1.1785 -0.1228  0.6383
16221TIP3    H270155   6.609   2.568  15.928  0.7142 -0.1166  0.3120
16222TIP3   OH270156   0.407   2.540  15.577  0.5329 -0.0221 -0.3538
16222TIP3    H170157   0.321   2.566  15.543  0.3000  1.7248  1.4183
16222TIP3    H270158   0.388   2.472  15.641  0.5994 -0.4838 -0.8184
16223TIP3   OH270159   4.181   0.164  13.370 -0.1180  0.8118 -0.4124
16223TIP3    H170160   4.174   0.216  13.450 -0.9865  0.0346  0.0252
16223TIP3    H270161   4.220   0.081  13.398 -0.2491  0.6065 -0.8253
16224TIP3   OH270162   6.083   3.861   3.025 -0.1778  0.0625  0.4523
16224TIP3    H170163   6.006   3.846   2.969 -0.6022  1.3568  0.6626
16224TIP3    H270164   6.142   3.913   2.972 -0.0281  0.2113  0.7616
16225TIP3   OH270165   2.728   4.036  14.474  0.3465  0.7926 -0.4407
16225TIP3    H170166   2.730   4.115  14.421  1.5779  1.6078  0.7594
16225TIP3    H270167   2.734   4.067  14.565 -0.3986 -0.6143  0.1320
16226TIP3   OH270168   2.257   3.910  14.010  0.0455  0.1193  0.0844
16226TIP3    H170169   2.289   3.823  14.037 -0.6088  0.0690  0.7232
16226TIP3    H270170   2.224   3.949  14.091  1.2916  1.3996  0.0163
16227TIP3   OH270171   2.126   6.388   0.222  0.5596  0.2063  0.6463
16227TIP3    H170172   2.032   6.408   0.219  0.7175  0.9905  0.4784
16227TIP3    H270173   2.150   6.401   0.314  0.6113  0.5893  0.5834
16228TIP3   OH270174   2.863   0.678  12.310  0.5218  0.4624 -0.6687
16228TIP3    H170175   2.839   0.701  12.400  0.9124  1.4795 -0.8165
16228TIP3    H270176   2.782   0.644  12.272  0.6540 -1.2737  0.4540
16229TIP3   OH270177   2.431   3.371  13.006 -0.4630 -0.4951 -0.2944
16229TIP3    H170178   2.500   3.396  13.068  0.1034  0.3711 -1.2534
16229TIP3    H270179   2.478   3.345  12.927 -1.2181  1.5784 -1.5143
16230TIP3   OH270180   6.173   3.383   2.275 -0.7838  0.1408  0.6433
16230TIP3    H170181   6.211   3.415   2.356 -0.8002  2.2796 -0.1368
16230TIP3    H270182   6.156   3.461   2.223 -2.1512 -1.0567 -0.8381
16231TIP3   OH270183   3.804   2.269   2.420  0.4050 -0.4023  0.0242
16231TIP3    H170184   3.717   2.308   2.421  1.0427  1.0917 -0.4131
16231TIP3    H270185   3.812   2.226   2.505 -1.4754 -2.2843 -0.6598
16232TIP3   OH270186   3.679   2.626  14.096 -0.3456 -0.1247  0.1495
16232TIP3    H170187   3.591   2.663  14.100 -0.5379 -0.6430  1.2694
16232TIP3    H270188   3.719   2.666  14.019 -1.8516 -0.5477 -0.8891
16233TIP3   OH270189   4.632   5.073   4.340  0.2082  0.5045 -0.6648
16233TIP3    H170190   4.556   5.016   4.332  1.8004 -1.6560 -1.2353
16233TIP3    H270191   4.706   5.014   4.356  1.8320  2.4828 -0.3421
16234TIP3   OH270192   5.719   4.881   5.892 -0.1640 -0.2551  0.7269
16234TIP3    H170193   5.786   4.915   5.951  1.1386 -1.7710  0.1957
16234TIP3    H270194   5.765   4.868   5.809 -1.1285 -1.3061  0.3405
16235TIP3   OH270195   1.368   2.284   0.906 -0.2564 -0.0887  0.1562
16235TIP3    H170196   1.302   2.332   0.957 -0.7469  0.2659 -0.7686
16235TIP3    H270197   1.352   2.313   0.816  1.0313 -0.1750 -0.1069
16236TIP3   OH270198   5.749   5.016   2.873 -0.0352  0.1660  0.0088
16236TIP3    H170199   5.762   5.018   2.779  0.5466  1.9362  0.0883
16236TIP3    H270200   5.731   4.924   2.893  1.8230 -0.6049 -1.5445
16237TIP3   OH270201   6.609   3.016  15.737 -0.2650  0.0291  0.2323
16237TIP3    H170202   6.543   3.084  15.726 -1.6354 -1.0817  1.1236
16237TIP3    H270203   6.688   3.063  15.762 -1.1110  1.3189  0.5954
16238TIP3   OH270204   1.615   0.193   5.701 -0.8119 -0.5376  0.2599
16238TIP3    H170205   1.643   0.110   5.663  1.3109  0.5090 -0.6492
16238TIP3    H270206   1.532   0.213   5.658 -1.4212 -2.1981  0.5891
16239TIP3   OH270207   0.382   4.600  15.373 -0.3259  0.3022 -0.1853
16239TIP3    H170208   0.426   4.515  15.372 -0.8940 -0.0068 -1.6435
16239TIP3    H270209   0.295   4.582  15.408 -1.3762 -0.2852 -2.8203
16240TIP3   OH270210   5.678   4.063  11.895 -0.5699 -0.5628 -0.2063
16240TIP3    H170211   5.607   4.064  11.830 -0.8411  0.1776  0.0907
16240TIP3    H270212   5.634   4.081  11.978 -0.2047 -1.3596  0.1746
16241TIP3   OH270213   0.850   6.684   2.600  0.4840 -0.0639  0.2488
16241TIP3    H170214   0.855   6.686   2.695 -1.5733  3.4581  0.4624
16241TIP3    H270215   0.834   6.592   2.579  0.1347 -0.8323  3.3465
16242TIP3   OH270216   1.269   5.539   4.705 -0.1166 -0.0260  0.0275
16242TIP3    H170217   1.350   5.589   4.704  0.1739 -0.4687  0.7725
16242TIP3    H270218   1.205   5.597   4.746  0.7876 -1.0476  3.1879
16243TIP3   OH270219   4.088   1.974   1.458 -0.1495 -0.2751 -0.4668
16243TIP3    H170220   4.094   1.890   1.503 -2.5936 -0.2921 -0.0198
16243TIP3    H270221   4.078   2.038   1.529 -1.7357 -0.0369 -0.8786
16244TIP3   OH270222   3.171   5.963  11.833  0.1440 -0.6436  0.1812
16244TIP3    H170223   3.240   6.016  11.871  0.7409 -1.1177 -0.2110
16244TIP3    H270224   3.109   6.026  11.795  0.4415 -0.2214  0.3980
16245TIP3   OH270225   4.390   6.441  14.990 -0.0610  0.2427  0.2697
16245TIP3    H170226   4.463   6.380  14.982  0.1367  0.4108  0.7036
16245TIP3    H270227   4.348   6.418  15.073  1.0628  1.7646  1.3400
16246TIP3   OH270228   0.696   0.329  11.252  0.1708  0.2283  0.2393
16246TIP3    H170229   0.728   0.343  11.163  0.3184  0.0094  0.2566
16246TIP3    H270230   0.740   0.249  11.281  2.1510  1.6360  1.4342
16247TIP3   OH270231   1.800   4.149  11.636  0.5944  0.0356  0.7522
16247TIP3    H170232   1.746   4.071  11.651 -0.8314  0.6995 -0.7221
16247TIP3    H270233   1.832   4.140  11.547  1.4414  0.5528  0.9890
16248TIP3   OH270234   1.896   1.274   5.788  0.8244  0.1442  0.4318
16248TIP3    H170235   1.982   1.235   5.803  1.0189  0.2952 -0.2772
16248TIP3    H270236   1.893   1.349   5.848  0.6669 -0.6177  1.3977
16249TIP3   OH270237   4.822   5.414  12.155  0.4974  0.4206 -0.2886
16249TIP3    H170238   4.808   5.336  12.101  0.5205  0.2690 -0.0793
16249TIP3    H270239   4.794   5.387  12.243  3.1341 -0.2675  0.4117
16250TIP3   OH270240   0.811   5.449   2.014 -0.2449  0.4845 -0.1306
16250TIP3    H170241   0.733   5.492   2.048 -0.1651  1.2622 -0.9031
16250TIP3    H270242   0.847   5.511   1.950 -0.7583 -1.1759 -2.1326
16251TIP3   OH270243   1.285   3.164   0.559 -0.1467  0.2435  0.5080
16251TIP3    H170244   1.366   3.115   0.548 -0.3311 -0.0509  0.4344
16251TIP3    H270245   1.237   3.117   0.627 -0.0333  0.7155  0.9197
16252TIP3   OH270246   4.437   5.628  15.369 -0.3643 -0.1270  0.2324
16252TIP3    H170247   4.436   5.723  15.376 -1.3896 -0.1190  0.2222
16252TIP3    H270248   4.462   5.611  15.278 -0.2955  0.1423  0.1996
16253TIP3   OH270249   6.472   5.301   2.165 -0.2227  0.1842  0.0886
16253TIP3    H170250   6.531   5.247   2.217 -2.9258 -0.6714  2.5331
16253TIP3    H270251   6.472   5.386   2.210  3.3143  2.2709 -3.2107
16254TIP3   OH270252   1.033   1.554   4.939  0.3764 -0.1271  0.3716
16254TIP3    H170253   0.977   1.478   4.951 -0.2594  0.2180 -0.2772
16254TIP3    H270254   1.029   1.572   4.845  0.2536  0.8938  0.5552
16255TIP3   OH270255   4.055   5.026   1.537  0.1013  0.1376 -0.1078
16255TIP3    H170256   4.131   5.059   1.585  0.2207 -0.4672  0.1270
16255TIP3    H270257   4.033   4.944   1.580  0.5713 -0.7184 -1.4528
16256TIP3   OH270258   2.052   1.576   0.553 -0.1588 -0.4279  0.4492
16256TIP3    H170259   2.005   1.655   0.528  0.1729  0.4581  2.4399
16256TIP3    H270260   1.984   1.513   0.575 -0.4337 -0.8849 -1.4710
16257TIP3   OH270261   2.109   2.759   5.024  0.3190 -0.3489  0.2705
16257TIP3    H170262   2.037   2.700   5.003 -0.6518  0.8412  0.1412
16257TIP3    H270263   2.125   2.807   4.943  0.5217  0.1582  0.6081
16258TIP3   OH270264   5.548   4.219  15.512  0.4847  0.5143 -0.9651
16258TIP3    H170265   5.572   4.227  15.605  0.6534  1.6468 -1.0985
16258TIP3    H270266   5.632   4.217  15.466  0.3898  0.4176 -1.1349
16259TIP3   OH270267   6.583   0.306  14.355 -0.6826  0.1266 -0.0441
16259TIP3    H170268   6.631   0.244  14.409  1.4623  2.8589  1.4639
16259TIP3    H270269   6.496   0.311  14.395 -0.3853 -0.7917  0.7388
16260TIP3   OH270270   2.733   2.027  10.833 -0.5048 -0.9734  0.0402
16260TIP3    H170271   2.824   2.036  10.861 -0.5829 -0.2791  0.0913
16260TIP3    H270272   2.737   1.977  10.752 -0.1589 -1.7628  0.5337
16261TIP3   OH270273   3.790   3.852   4.019  0.2880 -0.2939  1.2348
16261TIP3    H170274   3.762   3.931   3.973  0.1708 -0.3716  1.1745
16261TIP3    H270275   3.765   3.867   4.110  3.0820  1.1413  1.8944
16262TIP3   OH270276   3.293   3.806  11.272 -0.4457 -0.1077 -0.2164
16262TIP3    H170277   3.242   3.727  11.290 -1.3405  0.2035 -1.2762
16262TIP3    H270278   3.231   3.867  11.234 -0.2315  1.8856  2.3700
16263TIP3   OH270279   1.489   4.626  16.690 -0.2098  0.1587 -0.8153
16263TIP3    H170280   1.435   4.573  16.748  1.2232  0.0638  0.4833
16263TIP3    H270281   1.519   4.565  16.622 -1.1294  0.0551 -1.1430
16264TIP3   OH270282   2.201   6.464  13.090 -0.6170  0.6532 -0.1459
16264TIP3    H170283   2.275   6.523  13.074 -0.2136  0.5489  1.1751
16264TIP3    H270284   2.240   6.377  13.090 -1.2146  0.3452 -2.1175
16265TIP3   OH270285   1.643   1.171   5.410 -0.2573 -0.3062 -0.3062
16265TIP3    H170286   1.644   1.225   5.489  0.6450  1.7983 -1.6409
16265TIP3    H270287   1.721   1.117   5.416 -1.7419 -2.3881  1.5735
16266TIP3   OH270288   1.564   2.005  16.768 -0.4628 -0.6467  0.3005
16266TIP3    H170289   1.471   2.031  16.766 -0.5106 -0.6440  1.6580
16266TIP3    H270290   1.568   1.927  16.714 -0.9767  0.1792 -0.9735
16267TIP3   OH270291   4.579   3.465   1.400  0.2853 -0.3771 -0.5917
16267TIP3    H170292   4.584   3.474   1.305  1.1044  0.7055 -0.4671
16267TIP3    H270293   4.596   3.373   1.418 -2.6605 -1.2494 -1.6529
16268TIP3   OH270294   2.971   2.601   4.821 -0.3383  0.0530  0.0703
16268TIP3    H170295   2.994   2.663   4.751 -0.5410 -0.2457 -0.2624
16268TIP3    H270296   2.890   2.636   4.858 -0.5269 -0.0904 -0.2091
16269TIP3   OH270297   1.935   0.782   0.474  0.8811 -0.1992 -0.6785
16269TIP3    H170298   2.008   0.814   0.528 -1.3923  0.7134  2.0942
16269TIP3    H270299   1.897   0.862   0.437  0.8792 -0.6212 -1.6016
16270TIP3   OH270300   2.380   5.436  14.798 -0.5190 -0.2749 -0.0040
16270TIP3    H170301   2.432   5.395  14.867 -0.6700 -0.0613  0.2426
16270TIP3    H270302   2.388   5.378  14.723 -1.9204 -1.5537  0.7764
16271TIP3   OH270303   5.605   2.944  14.901 -0.2721 -0.4283 -0.1218
16271TIP3    H170304   5.642   2.895  14.827  2.1578 -0.4532  1.0157
16271TIP3    H270305   5.612   2.883  14.975 -1.0995  0.1882  0.4757
16272TIP3   OH270306   1.611   0.583   1.259 -0.5592  0.2595 -0.0510
16272TIP3    H170307   1.664   0.597   1.338 -0.9870  0.8135  0.1442
16272TIP3    H270308   1.593   0.489   1.259  1.4588 -0.1768 -0.7957
16273TIP3   OH270309   2.216   5.472  13.246  0.2831  0.4037  0.0474
16273TIP3    H170310   2.163   5.536  13.295  2.3561  1.6317  0.8315
16273TIP3    H270311   2.207   5.498  13.155 -1.1045  0.0636  0.0712
16274TIP3   OH270312   5.759   0.186   0.950 -0.2023 -0.3334 -0.2460
16274TIP3    H170313   5.802   0.138   0.879  1.3853  2.6578 -1.4548
16274TIP3    H270314   5.813   0.168   1.027 -0.6797 -1.8322 -0.2140
16275TIP3   OH270315   2.038   1.481   2.137  0.7883  0.0932  0.2028
16275TIP3    H170316   2.021   1.495   2.044 -0.1150  0.7180  0.4433
16275TIP3    H270317   2.045   1.386   2.147 -2.9212 -0.3381  0.0693
16276TIP3   OH270318   6.724   2.299  10.680  0.0586  0.6884  0.0257
16276TIP3    H170319   6.803   2.264  10.722 -0.7112  0.0180  0.9774
16276TIP3    H270320   6.752   2.382  10.642  0.8922  1.1936  1.6393
16277TIP3   OH270321   5.513   2.852   5.913  0.3129 -0.0849  0.2419
16277TIP3    H170322   5.481   2.919   5.974  0.1829 -0.3864  0.5105
16277TIP3    H270323   5.434   2.807   5.883  0.3355  0.3591 -0.5115
16278TIP3   OH270324   3.804   2.118  16.748  0.0005 -0.6605 -0.8611
16278TIP3    H170325   3.874   2.149  16.804 -2.5038  1.9535  1.1306
16278TIP3    H270326   3.787   2.029  16.778 -0.3685  0.2023  1.7670
16279TIP3   OH270327   3.309   6.726   1.304  0.0176  0.1733 -0.2678
16279TIP3    H170328   3.375   6.794   1.321  0.6231 -0.2591 -0.8107
16279TIP3    H270329   3.322   6.704   1.211  0.1895 -1.0498  0.0319
16280TIP3   OH270330   2.305   0.736  16.100  0.4238  0.1734 -0.3193
16280TIP3    H170331   2.258   0.814  16.129  1.4015  0.3230  0.9330
16280TIP3    H270332   2.398   0.759  16.110  0.7294 -1.0116 -0.3102
16281TIP3   OH270333   4.690   2.123   2.674  0.7016 -0.0140 -0.2801
16281TIP3    H170334   4.770   2.119   2.727  0.8195 -3.3518 -0.5093
16281TIP3    H270335   4.640   2.047   2.702 -1.5918  0.9751 -1.4780
16282TIP3   OH270336   1.290   2.383   0.675  0.1664  0.0890  0.1150
16282TIP3    H170337   1.195   2.373   0.682  0.2722 -1.0408  0.1112
16282TIP3    H270338   1.303   2.475   0.651 -1.1063 -0.5027 -3.4168
16283TIP3   OH270339   2.754   3.826   3.960  0.1059  0.6225 -0.3272
16283TIP3    H170340   2.773   3.871   4.042 -0.2683  2.5957 -1.2670
16283TIP3    H270341   2.808   3.747   3.963 -0.2648  0.3749  2.0057
16284TIP3   OH270342   5.651   5.162   5.124 -0.3821  0.8095 -0.0268
16284TIP3    H170343   5.706   5.093   5.087  0.4154  0.9647  0.8157
16284TIP3    H270344   5.584   5.178   5.058 -1.3017 -1.5826  0.2313
16285TIP3   OH270345   1.848   3.345   3.669  0.0335  0.3050 -0.2908
16285TIP3    H170346   1.935   3.319   3.639 -0.1651 -0.9172  0.1128
16285TIP3    H270347   1.811   3.265   3.707 -0.4617  1.3133  1.4580
16286TIP3   OH270348   1.531   4.977   6.212 -0.7694  0.1159 -0.1463
16286TIP3    H170349   1.514   4.950   6.302 -1.8380 -3.5690 -1.2896
16286TIP3    H270350   1.600   4.918   6.181 -0.6035  1.1136 -1.8338
16287TIP3   OH270351   3.974   0.210   3.886  0.3414 -0.1216  0.4770
16287TIP3    H170352   3.907   0.222   3.953  0.0273  2.0248 -0.1414
16287TIP3    H270353   3.926   0.206   3.804  0.8346 -1.1368  0.2191
16288TIP3   OH270354   3.939   6.138  14.119  0.4209  0.8302  0.2401
16288TIP3    H170355   4.015   6.195  14.115  1.6806 -0.6947  1.3025
16288TIP3    H270356   3.906   6.148  14.208  0.4126  0.2141  0.3090
16289TIP3   OH270357   2.715   6.419   0.487 -0.0667 -0.7899 -0.3891
16289TIP3    H170358   2.621   6.434   0.490 -0.2649 -2.0268  0.1150
16289TIP3    H270359   2.724   6.326   0.470  1.0251 -1.2249  2.0526
16290TIP3   OH270360   4.625   3.627   1.898  0.0628 -0.7935  0.4800
16290TIP3    H170361   4.658   3.577   1.823 -1.2501 -0.5221 -0.3170
16290TIP3    H270362   4.699   3.634   1.957  1.2543 -0.6844 -0.9712
16291TIP3   OH270363   5.954   3.799   1.999 -0.0165 -0.1025 -0.3302
16291TIP3    H170364   5.972   3.773   2.089 -0.1285  2.2789  0.4429
16291TIP3    H270365   6.031   3.771   1.950 -0.1207 -1.7682  0.3924
16292TIP3   OH270366   0.122   2.726   4.698  0.3918  0.3145 -0.2486
16292TIP3    H170367   0.063   2.795   4.728 -1.0837 -0.9576 -0.0981
16292TIP3    H270368   0.099   2.649   4.750  1.9985 -0.3263 -0.3974
16293TIP3   OH270369   4.512   0.843  13.593  0.0063 -0.2543 -0.3205
16293TIP3    H170370   4.555   0.865  13.675  0.6532 -3.1001  0.2258
16293TIP3    H270371   4.578   0.858  13.525  0.2655 -0.1330 -0.0391
16294TIP3   OH270372   1.977   3.176  16.487  0.1003 -0.1745  0.7017
16294TIP3    H170373   1.980   3.259  16.535 -1.5318  0.1858  0.2740
16294TIP3    H270374   1.972   3.203  16.395 -2.1159 -0.6222  0.6251
16295TIP3   OH270375   6.326   2.271   5.022 -0.4057  0.3564 -0.1416
16295TIP3    H170376   6.417   2.281   4.996 -0.1485 -0.9909  0.1795
16295TIP3    H270377   6.328   2.214   5.099 -1.6404 -1.4943 -1.4004
16296TIP3   OH270378   3.585   0.617   0.198  0.1523 -0.0900 -0.2541
16296TIP3    H170379   3.664   0.573   0.168 -0.3791  0.5601 -2.8656
16296TIP3    H270380   3.558   0.672   0.124 -2.9591 -0.6153  0.3258
16297TIP3   OH270381   2.872   6.715  15.613  0.2157 -0.0956  0.1059
16297TIP3    H170382   2.833   6.697  15.528  2.4940 -1.9850 -0.6774
16297TIP3    H270383   2.917   6.799  15.602  1.8324 -1.0597 -1.1723
16298TIP3   OH270384   2.506   3.757  13.241  0.3711  0.0098 -0.4524
16298TIP3    H170385   2.562   3.682  13.223  1.0868  0.4597 -0.1555
16298TIP3    H270386   2.566   3.827  13.266 -0.2364  0.8500 -1.2584
16299TIP3   OH270387   4.068   5.871   5.343  0.2363 -0.0402  0.3334
16299TIP3    H170388   4.036   5.885   5.254  0.1588  0.6004  0.4604
16299TIP3    H270389   4.010   5.924   5.398 -1.0791 -2.0653  1.0078
16300TIP3   OH270390   0.569   6.011  14.939  0.5382  0.2476 -0.0525
16300TIP3    H170391   0.482   6.050  14.938 -0.6383 -2.2529 -1.2371
16300TIP3    H270392   0.574   5.966  15.023 -0.2675 -1.5338 -0.9218
16301TIP3   OH270393   1.904   3.005  16.993 -0.7721  0.2223  0.0480
16301TIP3    H170394   1.993   2.986  16.964 -1.1864 -2.2128  0.1450
16301TIP3    H270395   1.912   3.020  17.087 -0.6377 -1.6761  0.3658
16302TIP3   OH270396   3.354   3.989  14.490  0.1998  0.0351  0.3915
16302TIP3    H170397   3.404   3.908  14.479  1.4992  0.7647  0.7820
16302TIP3    H270398   3.292   3.988  14.417  0.6076 -1.0156  0.0382
16303TIP3   OH270399   3.586   4.315   3.395  0.3965  0.3644 -0.2359
16303TIP3    H170400   3.603   4.359   3.478 -2.2682  0.4619  0.3577
16303TIP3    H270401   3.570   4.386   3.333 -0.7948  0.2917 -0.0316
16304TIP3   OH270402   1.620   1.237  11.158 -0.3493  0.5399  0.3900
16304TIP3    H170403   1.648   1.281  11.078 -0.1505 -1.9978 -1.0418
16304TIP3    H270404   1.535   1.199  11.137 -0.1166 -0.5087  1.2127
16305TIP3   OH270405   6.024   1.640   1.935 -0.3101  0.4918 -0.6822
16305TIP3    H170406   6.001   1.643   1.842 -0.4697  0.2123 -0.6503
16305TIP3    H270407   5.957   1.694   1.978  0.1850  1.2280 -0.8136
16306TIP3   OH270408   6.641   5.529  13.427 -0.4928  0.3963  0.0309
16306TIP3    H170409   6.719   5.517  13.373 -0.9121 -0.6317 -0.3758
16306TIP3    H270410   6.662   5.485  13.509 -0.7180 -0.0944 -0.1673
16307TIP3   OH270411   6.681   0.471   4.075 -0.2321  0.0825  0.4945
16307TIP3    H170412   6.773   0.482   4.100 -0.2659  2.6998 -0.2149
16307TIP3    H270413   6.632   0.504   4.150 -0.6597 -1.5025  0.9586
16308TIP3   OH270414   6.803   6.799  16.884 -0.3968 -0.5260  0.8038
16308TIP3    H170415   6.845   6.721  16.919 -0.7172 -1.0408  0.0773
16308TIP3    H270416   6.783   6.852  16.961  0.1277 -1.0012  1.2805
16309TIP3   OH270417   5.659   6.070   5.607 -0.0832  0.3987  0.3799
16309TIP3    H170418   5.695   6.119   5.533 -2.3853 -0.9057 -1.7497
16309TIP3    H270419   5.703   5.985   5.603 -0.3630  0.2539  0.3821
16310TIP3   OH270420   1.856   0.033  11.560  0.3441  0.4803 -0.5411
16310TIP3    H170421   1.865   0.103  11.625 -2.1454 -1.9734  2.7711
16310TIP3    H270422   1.768   0.045  11.525  0.8031  0.3555 -1.7942
16311TIP3   OH270423   3.918   0.503   5.705 -0.2043  0.3808  0.5838
16311TIP3    H170424   3.865   0.512   5.784  0.5979 -0.3135  1.2205
16311TIP3    H270425   3.862   0.454   5.645 -0.1046 -0.8383  1.4464
16312TIP3   OH270426   0.450   5.510   3.440  0.4821 -0.2819 -0.9149
16312TIP3    H170427   0.362   5.523   3.405  0.7934 -0.7568 -1.9447
16312TIP3    H270428   0.461   5.415   3.441  0.6116 -0.2673  0.2136
16313TIP3   OH270429   3.257   0.624  16.700  0.2758 -0.0023 -0.2374
16313TIP3    H170430   3.163   0.636  16.686  0.2958 -0.2031 -0.5483
16313TIP3    H270431   3.291   0.598  16.614  0.4352 -1.0752  0.1421
16314TIP3   OH270432   3.038   3.417   0.678 -0.3622  0.2496 -0.3368
16314TIP3    H170433   3.047   3.464   0.761  1.5469 -2.4485  1.1390
16314TIP3    H270434   3.077   3.476   0.613  0.6444  1.3339  1.1658
16315TIP3   OH270435   2.577   3.440   4.230 -0.2333  0.2930 -0.0474
16315TIP3    H170436   2.573   3.346   4.217 -0.2979  0.1967  0.6394
16315TIP3    H270437   2.622   3.451   4.313 -1.6566  0.8025  0.6876
16316TIP3   OH270438   4.522   6.389  12.364 -0.3301  0.1973 -0.0104
16316TIP3    H170439   4.454   6.454  12.342  1.2610  1.5845 -1.1243
16316TIP3    H270440   4.592   6.406  12.301  0.0762 -2.8210 -0.5073
16317TIP3   OH270441   1.324   3.176  14.138  0.2991  0.0804  0.1311
16317TIP3    H170442   1.365   3.150  14.221 -0.8541  0.9002  0.9813
16317TIP3    H270443   1.310   3.093  14.092  0.6900 -0.4138  0.8766
16318TIP3   OH270444   5.110   5.053  10.623  0.6675  0.3382 -0.0235
16318TIP3    H170445   5.127   5.147  10.632  1.1534  0.1827  0.8455
16318TIP3    H270446   5.028   5.039  10.670  0.5067  0.3516 -0.2979
16319TIP3   OH270447   5.594   6.450  16.199  0.2545  0.1419  0.3484
16319TIP3    H170448   5.543   6.389  16.147 -1.1813  0.9619  0.7359
16319TIP3    H270449   5.573   6.536  16.163  1.7222  0.4701  0.2369
16320TIP3   OH270450   1.609   6.818  15.485  0.0998 -0.7460 -0.0440
16320TIP3    H170451   1.574   6.896  15.528 -1.4723 -0.2900 -2.0091
16320TIP3    H270452   1.697   6.808  15.521  0.3515  1.9295  0.2688
16321TIP3   OH270453   2.120   5.784   3.597  0.0725  0.2375 -0.0977
16321TIP3    H170454   2.114   5.820   3.685  0.2587  0.4591 -0.1762
16321TIP3    H270455   2.197   5.727   3.599 -0.7896 -0.9417  0.3069
16322TIP3   OH270456   3.970   0.214   3.057 -0.2306 -0.2711  0.3330
16322TIP3    H170457   3.927   0.286   3.103  0.1903  1.0363 -1.2357
16322TIP3    H270458   3.986   0.248   2.969  1.0359 -1.8851 -0.1039
16323TIP3   OH270459   0.616   1.325  15.984  0.0287 -0.0387 -0.1604
16323TIP3    H170460   0.674   1.264  15.938  1.3099  1.0314 -0.0558
16323TIP3    H270461   0.652   1.412  15.963  0.4227  0.5229  2.4676
16324TIP3   OH270462   2.776   4.136  12.824 -0.1370  0.3920  0.0534
16324TIP3    H170463   2.797   4.157  12.915 -0.8714 -2.8312  1.1154
16324TIP3    H270464   2.847   4.078  12.796 -0.3524  0.6762 -1.1316
16325TIP3   OH270465   4.442   1.155  11.274 -0.0222  0.1076 -0.1127
16325TIP3    H170466   4.385   1.145  11.199  0.2687  1.3616 -0.5314
16325TIP3    H270467   4.528   1.173  11.237 -0.2128  2.5948  0.4419
16326TIP3   OH270468   4.956   3.415  15.753 -0.0063 -0.3197  0.4417
16326TIP3    H170469   4.949   3.485  15.817  3.6999 -0.2233  0.9253
16326TIP3    H270470   4.875   3.365  15.764 -0.4769  0.9132  3.6914
16327TIP3   OH270471   5.683   4.133  13.047  0.7475  0.2063  0.4047
16327TIP3    H170472   5.703   4.219  13.009  2.1708 -0.2633  0.0509
16327TIP3    H270473   5.727   4.070  12.990 -0.9143 -0.8452  0.2093
16328TIP3   OH270474   5.412   5.884   2.794  0.2464  0.6202 -0.4404
16328TIP3    H170475   5.423   5.877   2.889  0.1254  0.8598 -0.4078
16328TIP3    H270476   5.319   5.867   2.779  0.2787  0.5149 -0.5228
16329TIP3   OH270477   1.349   4.146   3.359  0.4622 -0.2099  0.7869
16329TIP3    H170478   1.294   4.149   3.280 -0.3349 -1.7263  1.2382
16329TIP3    H270479   1.309   4.210   3.418 -1.0689 -1.4910  1.2157
16330TIP3   OH270480   2.276   1.963   1.533 -0.1158 -0.1903  0.4921
16330TIP3    H170481   2.307   2.053   1.540  0.0079 -0.2650  0.9938
16330TIP3    H270482   2.212   1.965   1.462  1.3059 -0.1222 -0.8347
16331TIP3   OH270483   1.888   5.371   5.241 -0.5839  0.5544 -0.5003
16331TIP3    H170484   1.823   5.352   5.309  1.4614  0.6164  1.5884
16331TIP3    H270485   1.935   5.289   5.229 -0.7226  0.6293 -1.6712
16332TIP3   OH270486   5.318   0.145   2.473  0.3946 -0.0594 -0.4291
16332TIP3    H170487   5.228   0.171   2.491  0.3592 -0.8021  0.5755
16332TIP3    H270488   5.364   0.228   2.459  0.0089  0.5116  1.3451
16333TIP3   OH270489   6.468   2.448   0.845  0.3611 -0.3835 -0.3436
16333TIP3    H170490   6.455   2.463   0.752 -1.3655 -0.2851 -0.1181
16333TIP3    H270491   6.431   2.525   0.888 -1.6849 -1.7314  0.5039
16334TIP3   OH270492   6.359   5.543  13.984  0.3987  0.6235  0.4849
16334TIP3    H170493   6.424   5.501  14.040 -0.1695 -0.8266  0.0961
16334TIP3    H270494   6.317   5.608  14.041  2.1549  1.5916  0.7301
16335TIP3   OH270495   1.296   6.576   4.245 -0.3320 -0.5000  0.6383
16335TIP3    H170496   1.307   6.594   4.152 -2.6427  2.2272  0.7462
16335TIP3    H270497   1.358   6.634   4.289  0.5421 -1.5633  0.8449
16336TIP3   OH270498   2.960   6.579  17.090  0.3070  0.0957  0.0648
16336TIP3    H170499   3.025   6.623  17.035  0.3054 -1.4432 -1.2574
16336TIP3    H270500   2.958   6.489  17.057 -3.4006  0.3559 -0.8143
16337TIP3   OH270501   6.190   5.144   5.059  0.1838 -0.5779 -0.0188
16337TIP3    H170502   6.128   5.210   5.091  1.2674 -0.7702  2.7665
16337TIP3    H270503   6.275   5.186   5.065  0.7357 -1.7085  0.3077
16338TIP3   OH270504   2.209   0.438   0.818  0.7110  0.5303  0.4869
16338TIP3    H170505   2.283   0.393   0.858  0.1344  0.0527  1.0434
16338TIP3    H270506   2.166   0.371   0.765  0.5311  0.7332  0.3736
16339TIP3   OH270507   1.614   4.610  11.369  0.3760  0.4271  0.0442
16339TIP3    H170508   1.621   4.587  11.462  0.4562 -0.4861 -0.1787
16339TIP3    H270509   1.581   4.531  11.327  1.3719  0.4733 -0.8666
16340TIP3   OH270510   2.152   4.454   2.361  0.2176  0.0526  0.4145
16340TIP3    H170511   2.197   4.370   2.374 -0.0424  0.1059  1.7439
16340TIP3    H270512   2.065   4.430   2.329 -0.1266 -0.2326  1.5400
16341TIP3   OH270513   5.561   5.736  14.543 -0.5369 -0.6442  0.7898
16341TIP3    H170514   5.618   5.811  14.529 -1.0429  0.1224  2.5563
16341TIP3    H270515   5.597   5.692  14.620 -0.7355 -1.7581  0.2720
16342TIP3   OH270516   3.558   0.262   1.620 -0.4455  0.2749 -0.4804
16342TIP3    H170517   3.580   0.209   1.697 -2.4028 -0.1758 -0.1986
16342TIP3    H270518   3.641   0.303   1.596  0.3464 -0.0114  1.5333
16343TIP3   OH270519   6.670   3.937   0.255 -0.0323  0.1742  0.1314
16343TIP3    H170520   6.676   4.007   0.320  0.0935 -0.3891  0.7359
16343TIP3    H270521   6.722   3.865   0.292 -1.0995 -0.6551  0.0770
16344TIP3   OH270522   4.002   1.517   2.807  0.2971 -0.2741  0.3776
16344TIP3    H170523   3.969   1.445   2.753 -2.1343  0.0848  1.2448
16344TIP3    H270524   3.943   1.590   2.788 -0.6792 -0.1209  3.4101
16345TIP3   OH270525   2.690   0.023   4.058 -0.2220  0.0673 -0.3957
16345TIP3    H170526   2.679  -0.034   3.982 -1.3502 -0.3988  0.0945
16345TIP3    H270527   2.724  -0.034   4.127 -2.3842 -0.3344  0.4232
16346TIP3   OH270528   0.974   0.409   0.582  0.0334 -0.0036 -0.1849
16346TIP3    H170529   0.910   0.339   0.594  0.8593 -0.7549 -0.0564
16346TIP3    H270530   1.014   0.420   0.668  0.8658 -0.3351 -0.5142
16347TIP3   OH270531   1.492   2.247  14.635  0.0746  0.2112 -0.1740
16347TIP3    H170532   1.424   2.233  14.569  1.5563 -2.9801 -1.2088
16347TIP3    H270533   1.538   2.326  14.605 -2.4341  1.8855  0.0390
16348TIP3   OH270534   6.669   3.655   1.223 -0.7816 -0.1162 -0.0208
16348TIP3    H170535   6.593   3.616   1.179 -0.5195  1.7208 -2.3017
16348TIP3    H270536   6.742   3.599   1.197 -0.8173  0.2683 -1.0064
16349TIP3   OH270537   5.329   5.912  15.830 -0.1642  0.3156 -0.3138
16349TIP3    H170538   5.376   5.992  15.853  0.4339  0.2385 -1.2218
16349TIP3    H270539   5.371   5.881  15.749 -1.0215 -0.3834 -0.5126
16350TIP3   OH270540   6.306   2.522  10.944  0.4106  0.1966  0.0223
16350TIP3    H170541   6.244   2.499  11.012  0.0604 -2.1880 -1.0100
16350TIP3    H270542   6.253   2.569  10.879  0.1722  0.0916  0.1388
16351TIP3   OH270543   6.454   1.745   3.302 -0.0699  0.2735 -0.0948
16351TIP3    H170544   6.545   1.755   3.330 -0.1752 -0.3244  0.4704
16351TIP3    H270545   6.408   1.717   3.381 -0.5525 -0.4658 -0.6345
16352TIP3   OH270546   4.183   2.653  15.291 -0.1218  0.0421  0.4484
16352TIP3    H170547   4.157   2.566  15.260 -2.5731  0.6906  0.4472
16352TIP3    H270548   4.165   2.711  15.217  0.7258  0.6645  0.7193
16353TIP3   OH270549   3.146   5.610  15.541  0.1201  0.3040 -0.1889
16353TIP3    H170550   3.234   5.582  15.516  0.4208  0.2548  0.8909
16353TIP3    H270551   3.088   5.545  15.501  0.6830 -0.6666  0.5403
16354TIP3   OH270552   5.385   5.827   1.566 -0.5870 -0.7019 -0.8402
16354TIP3    H170553   5.413   5.873   1.486  0.4695  0.8962  0.3804
16354TIP3    H270554   5.440   5.749   1.569  0.0524 -0.2770 -1.1956
16355TIP3   OH270555   3.994   0.456  16.198 -1.0922 -0.5328  0.4933
16355TIP3    H170556   4.008   0.407  16.117  1.1217 -1.1004  1.1734
16355TIP3    H270557   3.942   0.532  16.170 -3.8000 -2.6375 -0.7414
16356TIP3   OH270558   2.986   0.997   3.397  0.0959 -0.0790 -0.1518
16356TIP3    H170559   2.909   1.049   3.373  0.1023 -0.4590 -1.0317
16356TIP3    H270560   2.978   0.917   3.346  0.7681 -0.3778  0.2003
16357TIP3   OH270561   6.021   1.212   0.627 -0.1062  0.3026 -0.5361
16357TIP3    H170562   5.983   1.162   0.700 -1.7207  1.5880 -0.4119
16357TIP3    H270563   5.966   1.190   0.552  0.3630  0.4214 -0.9162
16358TIP3   OH270564   1.883   2.366   2.921 -0.2758 -0.3949  0.2389
16358TIP3    H170565   1.963   2.320   2.947  0.2983  0.6284  0.3109
16358TIP3    H270566   1.825   2.296   2.889  0.1561 -1.2938  1.3554
16359TIP3   OH270567   0.811   3.109  16.566 -0.0609 -0.1397  0.0455
16359TIP3    H170568   0.724   3.075  16.545  0.9296 -1.3295 -2.5413
16359TIP3    H270569   0.798   3.203  16.577 -1.6200 -0.2417 -0.7094
16360TIP3   OH270570   0.494   2.208  13.148  0.0808 -0.3063  0.0244
16360TIP3    H170571   0.543   2.126  13.151  2.5994  1.0558 -0.6694
16360TIP3    H270572   0.421   2.191  13.088  0.5595 -2.0178 -0.1148
16361TIP3   OH270573   5.828   2.062  12.754 -0.4429 -0.8822 -0.1659
16361TIP3    H170574   5.828   2.145  12.802  1.5017  0.6036 -2.5034
16361TIP3    H270575   5.766   2.007  12.801 -2.7006  2.2623  0.8634
16362TIP3   OH270576   5.545   0.024  16.439  0.0562  0.8152 -1.1011
16362TIP3    H170577   5.517  -0.007  16.525  2.3663 -1.9861 -1.2343
16362TIP3    H270578   5.473  -0.001  16.381 -0.4266  0.5085 -0.3927
16363TIP3   OH270579   5.919   1.342  15.908 -0.2210  0.4926  0.2796
16363TIP3    H170580   5.832   1.311  15.884 -0.0401  1.0587 -1.1724
16363TIP3    H270581   5.958   1.268  15.955  0.1952 -1.5751 -3.0359
16364TIP3   OH270582   4.151   2.415   0.801 -0.4138  0.8310 -0.2837
16364TIP3    H170583   4.166   2.500   0.758 -1.2083  1.1440  0.0456
16364TIP3    H270584   4.112   2.437   0.885  1.1234  0.2168  0.6364
16365TIP3   OH270585   3.527   3.239  16.388  0.3222 -0.1091  0.1003
16365TIP3    H170586   3.503   3.224  16.479  0.0111 -0.6292 -0.0610
16365TIP3    H270587   3.494   3.161  16.342  0.6687  0.0475 -0.4171
16366TIP3   OH270588   1.672   3.348  11.319  0.0419 -0.2013  0.0897
16366TIP3    H170589   1.705   3.414  11.259 -0.4926 -0.0020  0.0059
16366TIP3    H270590   1.743   3.334  11.382  0.1828  0.4018  0.0669
16367TIP3   OH270591   3.355   2.119   4.818  0.5544  0.1906 -0.3686
16367TIP3    H170592   3.437   2.102   4.865  1.2783 -0.1441 -1.6910
16367TIP3    H270593   3.287   2.081   4.874  1.5448 -1.7278 -0.3671
16368TIP3   OH270594   3.673   2.295  17.064  0.5256 -0.2055  0.0615
16368TIP3    H170595   3.655   2.356  16.993  1.3378 -0.5567 -0.4644
16368TIP3    H270596   3.757   2.256  17.041  0.8469 -0.2564  1.2717
16369TIP3   OH270597   1.137   4.041   4.245 -0.0297 -0.0966 -0.4404
16369TIP3    H170598   1.069   3.974   4.250  1.9078 -2.2638 -1.0045
16369TIP3    H270599   1.131   4.074   4.155  1.0612 -1.9858 -1.2801
16370TIP3   OH270600   0.817   4.529   0.027  0.1705 -0.2794  0.1612
16370TIP3    H170601   0.892   4.588   0.030  0.0900 -0.1996  0.7430
16370TIP3    H270602   0.758   4.569  -0.038  0.7442 -0.4893 -0.4969
16371TIP3   OH270603   6.724   2.011   4.933  0.5779 -0.0703 -0.3426
16371TIP3    H170604   6.636   2.043   4.916 -0.1057 -0.6845  1.7298
16371TIP3    H270605   6.781   2.084   4.907 -0.7168  1.4378  0.8280
16372TIP3   OH270606   4.320   6.754  13.593  0.3225  0.4314  0.0211
16372TIP3    H170607   4.346   6.821  13.656  1.9880  0.6645 -0.8506
16372TIP3    H270608   4.398   6.700  13.581 -0.3778 -0.4328 -0.8206
16373TIP3   OH270609   5.565   1.367   3.191  0.5719 -0.1031  0.0772
16373TIP3    H170610   5.618   1.445   3.176  0.0257  0.0798 -0.9912
16373TIP3    H270611   5.587   1.340   3.280  2.9016 -0.3830 -0.5089
16374TIP3   OH270612   1.821   0.784   2.295  0.0606  0.0804 -0.2116
16374TIP3    H170613   1.902   0.832   2.276  0.6019 -1.0773 -1.0435
16374TIP3    H270614   1.827   0.706   2.239 -1.2343 -0.4517  0.3539
16375TIP3   OH270615   1.445   2.314  13.633 -0.3134  0.2037  0.1919
16375TIP3    H170616   1.459   2.397  13.679 -0.2433  0.4137 -0.2038
16375TIP3    H270617   1.436   2.249  13.703  1.2524  0.2826  0.5075
16376TIP3   OH270618   6.385   5.269   4.701 -0.6624 -0.1445  0.3968
16376TIP3    H170619   6.368   5.349   4.652 -0.8634 -1.0609 -1.0824
16376TIP3    H270620   6.303   5.220   4.697 -0.1746 -0.9645  0.2373
16377TIP3   OH270621   4.738   4.285   6.036  0.2636  0.8803  0.1071
16377TIP3    H170622   4.728   4.376   6.065 -1.8916 -0.1755  3.1669
16377TIP3    H270623   4.698   4.284   5.949 -0.0676  2.7729  0.1889
16378TIP3   OH270624   2.082   6.410  11.392 -0.2914  0.1928  0.4166
16378TIP3    H170625   2.106   6.499  11.418 -0.1215  0.0157  0.8864
16378TIP3    H270626   2.023   6.380  11.462 -0.7848  0.1313 -0.0231
16379TIP3   OH270627   3.887   1.286   1.399 -0.2062  0.2166 -0.2613
16379TIP3    H170628   3.970   1.285   1.352 -0.2457  0.3693 -0.3347
16379TIP3    H270629   3.900   1.225   1.472 -0.0294  0.2429 -0.2706
16380TIP3   OH270630   3.541   2.893  13.238  0.3398  0.2224  0.1293
16380TIP3    H170631   3.542   2.856  13.149  0.7485 -1.4740  0.8020
16380TIP3    H270632   3.619   2.948  13.242 -0.5967  1.7244 -1.0933
16381TIP3   OH270633   4.607   0.646  15.480  0.2286  0.1840 -0.4745
16381TIP3    H170634   4.584   0.644  15.387 -0.0882 -3.2680 -0.4487
16381TIP3    H270635   4.529   0.679  15.524 -0.4981 -0.4592 -1.2585
16382TIP3   OH270636   1.538   3.614  16.859  0.4007  0.6326 -0.4403
16382TIP3    H170637   1.448   3.607  16.829 -0.2524  2.0926  1.0148
16382TIP3    H270638   1.589   3.563  16.796 -1.2454  1.0588 -2.1858
16383TIP3   OH270639   5.668   2.036   0.322  0.2147 -0.2252  0.5931
16383TIP3    H170640   5.640   2.039   0.230  0.8444 -1.6172  0.3285
16383TIP3    H270641   5.706   2.122   0.338 -1.8554  0.8204  0.2175
16384TIP3   OH270642   5.535   0.583  12.078 -0.4174 -0.5675  0.4753
16384TIP3    H170643   5.539   0.664  12.129 -0.1072  0.1216 -0.6124
16384TIP3    H270644   5.474   0.527  12.127  0.5906 -0.3142  2.1022
16385TIP3   OH270645   1.982   0.603  12.123 -0.0381 -0.4707 -0.7259
16385TIP3    H170646   2.023   0.517  12.126 -2.1601 -1.5355 -0.8753
16385TIP3    H270647   1.991   0.637  12.212  1.4264 -0.5035 -0.8342
16386TIP3   OH270648   6.484   2.540   1.215  0.2874  0.2748  0.5215
16386TIP3    H170649   6.429   2.467   1.186  1.3625 -0.0296 -0.8271
16386TIP3    H270650   6.563   2.533   1.162  1.3685  1.0934  1.9591
16387TIP3   OH270651   4.787   3.651  12.248  0.5821  0.0930  0.0283
16387TIP3    H170652   4.807   3.596  12.172  0.9738  0.9528 -0.5059
16387TIP3    H270653   4.872   3.687  12.274  0.1421  1.6210 -0.5608
16388TIP3   OH270654   5.708   0.170  12.799 -0.3553  0.4631  0.0978
16388TIP3    H170655   5.709   0.161  12.894 -1.8677 -1.2870  0.0075
16388TIP3    H270656   5.793   0.206  12.778 -0.4575  2.1297  2.2050
16389TIP3   OH270657   4.035   0.938   3.816 -0.3387 -0.0793 -0.3588
16389TIP3    H170658   4.021   1.000   3.744  1.4816  1.1159  0.2507
16389TIP3    H270659   4.009   0.986   3.894  0.5247 -0.2832  0.0613
16390TIP3   OH270660   2.273   0.003  16.908 -0.0056 -0.2495 -0.1612
16390TIP3    H170661   2.360   0.042  16.895 -0.1983 -0.2689 -1.8042
16390TIP3    H270662   2.213   0.065  16.867 -0.6377 -0.8252 -0.1252
16391TIP3   OH270663   3.985   2.282  14.337 -0.1179  0.1742 -0.4311
16391TIP3    H170664   3.917   2.216  14.348  0.0862 -0.3084 -1.9021
16391TIP3    H270665   4.064   2.242  14.373 -0.1015 -0.1972 -0.8785
16392TIP3   OH270666   1.919   2.057   5.567  0.0675  0.0291  0.4108
16392TIP3    H170667   2.003   2.088   5.533 -1.1384  2.3587 -0.7012
16392TIP3    H270668   1.901   2.114   5.642 -1.3266  0.8781 -0.5111
16393TIP3   OH270669   4.167   5.732   1.707 -0.7551  0.4091  0.3424
16393TIP3    H170670   4.154   5.826   1.701  0.9825  0.6452 -0.2150
16393TIP3    H270671   4.248   5.722   1.757 -1.1538 -0.8096  0.7785
16394TIP3   OH270672   6.730   3.917   6.212  0.1119 -0.4600 -0.0567
16394TIP3    H170673   6.747   4.010   6.225 -0.3119 -0.3766 -0.0826
16394TIP3    H270674   6.733   3.879   6.300  1.7852 -0.6912 -0.1891
16395TIP3   OH270675   2.406   3.287  12.052  0.3764  0.3722 -0.0644
16395TIP3    H170676   2.362   3.219  12.002 -0.4910  1.0202 -0.2109
16395TIP3    H270677   2.393   3.262  12.143  1.7540 -0.6834 -0.1196
16396TIP3   OH270678   6.155   0.947  17.004  0.2824  0.4767  0.0804
16396TIP3    H170679   6.209   1.023  17.026  1.1336 -0.7744  2.7023
16396TIP3    H270680   6.098   0.935  17.080  0.8527 -2.0404  0.2011
16397TIP3   OH270681   2.600   1.800  13.629 -0.1900 -0.3151 -0.3131
16397TIP3    H170682   2.520   1.788  13.579  0.4912  0.5737 -1.6655
16397TIP3    H270683   2.592   1.888  13.667  0.7360  0.4049 -1.6720
16398TIP3   OH270684   3.477   3.777   3.976  0.4606 -0.0455  0.1044
16398TIP3    H170685   3.434   3.734   4.050 -0.5366 -0.2629 -0.5752
16398TIP3    H270686   3.523   3.706   3.930  0.4901 -0.0366  0.1204
16399TIP3   OH270687   5.225   6.591  16.829 -0.3246 -0.3470 -0.5783
16399TIP3    H170688   5.140   6.621  16.863 -0.4454  0.4760 -1.5554
16399TIP3    H270689   5.288   6.619  16.895 -0.2900  3.1595 -1.8633
16400TIP3   OH270690   4.277   4.509   1.436 -0.1768  0.6031  0.1419
16400TIP3    H170691   4.251   4.593   1.397  1.0787  0.2630 -1.5760
16400TIP3    H270692   4.287   4.451   1.360  0.9121 -0.5388  1.1252
16401TIP3   OH270693   0.778   5.501   3.636 -0.2399  0.0159  0.2021
16401TIP3    H170694   0.712   5.442   3.674  1.5537 -2.2181  0.1040
16401TIP3    H270695   0.803   5.458   3.554  0.8004  1.1700 -0.1100
16402TIP3   OH270696   0.139   3.105  11.382 -0.0182  0.6058  0.2274
16402TIP3    H170697   0.159   3.135  11.293 -2.8127  0.0923 -0.6743
16402TIP3    H270698   0.180   3.018  11.388  0.5369  0.8140 -0.3962
16403TIP3   OH270699   5.952   0.040  10.710 -0.5770  0.0390  0.3249
16403TIP3    H170700   5.907  -0.036  10.673  2.1573 -0.0208 -3.4124
16403TIP3    H270701   5.914   0.115  10.665  1.5368  0.1373 -1.4608
16404TIP3   OH270702   6.178   4.381  15.448 -0.5483 -0.2402  0.2358
16404TIP3    H170703   6.248   4.430  15.405 -0.7817 -0.8099 -0.8176
16404TIP3    H270704   6.127   4.448  15.493  0.1822  0.2756  0.3215
16405TIP3   OH270705   6.609   3.659  14.598 -0.2599  0.2277 -0.5585
16405TIP3    H170706   6.667   3.611  14.658  0.0829 -0.7122 -1.6080
16405TIP3    H270707   6.537   3.689  14.653  0.4805  0.1342  0.4888
16406TIP3   OH270708   1.175   0.123  11.605 -0.1135 -0.1465 -0.1882
16406TIP3    H170709   1.093   0.102  11.561 -1.8136 -0.5325  2.9233
16406TIP3    H270710   1.202   0.041  11.648  0.9183  0.4319  0.3228
16407TIP3   OH270711   1.640   6.644  11.125  0.1733  0.3716  0.1330
16407TIP3    H170712   1.702   6.610  11.061 -0.9973 -1.7750  0.0569
16407TIP3    H270713   1.644   6.739  11.114  2.0786  0.2009 -1.1180
16408TIP3   OH270714   2.359   2.224  11.609 -0.4289  0.1106  0.0183
16408TIP3    H170715   2.301   2.157  11.571  0.3030 -1.0224  0.8413
16408TIP3    H270716   2.371   2.288  11.539 -0.0476 -1.3343 -1.2797
16409TIP3   OH270717   1.661   2.055  15.312 -0.4403 -0.6274 -0.2230
16409TIP3    H170718   1.691   2.082  15.400  1.6679  0.2952 -1.1434
16409TIP3    H270719   1.644   1.962  15.321 -0.3171 -0.5511  1.1932
16410TIP3   OH270720   5.655   3.689   0.691  0.6505 -0.7321  0.0456
16410TIP3    H170721   5.637   3.740   0.771 -0.8684 -1.3334  0.1126
16410TIP3    H270722   5.631   3.600   0.714  2.6664 -1.4105 -0.2901
16411TIP3   OH270723   5.837   6.506  13.193  0.4569  0.5183  0.7759
16411TIP3    H170724   5.826   6.427  13.246  0.9677  0.1995  0.4071
16411TIP3    H270725   5.846   6.475  13.103 -3.1672  1.1855  0.0458
16412TIP3   OH270726   2.423   1.211   5.840  0.4575  0.0697 -0.3494
16412TIP3    H170727   2.382   1.138   5.886 -1.3108  0.4632 -1.2363
16412TIP3    H270728   2.351   1.270   5.818  1.8256  2.0894  0.3001
16413TIP3   OH270729   3.341   6.310   2.784 -0.2479 -0.0025  0.8875
16413TIP3    H170730   3.434   6.331   2.772  0.2549 -2.0047  0.8537
16413TIP3    H270731   3.294   6.381   2.740  1.2883  0.4899 -0.0398
16414TIP3   OH270732   6.452   4.357  14.922 -0.2235 -0.5584 -0.0233
16414TIP3    H170733   6.393   4.432  14.918 -0.7830 -1.0043 -0.4067
16414TIP3    H270734   6.420   4.304  14.995 -0.8688 -1.2482 -0.7828
16415TIP3   OH270735   3.326   4.164   2.571  0.0134  0.2110 -0.1210
16415TIP3    H170736   3.387   4.236   2.553 -0.4537  1.7104  3.4496
16415TIP3    H270737   3.381   4.090   2.595  0.4713  0.6540  0.2097
16416TIP3   OH270738   6.430   0.620  15.512 -0.2708  0.4178  0.1509
16416TIP3    H170739   6.395   0.681  15.577  0.8719  0.8080  0.4393
16416TIP3    H270740   6.521   0.606  15.540 -0.6963 -2.0170  0.5358
16417TIP3   OH270741   3.164   2.237   0.053  0.4655  0.3044 -0.3363
16417TIP3    H170742   3.072   2.226   0.078 -0.0894  0.7269 -2.0778
16417TIP3    H270743   3.174   2.183  -0.025  1.5949  0.6116 -0.4163
16418TIP3   OH270744   0.791   3.545   5.479 -0.2215 -0.0425 -0.1914
16418TIP3    H170745   0.729   3.615   5.500  1.2321  0.9599  0.8921
16418TIP3    H270746   0.846   3.537   5.556  0.5682 -1.4055 -0.8598
16419TIP3   OH270747   5.506   2.967   6.306  0.1723  0.0335 -0.2806
16419TIP3    H170748   5.573   2.899   6.303 -0.2467 -0.3720 -0.5997
16419TIP3    H270749   5.539   3.031   6.370  1.3606  0.3905 -1.2135
16420TIP3   OH270750   1.975   6.706  16.869 -0.2482  0.1776  0.3198
16420TIP3    H170751   1.935   6.790  16.850 -0.0781  0.2513  0.2791
16420TIP3    H270752   2.030   6.722  16.946  0.2241  0.2461 -0.0225
16421TIP3   OH270753   0.126   5.814  14.313  0.0068 -0.0793  0.2343
16421TIP3    H170754   0.110   5.825  14.220 -3.1005 -0.0269  0.6504
16421TIP3    H270755   0.089   5.728  14.334 -0.4528  0.4147  1.5944
16422TIP3   OH270756   1.263   2.097  16.860  0.4934 -0.5379 -0.3134
16422TIP3    H170757   1.248   2.148  16.781 -1.1321 -1.7837 -0.8492
16422TIP3    H270758   1.254   2.160  16.932  1.1673  0.4310 -1.0553
16423TIP3   OH270759   5.369   2.525  12.810  0.1188  0.5556 -0.1637
16423TIP3    H170760   5.388   2.554  12.721 -0.3893 -1.9465 -1.1864
16423TIP3    H270761   5.282   2.562  12.829 -0.9737 -0.9776 -1.8060
16424TIP3   OH270762   2.631   1.690   4.353 -0.1096  0.1360 -0.2731
16424TIP3    H170763   2.609   1.741   4.431  0.4873 -0.6851  0.4570
16424TIP3    H270764   2.663   1.754   4.290 -0.5741  0.8122  0.1669
16425TIP3   OH270765   6.649   1.302  16.781  0.5490  0.1293 -0.6235
16425TIP3    H170766   6.623   1.243  16.710  0.5672  1.2993 -1.6444
16425TIP3    H270767   6.681   1.244  16.850 -0.1923 -1.0842 -1.2604
16426TIP3   OH270768   3.742   6.801   2.792  0.9443 -0.2231  0.2429
16426TIP3    H170769   3.794   6.721   2.784 -0.5282 -1.0725 -1.2282
16426TIP3    H270770   3.744   6.840   2.705 -1.6236 -0.7874 -0.1484
16427TIP3   OH270771   0.397   4.054  14.636  0.3416 -0.2502  0.1364
16427TIP3    H170772   0.461   4.114  14.674  0.3115  0.5203 -0.9749
16427TIP3    H270773   0.317   4.104  14.629 -0.3569 -1.1524  1.3249
16428TIP3   OH270774   3.268   3.501  14.060  0.0364  0.0594 -0.1941
16428TIP3    H170775   3.342   3.489  14.119  0.5061  1.8822 -0.3695
16428TIP3    H270776   3.194   3.463  14.107  0.6930  0.0563  0.8740
16429TIP3   OH270777   1.649   6.782  13.758 -0.0313  0.0432  0.0191
16429TIP3    H170778   1.730   6.816  13.796 -0.7134 -0.0489  1.6471
16429TIP3    H270779   1.580   6.839  13.793 -0.9056 -1.3330  0.6252
16430TIP3   OH270780   0.931   4.630  13.328 -0.2382 -0.6192 -0.2802
16430TIP3    H170781   0.954   4.540  13.305  1.3035 -0.0012 -1.3203
16430TIP3    H270782   0.975   4.645  13.412  0.2241 -0.5696 -0.5293
16431TIP3   OH270783   0.556   1.930  15.974 -0.6961 -0.4679  0.6006
16431TIP3    H170784   0.479   1.949  16.027 -1.6528  1.8269 -1.4138
16431TIP3    H270785   0.630   1.938  16.035 -1.8849 -0.4858  2.0990
16432TIP3   OH270786   0.927   0.317   5.739  0.7369 -0.4105  0.6575
16432TIP3    H170787   0.991   0.378   5.776 -0.4769  1.3410 -0.0078
16432TIP3    H270788   0.886   0.275   5.814  2.3362 -1.2789  1.1026
16433TIP3   OH270789   1.111   2.157  13.533 -0.1273 -0.4415  0.2406
16433TIP3    H170790   1.080   2.114  13.454  0.2265 -0.0438 -0.1270
16433TIP3    H270791   1.172   2.095  13.572  1.5999  0.3043 -1.1273
16434TIP3   OH270792   3.217   5.397   3.452 -0.3718 -0.2034  0.1879
16434TIP3    H170793   3.209   5.485   3.488  0.6522  0.7152 -1.6513
16434TIP3    H270794   3.128   5.372   3.428 -0.3623  1.8422 -2.4568
16435TIP3   OH270795   2.797   3.228  12.694 -0.3428 -0.3507  0.1524
16435TIP3    H170796   2.888   3.221  12.665  0.3758  0.8318  1.9327
16435TIP3    H270797   2.769   3.315  12.665 -0.4348 -0.1529  0.8143
16436TIP3   OH270798   4.203   1.710   3.369  0.1878  0.1821  0.6638
16436TIP3    H170799   4.281   1.751   3.331 -0.8739  0.9959 -0.7002
16436TIP3    H270800   4.182   1.638   3.310 -1.0591  1.0115  0.0684
16437TIP3   OH270801   0.268   2.234   4.430 -0.4866 -0.3927 -0.1809
16437TIP3    H170802   0.309   2.183   4.360 -0.8785  0.7169 -1.2562
16437TIP3    H270803   0.332   2.301   4.452 -0.7328 -0.1700 -0.1306
16438TIP3   OH270804   3.192   4.134   2.315 -0.1806 -0.3152 -0.1103
16438TIP3    H170805   3.250   4.106   2.386 -1.2186  1.0351  1.3289
16438TIP3    H270806   3.187   4.229   2.324 -2.7405 -0.3968 -0.0677
16439TIP3   OH270807   3.504   1.615  11.667 -0.2752 -0.0468  0.4242
16439TIP3    H170808   3.503   1.705  11.697 -1.5774  0.2780 -0.4709
16439TIP3    H270809   3.548   1.618  11.582  3.4706 -0.9667  2.1372
16440TIP3   OH270810   0.543   2.087   5.152  0.5881 -0.1322  0.1493
16440TIP3    H170811   0.553   2.167   5.203 -2.1442 -0.2674  1.0601
16440TIP3    H270812   0.548   2.116   5.061 -0.0248  1.0263  0.4689
16441TIP3   OH270813   2.300   3.598   2.304 -0.7158  0.6631 -0.3806
16441TIP3    H170814   2.261   3.642   2.380 -1.6272 -1.4915  0.4791
16441TIP3    H270815   2.286   3.505   2.320  2.0485 -0.0726 -1.5985
16442TIP3   OH270816   3.411   0.281  14.374 -0.0177 -0.2317 -0.1702
16442TIP3    H170817   3.491   0.302  14.422 -1.0807  1.4061  0.9966
16442TIP3    H270818   3.363   0.363  14.370 -0.7256 -0.6800 -2.7091
16443TIP3   OH270819   4.403   1.285   1.375  0.2919 -0.1689  0.3544
16443TIP3    H170820   4.418   1.248   1.461 -0.1168 -1.3724 -0.0671
16443TIP3    H270821   4.431   1.216   1.314  0.4377  0.6011 -0.4718
16444TIP3   OH270822   5.261   1.681  15.270 -0.1619 -0.1643 -0.1166
16444TIP3    H170823   5.245   1.614  15.336 -1.3465  0.0438 -0.1680
16444TIP3    H270824   5.214   1.758  15.301  2.6102  1.2766  0.8527
16445TIP3   OH270825   3.007   4.000   4.958 -0.6479 -0.7775 -0.5906
16445TIP3    H170826   3.090   3.990   5.005  0.2700  1.1296 -1.6863
16445TIP3    H270827   2.947   4.033   5.025  0.3779  0.9233 -0.4306
16446TIP3   OH270828   2.287   2.924  15.006  0.3360  0.5160  0.1863
16446TIP3    H170829   2.202   2.924  14.962  0.2104 -0.3511  0.4113
16446TIP3    H270830   2.334   2.998  14.968  0.6782 -0.8773 -2.2962
16447TIP3   OH270831   1.442   2.636   3.072  0.3536 -0.0162  0.3543
16447TIP3    H170832   1.362   2.622   3.022 -0.3450 -0.6969  1.6062
16447TIP3    H270833   1.498   2.562   3.049  0.5803  0.3924 -0.4268
16448TIP3   OH270834   5.709   2.944  12.638  0.1041 -0.6025  0.4342
16448TIP3    H170835   5.732   3.016  12.698  0.9374 -0.7376  0.2962
16448TIP3    H270836   5.615   2.951  12.626  0.2139  0.6313  0.2147
16449TIP3   OH270837   0.329   6.316   1.433  0.0160  0.4824 -0.2351
16449TIP3    H170838   0.261   6.304   1.499 -0.1956  0.4740 -0.4524
16449TIP3    H270839   0.367   6.229   1.422 -1.9653 -0.2351 -2.2962
16450TIP3   OH270840   3.793   1.158   0.221 -0.0212  0.5879 -0.1831
16450TIP3    H170841   3.836   1.207   0.150  0.5894 -1.1656 -1.0894
16450TIP3    H270842   3.719   1.213   0.246  1.2888  2.5181 -0.3089
16451TIP3   OH270843   3.806   2.593   0.880  0.2008 -0.1781 -0.1531
16451TIP3    H170844   3.891   2.595   0.926  0.1903  0.1540 -0.1441
16451TIP3    H270845   3.802   2.506   0.840  1.2110  0.3161 -1.3967
16452TIP3   OH270846   1.071   3.894   4.601  0.0534  0.3759  0.0887
16452TIP3    H170847   0.988   3.941   4.591  0.4861  1.8407  2.5652
16452TIP3    H270848   1.054   3.808   4.562 -1.8009  1.4342 -1.6936
16453TIP3   OH270849   6.766   2.701   1.359 -0.0287  0.3201 -0.5071
16453TIP3    H170850   6.775   2.764   1.431  0.2336 -1.1478  0.8022
16453TIP3    H270851   6.680   2.661   1.372 -0.1288  0.2878 -1.2253
16454TIP3   OH270852   5.214   3.415  14.271  0.1646  0.5060  0.2913
16454TIP3    H170853   5.145   3.460  14.320  1.3851  1.0753  1.5253
16454TIP3    H270854   5.173   3.395  14.186 -2.2279 -1.0939  1.6929
16455TIP3   OH270855   0.622   1.283  16.440  0.7537  0.4083  0.4169
16455TIP3    H170856   0.699   1.269  16.494 -1.4190 -0.9220  3.5068
16455TIP3    H270857   0.556   1.224  16.477 -1.4504  0.6268 -2.7616
16456TIP3   OH270858   5.404   5.760   3.986 -0.6685  0.4439  0.1570
16456TIP3    H170859   5.347   5.750   4.063 -0.7278  3.9639  0.7039
16456TIP3    H270860   5.486   5.794   4.022 -0.4827  1.5445 -1.2628
16457TIP3   OH270861   2.621   1.372   5.315 -0.1816 -0.4227 -0.8876
16457TIP3    H170862   2.683   1.304   5.290 -0.3311 -1.1415  0.6131
16457TIP3    H270863   2.536   1.338   5.288 -0.4785 -1.6912  1.3697
16458TIP3   OH270864   2.294   3.232   4.629 -0.2502 -0.4277  0.0705
16458TIP3    H170865   2.291   3.263   4.719  0.1723 -0.7307  0.1928
16458TIP3    H270866   2.206   3.196   4.613 -0.7459  0.8086 -0.0760
16459TIP3   OH270867   5.142   0.250  12.827 -0.4083  0.2340  0.3543
16459TIP3    H170868   5.123   0.239  12.734 -2.9529 -1.0114  0.9131
16459TIP3    H270869   5.234   0.225  12.837 -0.6204 -1.5419 -1.5412
16460TIP3   OH270870   4.405   4.305   0.595 -0.1572  0.1243  0.2485
16460TIP3    H170871   4.392   4.366   0.668 -2.8570  1.1817 -0.9646
16460TIP3    H270872   4.441   4.359   0.524 -1.2929  0.0619 -0.4044
16461TIP3   OH270873   1.977   0.683  13.135 -0.2685 -0.5920 -0.1414
16461TIP3    H170874   2.006   0.712  13.222  1.7556  2.4447 -1.6796
16461TIP3    H270875   1.976   0.762  13.082  0.3458 -2.5881 -3.3967
16462TIP3   OH270876   6.516   2.127  16.967  0.5064  0.1566 -1.0924
16462TIP3    H170877   6.462   2.064  17.015  1.4236  1.1062  1.3502
16462TIP3    H270878   6.457   2.199  16.947  0.2794  0.0883 -0.6841
16463TIP3   OH270879   5.628   2.511   0.801 -0.9551 -0.8732 -0.2143
16463TIP3    H170880   5.534   2.501   0.784 -1.3204  0.6802  0.7036
16463TIP3    H270881   5.634   2.587   0.858  0.7788 -1.6461  0.7137
16464TIP3   OH270882   2.465   0.414   2.247 -0.2099  0.6905  0.2405
16464TIP3    H170883   2.491   0.454   2.163 -2.1914 -1.4690 -1.5548
16464TIP3    H270884   2.546   0.378   2.283  0.5815  1.0305 -1.1352
16465TIP3   OH270885   3.971   2.925  15.433 -0.9477 -0.1858 -0.2462
16465TIP3    H170886   3.980   2.840  15.477 -0.6050 -1.3158 -2.3762
16465TIP3    H270887   4.024   2.916  15.353 -1.4170  1.8238 -0.8311
16466TIP3   OH270888   5.947   4.081  12.409 -1.0693  0.6966  0.0384
16466TIP3    H170889   5.966   4.174  12.419 -2.3102  0.9404  0.3128
16466TIP3    H270890   5.885   4.077  12.336 -1.9123  0.2114  0.7669
16467TIP3   OH270891   3.244   3.348   1.082  0.3312  0.0228 -0.5887
16467TIP3    H170892   3.297   3.428   1.076 -0.4755  0.6833  0.5150
16467TIP3    H270893   3.215   3.347   1.173  2.7791 -3.1629  0.3316
16468TIP3   OH270894   2.427   3.592  13.595  0.4529 -0.7525 -0.2072
16468TIP3    H170895   2.385   3.655  13.536  1.0963  0.0068  0.1176
16468TIP3    H270896   2.431   3.511  13.545 -0.2103 -0.4793 -0.7158
16469TIP3   OH270897   6.700   0.127   6.532  0.6571 -0.1416 -0.1672
16469TIP3    H170898   6.652   0.158   6.609  1.0599 -1.3093  0.5960
16469TIP3    H270899   6.762   0.063   6.568  1.7166  0.2021 -1.3192
16470TIP3   OH270900   4.789   1.329   5.924 -0.5356  0.4823  0.1199
16470TIP3    H170901   4.757   1.329   6.014 -1.5721  0.8488 -0.2321
16470TIP3    H270902   4.856   1.260   5.922 -1.6073 -0.6226  0.8050
16471TIP3   OH270903   1.477   2.896  16.483  0.9911  0.0953  0.4147
16471TIP3    H170904   1.572   2.898  16.488  1.0301 -0.9392  0.2353
16471TIP3    H270905   1.447   2.935  16.565  1.5694 -0.4621  0.8911
16472TIP3   OH270906   0.267   4.029   0.151 -0.5265 -0.2347  0.0516
16472TIP3    H170907   0.305   4.046   0.065 -3.1102  0.4386 -1.0419
16472TIP3    H270908   0.244   3.936   0.149  0.7077 -0.5661  0.5935
16473TIP3   OH270909   1.504   2.740   3.428 -0.0079 -0.1895  0.4658
16473TIP3    H170910   1.567   2.806   3.454  1.6344 -0.9435 -1.3424
16473TIP3    H270911   1.478   2.766   3.339 -0.2813 -1.2707  0.2118
16474TIP3   OH270912   1.186   2.368   4.733  0.1278 -0.4112  1.0195
16474TIP3    H170913   1.198   2.276   4.710  0.3199 -0.1618  0.0553
16474TIP3    H270914   1.250   2.384   4.803  1.2095 -0.6302  0.1222
16475TIP3   OH270915   0.174   0.278  12.069 -0.1144  0.1871 -0.0624
16475TIP3    H170916   0.152   0.187  12.052 -1.6422  0.3096  1.0418
16475TIP3    H270917   0.248   0.297  12.011 -1.2604 -1.0750 -2.0272
16476TIP3   OH270918   1.736   6.592   1.970  0.4455  0.2467 -0.6423
16476TIP3    H170919   1.740   6.642   2.052  1.7366  0.3640 -0.7577
16476TIP3    H270920   1.642   6.584   1.952  0.1428  0.4734  0.6855
16477TIP3   OH270921   5.282   0.522   3.724 -0.1208 -0.7336  0.4323
16477TIP3    H170922   5.318   0.587   3.784 -3.0246  1.9606 -0.4441
16477TIP3    H270923   5.254   0.450   3.781  0.6174  0.0303  1.8233
16478TIP3   OH270924   5.025   1.781   1.705 -0.0186  0.0974 -0.0219
16478TIP3    H170925   4.964   1.826   1.764  0.9254  0.0712  0.9911
16478TIP3    H270926   5.097   1.842   1.692  0.7870 -0.7026  0.5488
16479TIP3   OH270927   4.308   1.385  10.897 -0.2479  0.1812 -0.9532
16479TIP3    H170928   4.353   1.441  10.960 -1.5330 -2.5308  2.7671
16479TIP3    H270929   4.217   1.414  10.899 -0.7267 -1.2736  0.2520
16480TIP3   OH270930   6.342   1.645   0.505  0.8492 -0.3427  0.1909
16480TIP3    H170931   6.282   1.626   0.433  1.5440  0.3479 -0.6011
16480TIP3    H270932   6.287   1.685   0.573  0.3887  0.1505 -0.4626
16481TIP3   OH270933   0.690   0.574  14.594 -0.4393 -0.8931  0.2939
16481TIP3    H170934   0.621   0.512  14.617  0.1003 -0.9958  1.7897
16481TIP3    H270935   0.719   0.547  14.507 -1.0032 -2.0197  0.4406
16482TIP3   OH270936   6.619   0.610  13.694 -0.4381  0.7092 -0.0893
16482TIP3    H170937   6.587   0.520  13.691 -0.7424  0.6588  2.2012
16482TIP3    H270938   6.542   0.663  13.671 -0.7992  0.4115  0.3870
16483TIP3   OH270939   6.632   3.977  14.289 -0.3248  0.2345  0.2988
16483TIP3    H170940   6.616   4.023  14.372  0.9148 -0.4021  0.9243
16483TIP3    H270941   6.687   3.903  14.314  0.0071 -0.0037 -1.0942
16484TIP3   OH270942   3.538   1.781   0.318 -0.6056  0.6045  0.1829
16484TIP3    H170943   3.624   1.802   0.282 -0.9611  1.2493 -0.3040
16484TIP3    H270944   3.546   1.691   0.350  0.4088  0.8493  0.6464
16485TIP3   OH270945   1.711   5.284   5.436 -0.7124  0.4667 -0.2556
16485TIP3    H170946   1.623   5.301   5.469  0.2261  1.9814  1.7181
16485TIP3    H270947   1.759   5.252   5.513  1.2701  2.9434 -0.3130
16486TIP3   OH270948   5.726   4.353   5.934  0.1548 -0.0432 -0.2091
16486TIP3    H170949   5.812   4.323   5.964 -0.2993 -0.0653  1.1385
16486TIP3    H270950   5.730   4.448   5.943 -0.6103 -0.1571  1.7865
16487TIP3   OH270951   1.471   3.502   1.176  0.0270 -0.5694  0.4042
16487TIP3    H170952   1.565   3.488   1.178  0.4128  1.6754  1.5116
16487TIP3    H270953   1.458   3.569   1.109 -0.8922 -1.3023 -0.1839
16488TIP3   OH270954   3.131   6.017   1.827 -0.3702 -0.2549 -0.3536
16488TIP3    H170955   3.114   5.925   1.847  0.2068  0.2520  3.1385
16488TIP3    H270956   3.172   6.016   1.740  2.1108 -3.5868  0.6545
16489TIP3   OH270957   3.411   2.906   3.943 -0.2853  0.1053 -0.2161
16489TIP3    H170958   3.480   2.937   3.885  1.4413 -2.3775  0.3636
16489TIP3    H270959   3.441   2.930   4.031 -0.8162  0.1921 -0.0564
16490TIP3   OH270960   0.870   3.269  16.193 -0.2133  0.0666  0.0169
16490TIP3    H170961   0.893   3.359  16.168  0.3764 -0.2500 -0.5968
16490TIP3    H270962   0.790   3.279  16.245 -0.1131  0.9547  0.0239
16491TIP3   OH270963   5.077   5.876  13.170  0.3013 -0.4073  0.1358
16491TIP3    H170964   5.160   5.906  13.133  0.5685 -1.4914 -0.1851
16491TIP3    H270965   5.094   5.868  13.264  0.0766  0.8722  0.3122
16492TIP3   OH270966   0.842   6.446  10.663  0.9926 -0.1999  0.2127
16492TIP3    H170967   0.823   6.388  10.589  3.2500 -0.8066  0.0180
16492TIP3    H270968   0.861   6.386  10.735  4.1179  0.1369 -0.1852
16493TIP3   OH270969   0.681   0.440  11.894  0.1596 -0.4644  0.0287
16493TIP3    H170970   0.696   0.458  11.987 -1.8393 -0.3827  0.3743
16493TIP3    H270971   0.702   0.347  11.885  1.5477 -0.1931  0.2705
16494TIP3   OH270972   3.132   0.581   4.934 -0.5154  0.4713 -0.3512
16494TIP3    H170973   3.194   0.631   4.986  0.3952  0.1492 -1.0998
16494TIP3    H270974   3.172   0.576   4.847 -0.7563 -1.2031 -0.4087
16495TIP3   OH270975   0.307   6.741  14.512 -0.1448 -0.2485 -0.1125
16495TIP3    H170976   0.233   6.790  14.476 -0.7924 -1.2366 -0.1548
16495TIP3    H270977   0.273   6.700  14.591  0.5947 -0.0700  0.3085
16496TIP3   OH270978   1.909   3.631   2.158  0.2333 -0.6281 -0.5134
16496TIP3    H170979   1.946   3.651   2.072 -0.3737  1.4883 -0.3552
16496TIP3    H270980   1.977   3.581   2.203  1.1529 -0.5008 -1.7219
16497TIP3   OH270981   5.442   3.082   5.666 -0.2259 -0.0613  0.2908
16497TIP3    H170982   5.507   3.087   5.736 -1.0946 -1.5992  1.2686
16497TIP3    H270983   5.464   3.154   5.608  1.5724  0.2208  1.2478
16498TIP3   OH270984   3.074   1.352   6.091 -0.7879 -0.2725 -0.0992
16498TIP3    H170985   3.051   1.441   6.119 -0.9166 -0.4307  0.2981
16498TIP3    H270986   3.068   1.299   6.170  2.6722 -0.0133  0.4809
16499TIP3   OH270987   2.368   6.003  14.489  0.7627 -0.2200 -0.0159
16499TIP3    H170988   2.403   5.936  14.547  1.0272 -1.1556 -1.2244
16499TIP3    H270989   2.379   6.085  14.538  0.2951 -1.0385  1.5562
16500TIP3   OH270990   4.476   1.010   0.919  0.1350  0.0989 -0.7698
16500TIP3    H170991   4.383   0.996   0.904 -0.1165  0.7749  0.0589
16500TIP3    H270992   4.508   1.049   0.838 -0.7063  1.6190 -0.3966
16501TIP3   OH270993   1.944   3.571   6.326  0.0970  0.0724  0.5235
16501TIP3    H170994   1.920   3.506   6.391  0.0564  1.0581  1.5237
16501TIP3    H270995   2.037   3.590   6.343 -0.0506  0.7178  0.6681
16502TIP3   OH270996   1.137   2.296  17.160  0.0127  0.1230  0.5682
16502TIP3    H170997   1.173   2.381  17.187  1.9960 -0.6461  0.5442
16502TIP3    H270998   1.204   2.233  17.186  0.3050 -1.0906 -2.6264
16503TIP3   OH270999   4.518   1.642   5.303 -0.0733 -0.3715 -0.1886
16503TIP3    H171000   4.505   1.737   5.302 -2.8197 -0.6366 -2.0485
16503TIP3    H271001   4.512   1.618   5.396  0.6373  1.2519  0.3035
16504TIP3   OH271002   6.026   0.500   6.355  0.2609  0.2223  0.2993
16504TIP3    H171003   6.111   0.456   6.359 -0.0344 -0.2649  1.4546
16504TIP3    H271004   6.044   0.590   6.382  0.1355 -0.3192  2.3049
16505TIP3   OH271005   4.282   3.716   3.786  0.1283 -0.0872  0.3337
16505TIP3    H171006   4.308   3.802   3.754  0.9674 -0.4877 -0.1082
16505TIP3    H271007   4.341   3.699   3.859 -1.4495  0.6072  1.8501
16506TIP3   OH271008   3.719   1.577   6.340 -0.2629  0.0241  0.6654
16506TIP3    H171009   3.691   1.656   6.293  0.5960 -0.4038 -0.6240
16506TIP3    H271010   3.804   1.555   6.301 -0.2062 -1.1896  1.4261
16507TIP3   OH271011   2.533   2.645  15.437 -0.3970  0.1296  0.2317
16507TIP3    H171012   2.489   2.564  15.464  0.6052  0.5292  3.5684
16507TIP3    H271013   2.626   2.622  15.439 -0.1819  0.7985 -1.1289
16508TIP3   OH271014   1.429   2.350   1.616 -0.2139 -0.4341 -0.0784
16508TIP3    H171015   1.395   2.309   1.536  0.1153 -0.8650  0.0039
16508TIP3    H271016   1.449   2.278   1.674  0.6973 -0.1806 -0.0612
16509TIP3   OH271017   4.677   1.668   6.476  0.0432 -0.5301  0.3368
16509TIP3    H171018   4.677   1.753   6.432 -0.3807 -0.2711  0.8359
16509TIP3    H271019   4.619   1.614   6.423 -1.3383  0.0972  1.1627
16510TIP3   OH271020   1.837   1.734   2.473  0.2402  0.0311  0.4541
16510TIP3    H171021   1.823   1.824   2.443 -0.5086 -0.0826  0.4345
16510TIP3    H271022   1.813   1.681   2.397  2.2976 -0.1541 -0.1085
16511TIP3   OH271023   1.107   0.106  15.766 -0.3984 -0.3692  0.4341
16511TIP3    H171024   1.090   0.188  15.720 -1.1289 -0.6315  0.2282
16511TIP3    H271025   1.094   0.126  15.859 -2.4569 -0.6951  0.2513
16512TIP3   OH271026   3.171   1.443   1.349  0.6495  0.4718 -0.6146
16512TIP3    H171027   3.187   1.449   1.443  0.1460 -1.2066 -0.3838
16512TIP3    H271028   3.078   1.425   1.342  0.8816 -0.5310 -1.3610
16513TIP3   OH271029   1.780   6.761  14.858 -0.7305  0.1526  0.1321
16513TIP3    H171030   1.763   6.676  14.817  1.2497 -0.6998  0.9318
16513TIP3    H271031   1.830   6.739  14.937  0.1408  2.0805  0.1587
16514TIP3   OH271032   1.987   4.248   4.253 -0.0338  0.2775  0.3678
16514TIP3    H171033   1.900   4.264   4.292  0.1346 -0.0997  0.9136
16514TIP3    H271034   1.976   4.269   4.160 -1.0656 -1.0362  0.1686
16515TIP3   OH271035   3.030   1.987   5.621  0.2917 -0.1023 -0.6635
16515TIP3    H171036   3.083   1.908   5.607  0.9281  0.1367  0.2620
16515TIP3    H271037   3.049   2.012   5.712  1.8630  2.4266 -1.6120
16516TIP3   OH271038   0.782   5.574   0.740 -0.2603  0.0980 -0.3118
16516TIP3    H171039   0.762   5.504   0.678  0.2595 -1.6080  1.3491
16516TIP3    H271040   0.751   5.541   0.824  0.3752  1.7108  0.5998
16517TIP3   OH271041   2.713   1.689   1.927  0.2244 -0.3967  0.1684
16517TIP3    H171042   2.791   1.735   1.959  0.4831 -0.7741  0.0865
16517TIP3    H271043   2.747   1.607   1.891 -0.2762 -0.8264  0.6643
16518TIP3   OH271044   3.157   3.373  12.010  0.5605 -0.8000 -0.3519
16518TIP3    H171045   3.241   3.354  11.967  1.2030 -1.1181  0.9988
16518TIP3    H271046   3.173   3.455  12.057 -0.0677 -0.5661 -0.5417
16519TIP3   OH271047   5.856   4.384  14.635 -0.9103 -0.7189 -0.0110
16519TIP3    H171048   5.811   4.336  14.566 -1.7340 -0.6111  0.4355
16519TIP3    H271049   5.948   4.383  14.610 -1.2204 -0.5502 -1.1820
16520TIP3   OH271050   0.966   4.652  15.048  0.5764  0.1154 -0.3715
16520TIP3    H171051   0.961   4.557  15.051 -0.1561  0.1403 -0.6286
16520TIP3    H271052   1.027   4.676  15.118  0.3058 -0.5031  0.0754
16521TIP3   OH271053   2.980   6.119   4.233  0.1009 -0.0180 -0.7011
16521TIP3    H171054   2.984   6.100   4.327 -1.1047 -2.3129 -1.0618
16521TIP3    H271055   2.952   6.211   4.230  2.1537  0.7822  1.1350
16522TIP3   OH271056   5.143   1.180   0.442  0.2646 -0.5666  0.0837
16522TIP3    H171057   5.139   1.165   0.536  1.0323 -2.6795 -0.1581
16522TIP3    H271058   5.226   1.140   0.415 -1.0536 -2.1955 -1.8070
16523TIP3   OH271059   5.204   2.119   1.694  0.1109  0.1326 -0.1948
16523TIP3    H171060   5.142   2.121   1.620 -0.0308 -1.0496 -0.1358
16523TIP3    H271061   5.288   2.095   1.655 -0.0280 -0.8021  0.0409
16524TIP3   OH271062   3.545   6.561  11.817  0.1128 -0.0146 -0.4995
16524TIP3    H171063   3.591   6.486  11.855 -0.3857 -0.1535 -0.1566
16524TIP3    H271064   3.577   6.637  11.866 -0.0886 -0.1216 -0.1979
16525TIP3   OH271065   1.761   4.399  15.812  0.2159 -0.6742  0.2326
16525TIP3    H171066   1.793   4.390  15.901  0.0592 -0.1167  0.3552
16525TIP3    H271067   1.840   4.409  15.759  0.3110  2.5421  0.7496
16526TIP3   OH271068   0.064   3.214   5.759 -0.7187  0.0567  0.2401
16526TIP3    H171069   0.140   3.165   5.726  1.0636  2.4553  0.5090
16526TIP3    H271070   0.012   3.148   5.806  0.0252 -2.1162 -1.7600
16527TIP3   OH271071   3.913   2.138   4.061 -0.7962  0.7016  0.3368
16527TIP3    H171072   3.974   2.065   4.049  0.1553  1.6878 -1.2376
16527TIP3    H271073   3.968   2.216   4.058 -2.0795  1.6222 -1.0345
16528TIP3   OH271074   0.074   1.319   3.132 -0.3620 -0.5501 -0.2321
16528TIP3    H171075  -0.014   1.356   3.125 -0.9669 -1.8506  0.0931
16528TIP3    H271076   0.111   1.327   3.044 -0.4696  0.7861 -0.1636
16529TIP3   OH271077   3.503   4.578  10.922 -0.2943 -0.0641 -0.6953
16529TIP3    H171078   3.476   4.614  11.006 -1.2333  3.7622 -2.4157
16529TIP3    H271079   3.591   4.612  10.909  0.3955 -1.7848 -0.7283
16530TIP3   OH271080   4.724   0.911  17.161 -0.4256 -0.1970  0.0965
16530TIP3    H171081   4.667   0.881  17.231  0.3182 -2.1104 -0.0575
16530TIP3    H271082   4.758   0.831  17.122  2.1836  0.8435  0.0326
16531TIP3   OH271083   5.849   1.659   4.285  0.2257  0.3433 -0.3785
16531TIP3    H171084   5.823   1.749   4.265 -0.5175  0.2900  0.2796
16531TIP3    H271085   5.859   1.658   4.381  0.0607 -0.3196 -0.3634
16532TIP3   OH271086   0.108   5.972  13.671  0.1605 -0.3437 -0.1320
16532TIP3    H171087   0.072   5.891  13.636  1.1471 -0.7513 -0.2321
16532TIP3    H271088   0.203   5.961  13.666  0.3147  0.5204  0.5376
16533TIP3   OH271089   2.310   3.030  12.835  0.1407 -0.5681  0.1927
16533TIP3    H171090   2.381   3.095  12.835 -2.1999  2.1790 -0.4592
16533TIP3    H271091   2.348   2.954  12.879  2.6514  1.6811  2.2825
16534TIP3   OH271092   3.927   0.396  15.321 -0.3365  0.0277  0.0355
16534TIP3    H171093   3.843   0.374  15.282 -1.2681  2.1317  0.7339
16534TIP3    H271094   3.974   0.443  15.252 -1.0466  1.6742  0.6389
16535TIP3   OH271095   6.593   2.957   3.956  0.1984  0.5477 -0.2869
16535TIP3    H171096   6.499   2.943   3.967 -0.2624  2.0442 -1.9748
16535TIP3    H271097   6.605   2.973   3.862  2.2316 -0.1277 -0.2039
16536TIP3   OH271098   0.876   3.504   1.036 -0.0333 -0.1367 -0.1498
16536TIP3    H171099   0.893   3.450   0.959 -0.2132 -0.4877  0.0538
16536TIP3    H271100   0.957   3.552   1.050 -0.5686  1.3074 -1.6431
16537TIP3   OH271101   5.021   6.537   0.267 -0.3927  0.1264 -0.2539
16537TIP3    H171102   4.944   6.587   0.292  0.1237  0.5076  0.6216
16537TIP3    H271103   5.051   6.577   0.185 -0.7285  0.4092 -0.2372
16538TIP3   OH271104   4.761   3.077   0.304 -0.3447  0.2889 -0.0614
16538TIP3    H171105   4.702   3.120   0.242  0.0397  0.3544 -0.3861
16538TIP3    H271106   4.786   2.995   0.261 -1.0546 -0.2579  0.5459
16539TIP3   OH271107   6.312   2.047  16.283  0.0253  0.0073 -0.6991
16539TIP3    H171108   6.244   2.069  16.219 -0.6518  0.6967  0.2347
16539TIP3    H271109   6.312   2.121  16.344  0.9283 -0.4607 -0.1094
16540TIP3   OH271110   6.154   0.970  11.992  0.1580 -0.6357 -0.0029
16540TIP3    H171111   6.208   0.946  11.917 -0.0347 -2.4813  0.4149
16540TIP3    H271112   6.206   0.945  12.068  1.7931  4.0796  0.7780
16541TIP3   OH271113   0.403   3.305   6.182 -0.2233 -0.0607 -0.0090
16541TIP3    H171114   0.409   3.400   6.173 -0.9936  0.0296  0.3963
16541TIP3    H271115   0.338   3.291   6.251 -0.4860 -0.8958 -0.4103
16542TIP3   OH271116   5.867   0.083   1.187 -0.6468  0.0034 -0.2092
16542TIP3    H171117   5.946   0.129   1.214  0.3286 -2.4892  1.5637
16542TIP3    H271118   5.799   0.114   1.246 -0.6691  1.0862 -0.7865
16543TIP3   OH271119   2.560   6.698   4.982 -0.6396  0.2223  0.0935
16543TIP3    H171120   2.503   6.759   4.935 -0.1900  0.1963 -0.5005
16543TIP3    H271121   2.557   6.729   5.073 -1.6334  0.1842  0.0870
16544TIP3   OH271122   1.993   3.061   3.446 -0.3638 -0.2995 -0.2301
16544TIP3    H171123   2.048   3.136   3.422 -3.6428  2.6040  0.4342
16544TIP3    H271124   1.992   3.006   3.368  2.3685  0.1070 -0.6668
16545TIP3   OH271125   2.652   6.805  12.320 -0.7683 -0.0998  0.3284
16545TIP3    H171126   2.651   6.883  12.375  1.3821  0.2653 -0.0565
16545TIP3    H271127   2.651   6.732  12.381 -0.5993  0.2639  0.7694
16546TIP3   OH271128   4.945   6.766   2.186  0.8143 -0.3709  0.5890
16546TIP3    H171129   4.904   6.752   2.100  2.2598 -0.7296 -0.0663
16546TIP3    H271130   4.907   6.849   2.217  0.5898 -0.0084 -0.5967
16547TIP3   OH271131   1.072   3.882  13.545  0.0936  0.4389 -0.2396
16547TIP3    H171132   1.093   3.969  13.510 -1.7377  1.4634  1.0376
16547TIP3    H271133   1.027   3.900  13.628  0.2024 -1.7655  0.3527
16548TIP3   OH271134   1.201   1.837  16.834 -0.1319  0.0054  0.0380
16548TIP3    H171135   1.105   1.842  16.843 -0.3038 -0.2644 -1.4585
16548TIP3    H271136   1.231   1.927  16.837 -0.7832  0.3953 -2.6220
16549TIP3   OH271137   0.870   4.718   5.787 -0.2999  0.3272 -0.0236
16549TIP3    H171138   0.949   4.673   5.758 -0.2681  0.1511  0.3344
16549TIP3    H271139   0.809   4.648   5.809  0.8473  0.3111  3.7253
16550TIP3   OH271140   3.671   6.126   1.833 -0.8336 -0.7912  0.0611
16550TIP3    H171141   3.581   6.157   1.838 -0.2712  1.0743 -0.5291
16550TIP3    H271142   3.689   6.122   1.739  0.2973  0.8220  0.1697
16551TIP3   OH271143   1.299   2.051   6.665  0.2040  0.0218  0.5410
16551TIP3    H171144   1.300   1.966   6.708  2.1459 -0.0407  0.4912
16551TIP3    H271145   1.366   2.044   6.597 -0.6842  1.1046 -0.4820
16552TIP3   OH271146   1.375   1.748   4.860  0.3367 -0.0439  0.0824
16552TIP3    H171147   1.426   1.817   4.903 -0.7236  0.0629  1.2369
16552TIP3    H271148   1.285   1.781   4.861 -0.1143 -1.2276  0.2034
16553TIP3   OH271149   4.016   6.322  15.395  0.3367 -0.0073  0.0408
16553TIP3    H171150   4.061   6.381  15.335 -0.3020 -0.0017 -0.4524
16553TIP3    H271151   3.934   6.301  15.350  0.7162 -1.5873  0.0221
16554TIP3   OH271152   3.817   0.280  12.077 -0.5045  0.6272  0.1488
16554TIP3    H171153   3.800   0.366  12.038 -0.4577  0.8887  0.7014
16554TIP3    H271154   3.841   0.299  12.167 -2.1776 -0.0719  0.7764
16555TIP3   OH271155   0.003   4.446  13.299  0.0060 -0.2491  0.6014
16555TIP3    H171156   0.081   4.495  13.274  0.4029 -0.3636  1.5332
16555TIP3    H271157   0.012   4.362  13.255  1.1447 -0.7862  1.7772
16556TIP3   OH271158   3.297   1.262  16.721  0.3283 -0.1174 -0.2559
16556TIP3    H171159   3.211   1.234  16.690  0.2908 -0.4619  0.1496
16556TIP3    H271160   3.353   1.261  16.643 -0.2057  0.8134 -0.6695
16557TIP3   OH271161   1.305   5.080  13.656 -0.4987 -0.3402 -0.0054
16557TIP3    H171162   1.227   5.031  13.631 -0.4977  1.7226 -5.2646
16557TIP3    H271163   1.377   5.036  13.613  0.4581  0.7089  0.4519
16558TIP3   OH271164   4.256   3.950  10.369 -0.5287 -0.8333  0.0223
16558TIP3    H171165   4.219   3.970  10.455 -1.0943 -0.6498 -0.2576
16558TIP3    H271166   4.344   3.987  10.371 -0.4615 -1.0052  0.5913
16559TIP3   OH271167   3.005   2.626   4.290 -0.0075 -0.2206 -0.0629
16559TIP3    H171168   3.063   2.680   4.236 -0.2972  0.9875  0.7906
16559TIP3    H271169   3.063   2.560   4.329  0.4436 -0.2214 -0.7163
16560TIP3   OH271170   2.755   1.998   3.088 -0.0227 -0.4177  0.0677
16560TIP3    H171171   2.740   2.016   3.181  0.8649  0.5682  0.0408
16560TIP3    H271172   2.810   1.919   3.088 -0.0091 -0.4102  0.3847
16561TIP3   OH271173   3.931   5.586  13.556  0.1623  0.1587 -0.3530
16561TIP3    H171174   3.954   5.661  13.611  3.4983 -0.0933 -1.1849
16561TIP3    H271175   3.857   5.617  13.504  1.4808  2.9927 -0.7477
16562TIP3   OH271176   0.743   2.121   5.434 -0.6448  0.4089 -0.3214
16562TIP3    H171177   0.738   2.192   5.369  0.3311  0.5682 -0.2295
16562TIP3    H271178   0.656   2.122   5.476 -0.4734  1.9434  0.0840
16563TIP3   OH271179   1.165   6.484  15.750 -0.4540 -0.3617  0.3137
16563TIP3    H171180   1.083   6.436  15.761 -0.9468  0.4575  0.3094
16563TIP3    H271181   1.155   6.562  15.805  0.8854 -0.9245  1.4009
16564TIP3   OH271182   1.304   6.107   3.295 -0.1663  0.1562  0.1680
16564TIP3    H171183   1.280   6.078   3.383  0.0459 -0.8613 -0.0966
16564TIP3    H271184   1.362   6.039   3.262  0.4410  0.9500 -0.4484
16565TIP3   OH271185   1.591   1.709  12.510  0.1616 -0.0397 -0.2602
16565TIP3    H171186   1.642   1.629  12.494  0.6310  0.4245 -1.1620
16565TIP3    H271187   1.572   1.707  12.604  0.0846 -1.2543 -0.2900
16566TIP3   OH271188   1.239   0.642  14.242  0.5053 -0.0278 -0.7258
16566TIP3    H171189   1.323   0.597  14.233  1.0670  0.1452  2.4084
16566TIP3    H271190   1.263   0.735  14.248  0.6755 -0.1355  3.5139
16567TIP3   OH271191   6.134   5.824   4.198 -0.2065 -0.0177  0.3337
16567TIP3    H171192   6.135   5.895   4.262  0.9157  1.2161 -0.9928
16567TIP3    H271193   6.172   5.749   4.244  1.0274  0.9795  0.9852
16568TIP3   OH271194   2.261   2.522  14.775  0.3041 -0.4911 -0.1481
16568TIP3    H171195   2.290   2.469  14.701  3.1212  1.7618 -0.8079
16568TIP3    H271196   2.183   2.567  14.742  0.0224 -1.4355 -0.8204
16569TIP3   OH271197   5.037   2.885   0.559  0.1558 -0.2907 -0.6191
16569TIP3    H171198   5.000   2.800   0.583 -0.1366  0.0734  0.2467
16569TIP3    H271199   5.126   2.865   0.529 -0.0979 -0.9573 -0.9388
16570TIP3   OH271200   1.377   1.126  12.569  0.2492  0.0066  0.4193
16570TIP3    H171201   1.448   1.071  12.536 -0.2784 -0.8376  0.6541
16570TIP3    H271202   1.396   1.137  12.662  0.3421  0.2084  0.3772
16571TIP3   OH271203   6.334   2.743  15.969  0.0372 -0.0802  0.2606
16571TIP3    H171204   6.299   2.655  15.956 -0.8718  0.4233 -0.8822
16571TIP3    H271205   6.427   2.736  15.946  0.1104 -0.8474  0.7449
16572TIP3   OH271206   0.096   4.059  16.400 -0.3003 -0.3199 -0.4379
16572TIP3    H171207   0.163   4.061  16.332  0.4727 -2.1229  0.1902
16572TIP3    H271208   0.013   4.049  16.353 -0.0773  1.1215 -1.1859
16573TIP3   OH271209   1.467   1.829  13.563  0.1148  0.1099  0.1244
16573TIP3    H171210   1.441   1.828  13.471 -0.1127  0.1395  0.1894
16573TIP3    H271211   1.528   1.755  13.571 -3.0113 -2.6128  0.8604
16574TIP3   OH271212   2.954   6.195   4.704  0.4480 -0.1971 -0.0241
16574TIP3    H171213   2.875   6.247   4.714 -0.3321 -1.2961 -0.2519
16574TIP3    H271214   2.975   6.166   4.793  1.4405  1.2422  0.2507
16575TIP3   OH271215   0.043   0.158  15.915 -0.0689  0.4118  0.1061
16575TIP3    H171216   0.115   0.181  15.857 -0.5482  2.2467  0.2022
16575TIP3    H271217  -0.031   0.142  15.857  0.2117 -0.7965  0.0526
16576TIP3   OH271218   4.033   5.982   3.680  0.0253 -0.4891  0.2166
16576TIP3    H171219   4.008   6.070   3.709  1.0655 -0.0827 -0.0966
16576TIP3    H271220   3.987   5.924   3.740  0.2266  0.2914  1.1563
16577TIP3   OH271221   5.200   4.286   2.898 -0.3230  0.0079 -0.1412
16577TIP3    H171222   5.263   4.351   2.868 -0.7986  0.7855  0.5216
16577TIP3    H271223   5.236   4.253   2.981 -0.4310 -0.0770 -0.1274
16578TIP3   OH271224   0.993   3.424  12.615  0.1111  0.1751  0.1458
16578TIP3    H171225   1.009   3.516  12.636 -1.2233  0.5470 -0.3666
16578TIP3    H271226   1.020   3.416  12.523  0.4642 -0.0083  0.2651
16579TIP3   OH271227   0.598   1.136   4.405 -0.4064  0.2325  0.4147
16579TIP3    H171228   0.602   1.181   4.489 -1.6075  0.8415  0.1687
16579TIP3    H271229   0.649   1.192   4.346  1.1282 -0.6124  0.8830
16580TIP3   OH271230   1.487   0.104   1.981  0.0698 -0.0270  0.2183
16580TIP3    H171231   1.425   0.056   1.926  0.7326  0.1644 -0.7227
16580TIP3    H271232   1.433   0.146   2.047 -0.7372 -0.4068 -0.1862
16581TIP3   OH271233   1.152   2.140  15.610  0.0947  0.2829 -0.4173
16581TIP3    H171234   1.202   2.191  15.673  0.3201 -0.7577  0.2704
16581TIP3    H271235   1.199   2.058  15.603 -1.5485 -0.7856  0.3340
16582TIP3   OH271236   0.971   3.487  13.602 -0.2686 -0.0474 -0.3435
16582TIP3    H171237   1.022   3.519  13.527 -0.8844 -0.9210 -1.1727
16582TIP3    H271238   0.971   3.392  13.591 -4.0217 -0.0608 -1.7657
16583TIP3   OH271239   6.212   3.536  17.147  0.4061 -0.2544 -0.6886
16583TIP3    H171240   6.295   3.504  17.183  0.5343  0.1609 -0.6058
16583TIP3    H271241   6.234   3.564  17.058  0.4998  0.4498 -0.4524
16584TIP3   OH271242   4.999   0.588  11.802 -0.4512  0.6344  0.4691
16584TIP3    H171243   5.073   0.534  11.775 -1.3973 -0.2065 -0.5470
16584TIP3    H271244   4.931   0.525  11.826 -1.3026  1.3725  0.0510
16585TIP3   OH271245   3.677   1.682   0.031  0.9442 -0.0894 -0.0989
16585TIP3    H171246   3.709   1.771   0.018  1.5432 -0.2221  0.4169
16585TIP3    H271247   3.738   1.643   0.093 -0.1522 -0.3895  0.8427
16586TIP3   OH271248   1.832   1.949  14.223 -0.0771  0.0446  0.3111
16586TIP3    H171249   1.839   2.035  14.263  0.9291  0.2620 -0.2926
16586TIP3    H271250   1.769   1.961  14.151  0.6295  0.4742 -0.2481
16587TIP3   OH271251   1.224   4.767   2.298  0.5286  0.4375  0.2216
16587TIP3    H171252   1.242   4.851   2.341  0.5881 -0.6195  2.3259
16587TIP3    H271253   1.140   4.781   2.254  1.0689  1.9306 -0.4124
16588TIP3   OH271254   3.940   4.415  11.151  0.3622 -0.3861 -0.4222
16588TIP3    H171255   3.875   4.424  11.220 -0.0063 -2.3251 -0.4476
16588TIP3    H271256   4.008   4.359  11.189 -0.4338 -2.5182 -1.9290
16589TIP3   OH271257   6.452   1.188  16.997 -0.1198 -0.1684 -0.1817
16589TIP3    H171258   6.372   1.220  16.956  0.2474  0.2962 -0.5472
16589TIP3    H271259   6.483   1.119  16.939 -1.3557 -1.8190  1.0302
16590TIP3   OH271260   0.519   2.055   5.927 -0.0632  0.0172 -0.2208
16590TIP3    H171261   0.577   1.981   5.911  0.2469  0.5296 -1.5630
16590TIP3    H271262   0.491   2.044   6.018  0.8520 -1.1224 -0.0564
16591TIP3   OH271263   2.180   4.792   2.610 -0.5008 -0.1864  0.0153
16591TIP3    H171264   2.229   4.748   2.679  0.7300  2.7220  1.1454
16591TIP3    H271265   2.241   4.797   2.537 -0.7082 -0.5244 -0.1818
16592TIP3   OH271266   6.582   4.770   1.928 -0.3507 -0.1977 -0.4403
16592TIP3    H171267   6.645   4.801   1.993 -2.8050 -0.3807  2.2676
16592TIP3    H271268   6.586   4.833   1.857 -1.4668  3.4929  2.4754
16593TIP3   OH271269   2.299   5.650  14.949 -0.3643  0.3448  0.5554
16593TIP3    H171270   2.320   5.573  14.896 -0.4777 -0.3494  1.4985
16593TIP3    H271271   2.206   5.665  14.934 -1.3638 -2.1148  3.3185
16594TIP3   OH271272   4.752   5.427  15.016  0.0531 -0.9823  0.3705
16594TIP3    H171273   4.815   5.497  15.034  0.9307 -1.6890  0.1106
16594TIP3    H271274   4.795   5.372  14.951 -1.1705 -1.0498 -0.4118
16595TIP3   OH271275   5.482   3.099   6.072  0.0299 -0.5862  0.5225
16595TIP3    H171276   5.485   3.053   6.156  2.4009  1.7560  1.8881
16595TIP3    H271277   5.496   3.191   6.094 -0.0874  0.2518 -2.3981
16596TIP3   OH271278   6.710   6.278   5.269  0.2136  0.1695 -0.0186
16596TIP3    H171279   6.790   6.309   5.310  0.9775  0.9813 -1.9820
16596TIP3    H271280   6.642   6.336   5.302  0.5764 -0.0027  1.0471
16597TIP3   OH271281   0.813   1.283  11.549 -0.4020  0.5141  0.2722
16597TIP3    H171282   0.901   1.253  11.572 -0.7980 -0.7995  0.1730
16597TIP3    H271283   0.828   1.362  11.496  0.8108 -0.5036 -1.0041
16598TIP3   OH271284   0.357   6.120  14.542 -0.0048  0.3174  0.5526
16598TIP3    H171285   0.275   6.126  14.493 -0.3568 -1.1297  0.9085
16598TIP3    H271286   0.414   6.065  14.487  0.8441  1.5290  0.1818
16599TIP3   OH271287   5.856   3.094  11.552  0.2094  0.2273 -0.2223
16599TIP3    H171288   5.940   3.133  11.527  0.4478 -0.5132 -0.6038
16599TIP3    H271289   5.871   3.059  11.640 -0.0351  1.0712  0.1613
16600TIP3   OH271290   3.451   6.649  12.983 -0.3245  0.2834  0.5231
16600TIP3    H171291   3.448   6.566  12.936  0.0600 -0.0913  1.1483
16600TIP3    H271292   3.370   6.694  12.957  1.3033  1.5386 -3.0294
16601TIP3   OH271293   0.700   0.253  12.665 -0.0561 -0.1461  0.0397
16601TIP3    H171294   0.663   0.323  12.611 -0.2649  0.4837  0.9694
16601TIP3    H271295   0.786   0.286  12.691  0.0671 -0.4682  0.0390
16602TIP3   OH271296   6.121   0.588   0.757  0.9777 -0.0152 -0.5278
16602TIP3    H171297   6.061   0.656   0.789 -0.0543 -0.6807 -1.0015
16602TIP3    H271298   6.174   0.633   0.692 -0.0229  0.2436 -1.1871
16603TIP3   OH271299   5.376   1.575   6.265 -0.4283  0.3423 -0.2991
16603TIP3    H171300   5.326   1.555   6.345  2.8696 -0.7821  1.6836
16603TIP3    H271301   5.442   1.638   6.293  0.7877 -0.0338 -2.1428
16604TIP3   OH271302   5.047   2.936  15.673 -0.2444 -0.1494  0.0716
16604TIP3    H171303   5.041   2.841  15.670 -0.6525 -0.1245 -0.0456
16604TIP3    H271304   5.133   2.957  15.636 -0.1645 -0.4686  0.0761
16605TIP3   OH271305   3.452   5.481   3.357 -0.5822 -0.4055 -0.4500
16605TIP3    H171306   3.360   5.458   3.370 -0.7945  0.3280 -0.5645
16605TIP3    H271307   3.474   5.446   3.271 -0.7985 -0.4550 -0.4860
16606TIP3   OH271308   3.811   0.109   2.554  0.0055 -0.0246  0.0345
16606TIP3    H171309   3.883   0.108   2.616 -2.6425 -0.5517  3.3877
16606TIP3    H271310   3.755   0.181   2.582 -1.8760 -0.9876 -1.0132
16607TIP3   OH271311   4.316   6.693   4.421  0.0274  0.6283 -0.9351
16607TIP3    H171312   4.354   6.672   4.336  0.2166 -2.1255 -0.2467
16607TIP3    H271313   4.230   6.651   4.420 -0.3624  1.3755 -0.1035
16608TIP3   OH271314   0.621   1.716  12.539 -0.0760 -0.0678 -0.1911
16608TIP3    H171315   0.625   1.695  12.633 -0.6229  1.5876  0.2332
16608TIP3    H271316   0.535   1.757  12.528 -1.5373 -3.2478 -2.1094
16609TIP3   OH271317   2.873   2.426  16.059  0.4274 -0.1746 -0.6026
16609TIP3    H171318   2.905   2.408  15.970 -0.4204 -0.4999 -0.8528
16609TIP3    H271319   2.782   2.453  16.046  0.5264  0.5230  0.1109
16610TIP3   OH271320   3.642   0.686   0.989  0.5298 -0.6293 -0.0228
16610TIP3    H171321   3.727   0.716   0.957  0.3312  0.0931  0.1076
16610TIP3    H271322   3.589   0.676   0.910  0.5547 -0.5024 -0.0554
16611TIP3   OH271323   6.713   3.756  13.646 -0.3605  0.6276  0.5316
16611TIP3    H171324   6.791   3.742  13.591 -2.0958 -0.2256 -1.8802
16611TIP3    H271325   6.697   3.850  13.641  0.3726  0.7751  0.8522
16612TIP3   OH271326   0.371   5.298  15.144  0.1894 -0.2077 -0.0751
16612TIP3    H171327   0.457   5.275  15.180  0.4252 -0.9982 -1.1036
16612TIP3    H271328   0.390   5.332  15.057 -0.5688 -0.9559 -0.5462
16613TIP3   OH271329   3.841   0.150   3.653  0.2075 -0.5247  0.1695
16613TIP3    H171330   3.882   0.070   3.619 -0.2025 -0.1244 -1.3556
16613TIP3    H271331   3.747   0.130   3.653  0.1312 -0.1679  0.1313
16614TIP3   OH271332   1.233   5.505   1.163  0.0185 -0.1287  0.2088
16614TIP3    H171333   1.316   5.551   1.153 -0.2388  0.4233  0.5490
16614TIP3    H271334   1.250   5.438   1.228 -0.1848  0.9726  1.4332
16615TIP3   OH271335   0.650   2.226   2.307 -0.0465 -0.4733  0.3440
16615TIP3    H171336   0.580   2.162   2.319 -0.0212 -0.5714 -0.0280
16615TIP3    H271337   0.609   2.311   2.323  0.0762 -0.6167  1.5307
16616TIP3   OH271338   3.227   3.016   1.696  0.5915 -0.4365  0.4298
16616TIP3    H171339   3.252   2.944   1.753 -0.7388 -0.9764  0.3784
16616TIP3    H271340   3.153   2.982   1.646  1.6276  0.0701 -1.5309
16617TIP3   OH271341   1.447   3.388  12.557 -0.2644  0.3561  0.0464
16617TIP3    H171342   1.407   3.426  12.636 -2.2205 -0.6503 -0.4134
16617TIP3    H271343   1.494   3.312  12.589  0.9416  1.2661  0.5248
16618TIP3   OH271344   1.647   6.780  11.385  0.0809 -0.0459 -0.1201
16618TIP3    H171345   1.616   6.832  11.311 -0.2946  1.5931  1.1225
16618TIP3    H271346   1.633   6.689  11.359 -0.5531  0.5072 -1.8202
16619TIP3   OH271347   0.899   5.198  12.317  0.3018 -0.2955  0.3552
16619TIP3    H171348   0.870   5.253  12.389 -0.8735  2.3134 -1.9190
16619TIP3    H271349   0.885   5.108  12.348 -5.7639  0.5953  1.4423
16620TIP3   OH271350   0.764   4.837   0.764 -0.2916 -0.0911  0.1679
16620TIP3    H171351   0.782   4.930   0.779  0.8672 -0.5738  2.3049
16620TIP3    H271352   0.670   4.828   0.774 -0.5047  0.9471 -0.7854
16621TIP3   OH271353   6.084   6.401   5.329 -0.2748  0.0355 -0.6826
16621TIP3    H171354   6.105   6.486   5.290  1.7136  0.8891  1.9037
16621TIP3    H271355   6.152   6.342   5.295 -0.2433  0.0680 -0.6761
16622TIP3   OH271356   5.822   4.610   5.639 -0.4225  0.2023  0.0204
16622TIP3    H171357   5.825   4.559   5.719 -0.3689 -0.1058 -0.1763
16622TIP3    H271358   5.823   4.701   5.668  1.0780  0.1170  0.3377
16623TIP3   OH271359   4.156   5.330  12.729 -0.2731 -0.5738 -0.0209
16623TIP3    H171360   4.241   5.330  12.773 -0.4025  0.9854  0.2687
16623TIP3    H271361   4.092   5.332  12.801 -0.5160  0.0296 -0.2486
16624TIP3   OH271362   4.203   1.303   2.905 -0.1192  0.5577  0.4698
16624TIP3    H171363   4.232   1.326   2.816  0.9587  0.6699  0.8400
16624TIP3    H271364   4.117   1.264   2.892 -0.1080  0.8502 -0.6002
16625TIP3   OH271365   0.431   5.923   2.494 -0.3859  0.0333  0.1740
16625TIP3    H171366   0.480   5.942   2.414  0.6803  0.0023  0.7950
16625TIP3    H271367   0.439   5.828   2.505 -1.4568 -0.1235 -0.2465
16626TIP3   OH271368   3.605   3.961  10.753 -0.2026  0.0789 -0.6091
16626TIP3    H171369   3.579   3.881  10.799  2.0173  0.6325  1.8615
16626TIP3    H271370   3.609   3.935  10.661  3.0012 -3.5375  0.2835
16627TIP3   OH271371   3.141   5.714   2.228 -0.6146  0.7097 -0.2869
16627TIP3    H171372   3.141   5.627   2.186 -1.7229  0.4668  0.1831
16627TIP3    H271373   3.115   5.697   2.318  2.6351  1.1132  0.8610
16628TIP3   OH271374   4.055   5.278   3.085  0.0615  0.1369  0.3477
16628TIP3    H171375   4.038   5.204   3.142  0.3998  0.2763  0.6369
16628TIP3    H271376   4.150   5.292   3.091  0.6394 -1.6605 -2.4817
16629TIP3   OH271377   5.169   2.111  16.879  0.2742  0.4068 -0.3740
16629TIP3    H171378   5.199   2.039  16.935 -0.4974 -1.5136 -2.2534
16629TIP3    H271379   5.074   2.100  16.876  0.2110  1.1020 -1.1950
16630TIP3   OH271380   0.652   4.963  11.198 -0.0027  0.0624 -0.1658
16630TIP3    H171381   0.728   5.007  11.237  0.2149 -0.8130  0.4346
16630TIP3    H271382   0.689   4.886  11.155 -0.6476 -0.9459  1.0286
16631TIP3   OH271383   3.050   0.407  14.630 -0.2453  0.0184 -0.0784
16631TIP3    H171384   3.020   0.495  14.651 -2.0791 -0.2627 -1.2258
16631TIP3    H271385   3.111   0.418  14.558 -0.6593  0.3485 -0.3819
16632TIP3   OH271386   0.975   5.339  14.817 -0.0795 -0.1674  0.6245
16632TIP3    H171387   0.908   5.336  14.885  0.3372 -0.8034  1.0186
16632TIP3    H271388   1.056   5.359  14.864  0.0085  0.6927  0.1422
16633TIP3   OH271389   3.678   5.552  10.743 -0.6740  0.1387  0.3066
16633TIP3    H171390   3.697   5.464  10.777 -2.7892 -0.1531  0.9144
16633TIP3    H271391   3.614   5.537  10.673 -0.9206  1.1572  0.3052
16634TIP3   OH271392   2.747   1.711  15.666  0.7071 -0.5449  0.2675
16634TIP3    H171393   2.813   1.698  15.598  0.6104 -0.6843  0.1992
16634TIP3    H271394   2.726   1.804  15.661  0.6172 -0.5771  0.0285
16635TIP3   OH271395   4.735   0.605   0.658  0.4447  0.1366  0.3299
16635TIP3    H171396   4.828   0.588   0.674  0.4297 -0.1795  0.0774
16635TIP3    H271397   4.706   0.531   0.606 -0.0290  0.0701  0.6850
16636TIP3   OH271398   5.902   4.853   0.354  0.1227  0.5026  0.1793
16636TIP3    H171399   5.813   4.886   0.348  0.2368  0.5488 -1.9849
16636TIP3    H271400   5.894   4.758   0.345  0.2957  0.5246 -0.2427
16637TIP3   OH271401   3.626   2.349  10.447 -0.2705 -0.3987  0.1301
16637TIP3    H171402   3.631   2.427  10.392 -0.7699 -1.4517 -1.4725
16637TIP3    H271403   3.533   2.337  10.464 -0.1595 -0.3924  0.7593
16638TIP3   OH271404   4.122   0.887  17.002 -0.4237  0.3804 -0.2951
16638TIP3    H171405   4.054   0.823  17.023 -0.2258 -0.2962 -1.5931
16638TIP3    H271406   4.191   0.836  16.959 -0.2327  1.4494 -1.3086
16639TIP3   OH271407   4.499   6.819   4.609  0.3439  0.4182 -0.7453
16639TIP3    H171408   4.560   6.745   4.608  0.1323  0.2415 -2.2616
16639TIP3    H271409   4.445   6.807   4.531  0.1077  2.0170 -0.8588
16640TIP3   OH271410   4.783   6.319   5.784 -0.1542 -0.0696 -0.1064
16640TIP3    H171411   4.872   6.351   5.800 -0.2003 -0.3969  0.8781
16640TIP3    H271412   4.779   6.304   5.690  2.0696 -3.5622  0.1590
16641TIP3   OH271413   6.215   4.726   2.732  0.0302 -0.5187 -0.1958
16641TIP3    H171414   6.215   4.799   2.794 -0.1439 -2.0300  1.6664
16641TIP3    H271415   6.298   4.735   2.685  0.1550  0.6924  0.2168
16642TIP3   OH271416   3.224   5.026  17.225  0.6723 -0.3662 -0.1796
16642TIP3    H171417   3.236   4.935  17.200 -0.5566 -0.9569  1.2254
16642TIP3    H271418   3.250   5.029  17.317  0.6118  0.6817 -0.1863
16643TIP3   OH271419   1.004   5.449   5.894 -0.2507 -0.1706 -0.0845
16643TIP3    H171420   0.949   5.378   5.929  0.7770 -0.7454  0.3990
16643TIP3    H271421   1.035   5.496   5.971 -0.1540  0.2232 -0.3608
16644TIP3   OH271422   0.878   2.200   1.008 -0.3643  0.6103 -0.4998
16644TIP3    H171423   0.894   2.184   0.915  0.5421 -2.3142  0.0464
16644TIP3    H271424   0.953   2.159   1.052 -1.8098  0.0735  1.5921
16645TIP3   OH271425   5.951   1.378   1.908 -0.0285  0.0354  0.4094
16645TIP3    H171426   5.985   1.325   1.980  0.8752 -1.2269 -0.8973
16645TIP3    H271427   5.986   1.466   1.924 -1.2728  0.2369  2.4253
16646TIP3   OH271428   2.324   2.108   4.525  0.7306  0.5503 -0.3798
16646TIP3    H171429   2.397   2.116   4.586 -0.5622  1.4217  1.1504
16646TIP3    H271430   2.304   2.199   4.499 -1.0010  0.5675  0.7993
16647TIP3   OH271431   4.033   6.508  10.304  1.0335 -0.3302 -0.2682
16647TIP3    H171432   4.036   6.566  10.228 -1.1781 -0.5450 -0.5967
16647TIP3    H271433   4.029   6.420  10.267  0.7992 -0.4872  0.1229
16648TIP3   OH271434   6.059   1.835   5.915 -0.0497 -0.6937 -0.2558
16648TIP3    H171435   6.064   1.778   5.838  1.0781 -0.5369 -0.3096
16648TIP3    H271436   5.986   1.894   5.895  1.2686  0.4602 -2.0084
16649TIP3   OH271437   2.831   5.671  15.021  0.4732 -0.2322  0.4818
16649TIP3    H171438   2.904   5.664  15.082  1.8409  0.2355 -1.0368
16649TIP3    H271439   2.833   5.762  14.991 -0.2208 -0.4255 -0.1925
16650TIP3   OH271440   4.039   1.268  13.747  0.0557  0.7397  0.5709
16650TIP3    H171441   3.975   1.257  13.816 -1.7564 -0.7854 -1.2226
16650TIP3    H271442   4.008   1.211  13.676  3.2944  0.0304 -0.4776
16651TIP3   OH271443   5.768   1.006  15.304  0.1451  0.3767 -0.3057
16651TIP3    H171444   5.786   1.091  15.265  0.9854  0.4409  0.2082
16651TIP3    H271445   5.853   0.963  15.310 -0.2245 -0.3804 -0.2677
16652TIP3   OH271446   0.159   0.955   3.733 -0.1431  0.1681 -0.1644
16652TIP3    H171447   0.064   0.953   3.722 -0.2995  0.6992  0.9058
16652TIP3    H271448   0.172   0.935   3.826  0.7384  0.9182 -0.1202
16653TIP3   OH271449   0.954   5.466  17.081  0.2561 -0.3504  0.4599
16653TIP3    H171450   1.015   5.431  17.145  0.0482  0.9129  1.3869
16653TIP3    H271451   0.992   5.550  17.054  0.4045 -0.9119 -1.1746
16654TIP3   OH271452   2.107   3.397   5.440  0.1187  0.4422 -0.1941
16654TIP3    H171453   2.106   3.302   5.429  0.0801  0.5255 -0.9475
16654TIP3    H271454   2.088   3.410   5.532 -2.0228 -0.2106 -0.4931
16655TIP3   OH271455   4.488   6.431  11.499  0.3407 -0.1258  0.1249
16655TIP3    H171456   4.536   6.351  11.522 -1.4173 -1.1877  0.2579
16655TIP3    H271457   4.508   6.446  11.407  0.7116 -0.6904  0.1090
16656TIP3   OH271458   5.566   1.115   6.057 -0.4124 -0.6723  0.8947
16656TIP3    H171459   5.649   1.163   6.053 -0.4297 -0.7238 -1.8280
16656TIP3    H271460   5.517   1.157   6.128  0.8755  1.1430  0.7714
16657TIP3   OH271461   1.777   1.655  14.931 -0.4272  0.1342  0.7471
16657TIP3    H171462   1.858   1.608  14.911  0.1190  0.6762  1.6178
16657TIP3    H271463   1.798   1.747  14.912 -1.4275  0.0780 -0.7746
16658TIP3   OH271464   5.248   4.636   5.165  0.1459 -0.1288  0.5388
16658TIP3    H171465   5.306   4.640   5.088  0.5588  2.1909  0.8877
16658TIP3    H271466   5.291   4.573   5.223  0.7001 -0.6976 -0.4394
16659TIP3   OH271467   3.204   5.884  12.834 -0.2656  0.3093 -0.2429
16659TIP3    H171468   3.260   5.909  12.908  1.4998  0.2532 -1.4997
16659TIP3    H271469   3.217   5.790  12.825 -1.9418 -0.0280  0.5007
16660TIP3   OH271470   5.220   4.521   0.362  0.2066  0.5126 -0.1130
16660TIP3    H171471   5.131   4.505   0.330  0.4967  1.2055 -1.3149
16660TIP3    H271472   5.276   4.467   0.306  0.6522  1.0439 -0.1877
16661TIP3   OH271473   3.768   0.202  17.204  0.4171 -0.3215  0.1753
16661TIP3    H171474   3.675   0.180  17.197  0.2079  0.3740  0.6701
16661TIP3    H271475   3.783   0.268  17.137 -0.0826  1.5170  1.7662
16662TIP3   OH271476   2.029   3.871  12.352  0.2200 -0.1136  0.6602
16662TIP3    H171477   2.065   3.944  12.302  1.9414 -1.1154  0.3628
16662TIP3    H271478   2.049   3.890  12.443  2.1077 -0.9226  0.4549
16663TIP3   OH271479   1.842   2.538   5.781  0.2531 -0.0225  0.8657
16663TIP3    H171480   1.813   2.473   5.716 -0.5665  2.2916 -1.2340
16663TIP3    H271481   1.936   2.549   5.764  0.1973  0.0240  0.5856
16664TIP3   OH271482   5.370   3.215  14.367 -0.0498  0.0734  0.0416
16664TIP3    H171483   5.322   3.291  14.333 -0.0183  0.8679  1.6644
16664TIP3    H271484   5.355   3.218  14.461  1.0032 -1.2199  0.2769
16665TIP3   OH271485   4.237   5.019  11.397  1.1499 -0.0886 -0.2178
16665TIP3    H171486   4.244   4.934  11.442  0.3676  0.1811  0.4363
16665TIP3    H271487   4.147   5.047  11.414  1.2470  0.6295 -0.8763
16666TIP3   OH271488   1.012   3.613   4.477  0.0084 -0.0561 -0.4937
16666TIP3    H171489   1.083   3.638   4.418  0.8746 -1.7945 -0.2330
16666TIP3    H271490   0.983   3.527   4.445 -0.3971 -0.4265  0.8238
16667TIP3   OH271491   1.110   3.206  11.939  0.1776 -0.4154  0.1913
16667TIP3    H171492   1.157   3.122  11.947  0.3133 -0.7495 -2.9955
16667TIP3    H271493   1.133   3.239  11.853 -3.5084  0.6283 -0.5832
16668TIP3   OH271494   4.017   0.195   5.978  0.1528 -0.2103 -0.7556
16668TIP3    H171495   4.009   0.288   5.957  1.7096  0.2403  0.3889
16668TIP3    H271496   4.111   0.177   5.971  0.1091 -1.2355  0.6918
16669TIP3   OH271497   0.043   2.327   1.508 -0.5629  0.0629  0.2754
16669TIP3    H171498  -0.012   2.405   1.512 -2.1594 -0.8561 -1.8268
16669TIP3    H271499   0.030   2.292   1.420  1.8861 -1.3431  0.3610
16670TIP3   OH271500   4.388   6.018  14.325 -0.3484 -0.4592 -0.2013
16670TIP3    H171501   4.354   5.943  14.373  0.9844 -0.9453  0.0504
16670TIP3    H271502   4.442   5.979  14.255 -0.9794  0.2526 -1.1134
16671TIP3   OH271503   3.638   3.379  14.930  0.0196  0.1618 -0.3677
16671TIP3    H171504   3.583   3.351  14.856 -1.1166  0.9497  0.1525
16671TIP3    H271505   3.625   3.311  14.996 -0.0564  0.1681 -0.3760
16672TIP3   OH271506   6.714   2.550  13.805 -0.3264  0.4693  0.0993
16672TIP3    H171507   6.704   2.460  13.776 -0.2889  0.3480  0.4631
16672TIP3    H271508   6.757   2.594  13.732  0.4640 -0.0085  0.2644
16673TIP3   OH271509   0.369   1.806   4.213 -0.3656 -0.1557  0.2288
16673TIP3    H171510   0.407   1.725   4.245 -1.2736 -0.1708  1.3374
16673TIP3    H271511   0.321   1.780   4.134  0.5124 -0.4258 -0.2272
16674TIP3   OH271512   1.274   3.603  14.409 -0.3074 -0.6260  0.1538
16674TIP3    H171513   1.284   3.557  14.325 -0.8184 -1.1276  0.3583
16674TIP3    H271514   1.356   3.585  14.455 -0.0280 -0.3569 -0.2327
16675TIP3   OH271515   3.560   3.979   0.705 -0.1345  0.2745  0.0030
16675TIP3    H171516   3.559   3.958   0.798  0.1210  0.0636 -0.0418
16675TIP3    H271517   3.469   4.001   0.684  0.0243  1.5662  0.5824
16676TIP3   OH271518   2.450   6.359   0.422  0.2642  0.6187  0.5295
16676TIP3    H171519   2.384   6.309   0.469 -0.5128  1.4350  0.3320
16676TIP3    H271520   2.494   6.295   0.366  0.2949 -0.1039  1.3684
16677TIP3   OH271521   0.615   4.471  11.327 -0.3344  0.1623  0.3214
16677TIP3    H171522   0.657   4.481  11.242  0.3090  1.3010  0.7432
16677TIP3    H271523   0.565   4.390  11.320  2.0759 -1.3778 -0.1396
16678TIP3   OH271524   4.932   0.963  13.295  0.1134 -0.6731 -0.6874
16678TIP3    H171525   4.943   1.055  13.319 -1.0646 -0.6941  0.0672
16678TIP3    H271526   5.008   0.942  13.242  2.3981 -0.2918  2.2036
16679TIP3   OH271527   6.274   6.656   6.281  0.1158  0.0042 -0.5289
16679TIP3    H171528   6.231   6.711   6.215 -1.3189 -1.9132 -1.2804
16679TIP3    H271529   6.203   6.628   6.339  0.8460 -0.8384 -0.0104
16680TIP3   OH271530   3.827   0.388  11.445  0.5931 -0.1712 -0.2442
16680TIP3    H171531   3.910   0.412  11.486 -0.8293  2.0082  1.6359
16680TIP3    H271532   3.769   0.368  11.518 -1.5035  1.8709 -1.2200
16681TIP3   OH271533   4.716   5.906  12.008 -0.3751 -0.0074  0.2099
16681TIP3    H171534   4.714   5.914  12.104  1.0694  1.3626  0.1530
16681TIP3    H271535   4.784   5.967  11.980 -0.3515 -0.8411 -1.6635
16682TIP3   OH271536   6.074   2.223   4.915  0.1515  0.0995  0.7371
16682TIP3    H171537   6.151   2.206   4.969 -0.3941  0.5824  1.6934
16682TIP3    H271538   6.089   2.310   4.878  0.6947 -0.3801 -0.2186
16683TIP3   OH271539   6.151   4.121   1.952  0.1366 -0.0164 -0.0127
16683TIP3    H171540   6.225   4.061   1.961  0.9879  0.9262 -0.4706
16683TIP3    H271541   6.095   4.080   1.886 -0.0701 -1.0245  0.7542
16684TIP3   OH271542   4.524   4.700   2.826 -0.3210 -0.3670 -0.2583
16684TIP3    H171543   4.434   4.668   2.826 -0.8072  0.9139  0.0019
16684TIP3    H271544   4.537   4.734   2.915 -0.0488  0.6657 -0.6796
16685TIP3   OH271545   4.064   1.014   5.073 -0.3248  0.4667 -0.6598
16685TIP3    H171546   4.137   0.961   5.106  0.4330  0.9524 -1.5332
16685TIP3    H271547   4.103   1.097   5.048 -1.2492  0.8797 -0.7902
16686TIP3   OH271548   2.607   4.437  13.090 -0.2042 -0.4296 -0.1720
16686TIP3    H171549   2.674   4.504  13.098 -0.1880 -0.2886 -1.3738
16686TIP3    H271550   2.547   4.454  13.163 -0.0484  0.7060 -0.2942
16687TIP3   OH271551   4.500   1.133   1.934 -0.2600  0.2995 -0.0718
16687TIP3    H171552   4.512   1.166   2.023 -0.6188 -0.5022  0.2862
16687TIP3    H271553   4.450   1.052   1.945  0.6793 -0.4201 -0.9097
16688TIP3   OH271554   2.859   3.245  14.363  0.0207 -0.5618 -0.2201
16688TIP3    H171555   2.919   3.178  14.329 -0.6863 -2.8812  2.6138
16688TIP3    H271556   2.875   3.246  14.457  0.1099  3.5584 -0.1034
16689TIP3   OH271557   3.277   3.848  10.593 -0.2426  0.2265  0.0501
16689TIP3    H171558   3.214   3.779  10.570 -0.0652 -0.1076  0.5555
16689TIP3    H271559   3.351   3.801  10.630 -0.3082  0.7205  0.8248
16690TIP3   OH271560   1.708   5.294   3.569  0.6533 -0.6935  0.1004
16690TIP3    H171561   1.789   5.342   3.554  1.1238 -1.2470  0.8407
16690TIP3    H271562   1.689   5.253   3.485  0.1774  0.8423 -0.5896
16691TIP3   OH271563   1.718   4.318  13.362 -0.1186  0.0038 -0.4215
16691TIP3    H171564   1.673   4.255  13.418  0.2381 -1.4236 -1.6563
16691TIP3    H271565   1.805   4.328  13.401  0.4866 -1.7631 -1.2172
16692TIP3   OH271566   3.833   5.434   5.210  0.6263  0.3908  0.3573
16692TIP3    H171567   3.762   5.459   5.152  2.7925  1.2755 -2.1358
16692TIP3    H271568   3.854   5.515   5.258  0.4854  0.3514  0.4855
16693TIP3   OH271569   1.955   1.471   1.244 -0.1991  0.3357  0.1649
16693TIP3    H171570   1.967   1.407   1.174 -1.5641 -0.1490  0.3475
16693TIP3    H271571   2.044   1.493   1.273  0.2898 -1.6878  0.3051
16694TIP3   OH271572   1.655   2.516  14.065 -0.0712 -0.0044  0.5605
16694TIP3    H171573   1.696   2.434  14.039 -1.1981 -0.4999  0.2948
16694TIP3    H271574   1.564   2.508  14.035 -0.0076  1.6633 -0.1740
16695TIP3   OH271575   0.062   1.956  17.109 -0.1269  0.6047 -0.2546
16695TIP3    H171576  -0.025   1.918  17.099 -0.9702  2.4213 -0.1199
16695TIP3    H271577   0.075   1.961  17.204  0.2320  0.1297 -0.2738
16696TIP3   OH271578   4.506   6.361  12.632  0.8818  0.5715 -0.6594
16696TIP3    H171579   4.518   6.366  12.537  1.7429  1.4731 -0.5120
16696TIP3    H271580   4.590   6.388  12.669  0.5669  0.1974  0.3654
16697TIP3   OH271581   0.981   6.509  12.606 -0.1358 -0.3540  0.0220
16697TIP3    H171582   0.889   6.499  12.579 -0.7625 -2.6376  2.4897
16697TIP3    H271583   1.017   6.421  12.601  1.2952  0.1363  1.1162
16698TIP3   OH271584   5.330   2.096   3.074 -0.6373 -0.7603 -0.3671
16698TIP3    H171585   5.421   2.069   3.062  0.6805  2.1260  1.7174
16698TIP3    H271586   5.323   2.180   3.029 -2.7243 -1.5230 -1.6058
16699TIP3   OH271587   1.846   1.125   1.194  0.2854 -0.6243  0.2926
16699TIP3    H171588   1.804   1.133   1.280  1.2580 -0.2284  0.7519
16699TIP3    H271589   1.796   1.057   1.149 -2.5873  1.6793 -0.2581
16700TIP3   OH271590   1.905   5.747   5.613  0.0026  0.1050  0.1330
16700TIP3    H171591   1.885   5.738   5.706  0.1374  1.5595  0.3287
16700TIP3    H271592   1.822   5.729   5.569 -0.2307  0.0939  0.5755
16701TIP3   OH271593   4.819   3.830  14.706  0.1428 -0.2458 -0.1935
16701TIP3    H171594   4.914   3.840  14.716 -0.1179  3.2563 -0.0118
16701TIP3    H271595   4.808   3.742  14.671  3.4572 -0.7680 -0.2403
16702TIP3   OH271596   1.258   4.158  12.809 -0.1610 -0.4774 -0.6529
16702TIP3    H171597   1.268   4.237  12.861 -1.0005  0.0777 -1.3144
16702TIP3    H271598   1.334   4.104  12.833 -0.3834 -0.1349  0.9350
16703TIP3   OH271599   4.769   0.449   2.053  0.3259  0.4144 -0.4028
16703TIP3    H171600   4.720   0.407   2.123 -0.3715  1.0770 -0.4811
16703TIP3    H271601   4.710   0.446   1.977  2.1336 -3.0253 -1.9198
16704TIP3   OH271602   3.679   0.087  11.750 -0.1267  0.2018  0.6944
16704TIP3    H171603   3.742   0.159  11.752  0.3470 -0.1889  0.0395
16704TIP3    H271604   3.633   0.099  11.667 -0.2987 -0.0404  0.7540
16705TIP3   OH271605   2.223   1.917  16.934  0.0822 -0.0845  0.4361
16705TIP3    H171606   2.142   1.968  16.938 -1.1214 -1.7385 -1.2430
16705TIP3    H271607   2.293   1.983  16.934 -1.1275  1.3372  3.2529
16706TIP3   OH271608   6.505   5.081  14.626 -0.0515 -0.1234  0.8566
16706TIP3    H171609   6.485   5.022  14.699 -1.6704 -1.6256 -0.7049
16706TIP3    H271610   6.555   5.027  14.565 -1.1005  0.2458 -0.3693
16707TIP3   OH271611   5.912   4.180  15.887  0.4194 -0.1632  0.1377
16707TIP3    H171612   5.830   4.138  15.912 -0.0796 -0.1661 -1.4387
16707TIP3    H271613   5.960   4.113  15.839  0.6399  0.3509 -0.3653
16708TIP3   OH271614   4.554   4.845  13.982 -0.0367  0.4086  0.1000
16708TIP3    H171615   4.555   4.888  14.068  1.1307  1.5138 -0.4416
16708TIP3    H271616   4.529   4.914  13.921  1.4453  0.2397 -0.7353
16709TIP3   OH271617   4.886   1.275   0.660  0.0550 -0.0810  0.3735
16709TIP3    H171618   4.823   1.333   0.704  1.4444  2.1228 -0.3325
16709TIP3    H271619   4.877   1.297   0.567  1.0047 -0.6057  0.1513
16710TIP3   OH271620   2.082   4.325  12.753  0.2206  0.0698  0.5009
16710TIP3    H171621   2.110   4.331  12.844 -0.2500  0.6984  0.6079
16710TIP3    H271622   2.163   4.309  12.704  0.3799 -1.0427  1.0964
16711TIP3   OH271623   1.710   2.231  11.303 -0.3131  0.5613 -0.2815
16711TIP3    H171624   1.717   2.323  11.327  0.1802  0.5689 -0.4228
16711TIP3    H271625   1.780   2.188  11.353  1.3303  0.7217 -2.3110
16712TIP3   OH271626   5.382   4.365  11.810 -0.2484  0.0703 -0.0634
16712TIP3    H171627   5.363   4.286  11.758 -0.4657 -0.2657  0.5206
16712TIP3    H271628   5.355   4.438  11.754  1.0619 -0.1927 -1.1073
16713TIP3   OH271629   0.382   1.108  11.943 -0.0413 -0.0710 -0.2364
16713TIP3    H171630   0.315   1.118  11.874 -2.3772 -0.9696  1.7624
16713TIP3    H271631   0.426   1.026  11.921 -1.4986 -0.9220 -0.1561
16714TIP3   OH271632   1.778   2.544  15.493 -0.2155 -0.1490  0.2832
16714TIP3    H171633   1.691   2.572  15.521 -0.9547 -0.7180 -1.3240
16714TIP3    H271634   1.762   2.481  15.423  1.5106  0.6428 -0.9102
16715TIP3   OH271635   2.203   4.760  13.700 -0.4568  0.3001  0.5465
16715TIP3    H171636   2.286   4.737  13.741  0.3100 -0.4626 -1.2954
16715TIP3    H271637   2.203   4.856  13.697  1.1446  0.2998 -0.8428
16716TIP3   OH271638   0.680   0.752   6.224  0.7842 -0.1049 -0.0655
16716TIP3    H171639   0.720   0.748   6.310 -1.4411  1.6935  1.1554
16716TIP3    H271640   0.747   0.790   6.168  2.0112 -0.6239  1.0039
16717TIP3   OH271641   3.079   4.146  11.998  0.3050  0.1501  0.1635
16717TIP3    H171642   3.011   4.141  11.931  1.1856  0.9712 -0.8260
16717TIP3    H271643   3.083   4.239  12.021  0.6111 -0.0014  0.7472
16718TIP3   OH271644   5.522   5.488   2.831  0.0415 -0.4230 -0.1131
16718TIP3    H171645   5.551   5.474   2.921 -2.2417 -2.9545  0.3554
16718TIP3    H271646   5.440   5.536   2.840  0.5829  0.7215 -0.9969
16719TIP3   OH271647   5.786   6.194  11.662  0.3852 -0.1803  0.4929
16719TIP3    H171648   5.700   6.231  11.682  0.6021  0.8334 -0.3653
16719TIP3    H271649   5.846   6.267  11.669  0.7709 -0.2103 -1.6655
16720TIP3   OH271650   2.480   0.254  11.554 -0.1147 -0.2250  0.5978
16720TIP3    H171651   2.518   0.342  11.554 -1.1496  0.2528 -0.6669
16720TIP3    H271652   2.533   0.205  11.491 -0.8934  0.1355 -0.3554
16721TIP3   OH271653   3.523   5.557   2.298 -0.6635  0.0373 -0.9015
16721TIP3    H171654   3.510   5.530   2.207 -0.8545  1.3954 -1.2896
16721TIP3    H271655   3.590   5.496   2.331  0.6666  0.5790 -2.4574
16722TIP3   OH271656   5.775   6.108   6.000 -0.1639  0.3195  0.3650
16722TIP3    H171657   5.727   6.099   6.083  0.4213  1.7029  0.8928
16722TIP3    H271658   5.715   6.157   5.943 -0.5321 -0.5573 -0.0265
16723TIP3   OH271659   5.461   3.978  14.465 -0.2649 -0.2671  0.3664
16723TIP3    H171660   5.530   3.916  14.442 -0.3329 -0.2331  0.0736
16723TIP3    H271661   5.381   3.939  14.429 -0.1405  0.5582 -0.8442
16724TIP3   OH271662   2.824   0.941  13.820  0.2541 -0.3185  0.2526
16724TIP3    H171663   2.859   1.027  13.845  0.3551 -0.3098  0.0812
16724TIP3    H271664   2.755   0.961  13.757  2.1297 -0.4787 -1.9588
16725TIP3   OH271665   0.169   3.334  13.585  0.0580  0.9968  0.8149
16725TIP3    H171666   0.159   3.422  13.622  1.1734  2.2921 -1.6918
16725TIP3    H271667   0.079   3.303  13.571 -0.3495  1.7991  1.5665
16726TIP3   OH271668   3.858   1.762   0.885  0.1886  0.4435 -0.0512
16726TIP3    H171669   3.899   1.687   0.927 -1.7477  0.1022  1.3543
16726TIP3    H271670   3.877   1.836   0.943 -1.5285  0.1849  0.8959
16727TIP3   OH271671   3.960   5.822  13.706 -0.0860 -0.7197 -0.4639
16727TIP3    H171672   3.924   5.870  13.632  2.6561 -0.5389 -1.8320
16727TIP3    H271673   3.929   5.869  13.783 -0.4910  1.0124 -1.6245
16728TIP3   OH271674   4.350   4.747   3.324 -0.4154  0.0672  0.2841
16728TIP3    H171675   4.300   4.666   3.314  0.2002 -0.2858 -0.0581
16728TIP3    H271676   4.342   4.770   3.416 -3.6759  1.6712 -0.2810
16729TIP3   OH271677   4.027   3.375  12.458 -0.2164 -0.2741 -0.7169
16729TIP3    H171678   4.018   3.281  12.447 -0.7811 -0.2588 -0.4120
16729TIP3    H271679   4.105   3.386  12.513 -0.6047 -0.6043 -0.0891
16730TIP3   OH271680   4.717   1.449   4.829  0.0790  0.6705  0.1907
16730TIP3    H171681   4.673   1.515   4.883  0.0134  1.3534 -0.6598
16730TIP3    H271682   4.678   1.366   4.855 -0.2260  1.0357  0.9123
16731TIP3   OH271683   5.146   2.804   2.701  1.0266  0.0367  0.1699
16731TIP3    H171684   5.140   2.709   2.705  0.4355  0.1084  1.6382
16731TIP3    H271685   5.222   2.821   2.645  0.7476 -1.2674 -0.6623
16732TIP3   OH271686   2.536   1.365  16.058 -0.0619 -0.2973  0.1971
16732TIP3    H171687   2.480   1.427  16.104 -0.6348  0.0997 -1.0124
16732TIP3    H271688   2.572   1.414  15.985  1.5541 -0.6615  0.7080
16733TIP3   OH271689   0.813   1.367  11.852 -0.0446 -0.0248  0.0665
16733TIP3    H171690   0.786   1.412  11.933  0.3507  0.1576  0.1034
16733TIP3    H271691   0.868   1.295  11.882  0.2304  0.1358 -0.0431
16734TIP3   OH271692   2.212   6.057   2.178  0.7353  0.3583 -0.5115
16734TIP3    H171693   2.246   6.030   2.093 -0.6631 -1.7052 -0.4787
16734TIP3    H271694   2.267   6.011   2.241 -0.0913 -0.5274 -0.4043
16735TIP3   OH271695   2.145   3.143  15.217  0.0230  0.8370  0.0708
16735TIP3    H171696   2.078   3.077  15.201  0.8410  0.1565 -0.6599
16735TIP3    H271697   2.102   3.208  15.272 -0.9164 -0.1154  0.5007
16736TIP3   OH271698   4.146   1.391   0.691 -0.3976  0.4849  0.1411
16736TIP3    H171699   4.207   1.457   0.725  2.2164 -2.0059  0.6722
16736TIP3    H271700   4.080   1.381   0.760 -0.2961  1.8377  0.4558
16737TIP3   OH271701   1.692   4.219  14.469 -0.0654  0.0541  0.3047
16737TIP3    H171702   1.614   4.177  14.506 -0.3436 -0.7910 -1.1513
16737TIP3    H271703   1.658   4.280  14.403  0.4998 -1.6263 -1.6375
16738TIP3   OH271704   5.141   3.632  10.785  0.3904 -0.0243  0.1318
16738TIP3    H171705   5.185   3.667  10.862  0.8455 -0.1555 -0.0662
16738TIP3    H271706   5.103   3.709  10.742 -2.0550 -0.1891  1.8098
16739TIP3   OH271707   3.571   3.502   1.468 -0.1186 -0.1094 -0.7679
16739TIP3    H171708   3.598   3.419   1.430 -1.1105 -0.1542 -1.4048
16739TIP3    H271709   3.533   3.551   1.395 -0.0525  0.6922 -0.2835
16740TIP3   OH271710   5.598   5.779  15.895  0.3418  0.0177 -0.2238
16740TIP3    H171711   5.526   5.808  15.951 -0.9106 -1.9871 -0.7140
16740TIP3    H271712   5.582   5.820  15.810  1.5579  2.0601  0.4650
16741TIP3   OH271713   4.696   1.901   3.793 -0.5001  0.8023 -0.2052
16741TIP3    H171714   4.791   1.904   3.796 -0.5036  1.7281 -0.6505
16741TIP3    H271715   4.674   1.807   3.795  0.3139  0.6053  2.4124
16742TIP3   OH271716   1.020   3.648  14.880  0.1822  0.7267 -0.2087
16742TIP3    H171717   1.111   3.657  14.851  0.1595 -0.3920 -0.7126
16742TIP3    H271718   0.988   3.570  14.833 -0.9196  0.8860  0.2463
16743TIP3   OH271719   4.421   2.184  11.531 -0.1038 -0.6066 -0.2370
16743TIP3    H171720   4.429   2.113  11.594 -0.8352  0.0029  0.5620
16743TIP3    H271721   4.494   2.242  11.550 -1.2371  0.4166  1.1687
16744TIP3   OH271722   1.738   0.933   3.400  0.0443  0.0615  0.6958
16744TIP3    H171723   1.787   1.009   3.432  0.0881  0.2897  0.1085
16744TIP3    H271724   1.773   0.860   3.450  2.6268 -0.1502 -1.1771
16745TIP3   OH271725   6.529   4.687  15.621 -0.4382 -0.1143  0.1363
16745TIP3    H171726   6.441   4.717  15.643 -1.2092 -1.6777 -0.6747
16745TIP3    H271727   6.536   4.701  15.526  0.4275  0.5597  0.2886
16746TIP3   OH271728   3.820   5.528   4.302 -0.0762 -0.9563 -0.1419
16746TIP3    H171729   3.882   5.553   4.234  1.5796 -1.7160  1.0195
16746TIP3    H271730   3.813   5.433   4.294 -1.9119 -0.7912 -0.8927
16747TIP3   OH271731   1.741   2.807  13.183 -0.1999 -0.6526 -0.1854
16747TIP3    H171732   1.745   2.902  13.171 -1.9999 -0.3021  1.4732
16747TIP3    H271733   1.731   2.772  13.095  0.7213  0.6545 -0.8529
16748TIP3   OH271734   0.227   6.063   2.592  0.2426  0.0800  0.1379
16748TIP3    H171735   0.267   6.144   2.623  1.4043 -0.0343 -0.9698
16748TIP3    H271736   0.300   6.007   2.569 -0.5495 -0.6653 -0.6493
16749TIP3   OH271737   6.605   3.996   4.470  0.4870  0.0708  0.7315
16749TIP3    H171738   6.593   4.011   4.564 -0.6227  1.4172  0.3997
16749TIP3    H271739   6.659   4.068   4.441  1.7027 -0.9085  0.4919
16750TIP3   OH271740   2.780   5.929   5.624 -1.0688  0.2545  0.0376
16750TIP3    H171741   2.800   5.962   5.536  1.2531 -2.1381 -0.4575
16750TIP3    H271742   2.725   5.852   5.609  0.0295 -0.6699  0.5473
16751TIP3   OH271743   6.200   3.411   6.502  0.0115 -0.1488  0.0272
16751TIP3    H171744   6.162   3.499   6.502  0.4385  0.0606  1.8688
16751TIP3    H271745   6.146   3.362   6.564  1.0961 -0.5916  0.6296
16752TIP3   OH271746   2.834   2.657  10.427 -0.2704 -0.5270 -0.7595
16752TIP3    H171747   2.876   2.586  10.379  0.9328 -0.3959  0.0458
16752TIP3    H271748   2.740   2.645  10.412 -0.1486 -2.7565  0.0145
16753TIP3   OH271749   0.091   5.988   3.651  0.3264 -0.1020  0.0991
16753TIP3    H171750   0.044   5.998   3.568  0.6675 -1.4358 -0.2700
16753TIP3    H271751   0.102   5.894   3.662 -2.3792 -0.2600  3.1908
16754TIP3   OH271752   1.554   3.230  16.540  0.3206  0.0979 -0.7575
16754TIP3    H171753   1.617   3.160  16.522  1.8202  1.3630 -0.6673
16754TIP3    H271754   1.517   3.252  16.455  1.2558  0.4591 -1.0851
16755TIP3   OH271755   0.445   0.127  15.863  0.0252 -0.6627  0.1247
16755TIP3    H171756   0.444   0.066  15.790  2.9235 -0.0644 -0.5181
16755TIP3    H271757   0.430   0.213  15.822  0.2742 -0.4798  0.4122
16756TIP3   OH271758   4.012   1.794   5.895 -0.1205 -0.0029  0.0728
16756TIP3    H171759   4.006   1.885   5.922  0.3645  0.1485 -0.3095
16756TIP3    H271760   3.922   1.769   5.872 -0.4362  0.0461  1.1961
16757TIP3   OH271761   2.535   6.191   6.284 -0.3764 -0.1966  0.4806
16757TIP3    H171762   2.489   6.117   6.324  1.0544 -1.7930 -0.7053
16757TIP3    H271763   2.471   6.227   6.222 -0.8506 -0.8889  0.5511
16758TIP3   OH271764   3.091   2.878   6.227  0.0088 -0.5967  0.4552
16758TIP3    H171765   3.075   2.788   6.198 -0.4588 -0.5900  0.6861
16758TIP3    H271766   3.125   2.869   6.316  0.0038 -0.5497  0.4620
16759TIP3   OH271767   1.533   1.612   3.459  0.9481 -0.5631 -0.6744
16759TIP3    H171768   1.528   1.566   3.375 -0.3987 -0.0552 -0.9021
16759TIP3    H271769   1.605   1.674   3.448  0.5769 -0.2795 -1.5724
16760TIP3   OH271770   5.958   0.253  12.730 -0.1783 -0.6552 -0.0715
16760TIP3    H171771   5.958   0.335  12.779 -2.6101 -0.4385 -0.3239
16760TIP3    H271772   5.947   0.278  12.639  0.0772 -1.2393 -0.2719
16761TIP3   OH271773   0.833   2.503   5.814 -0.0748 -0.4548 -0.2729
16761TIP3    H171774   0.876   2.465   5.737  0.1717 -0.1232 -0.3031
16761TIP3    H271775   0.905   2.528   5.871 -0.2847 -2.2938  0.8634
16762TIP3   OH271776   4.844   6.706   5.508  0.0575 -0.3024  0.2959
16762TIP3    H171777   4.874   6.722   5.418  0.4986 -1.2555  0.2567
16762TIP3    H271778   4.775   6.640   5.498 -0.2543 -0.0270  0.6197
16763TIP3   OH271779   0.058   2.054  13.125  0.0069 -0.3107 -0.0787
16763TIP3    H171780   0.099   1.969  13.110  1.6501  0.3153  0.6394
16763TIP3    H271781   0.122   2.118  13.093 -0.9217  0.6828 -0.0164
16764TIP3   OH271782   5.376   2.769  15.878  0.9476  0.0449 -0.0869
16764TIP3    H171783   5.446   2.720  15.921 -0.8654 -2.4995  0.2021
16764TIP3    H271784   5.297   2.747  15.929 -0.5558  0.3210 -2.1895
16765TIP3   OH271785   4.584   1.783  13.790  0.8594  0.1595 -0.6878
16765TIP3    H171786   4.556   1.706  13.838  0.8898  1.1395  0.9922
16765TIP3    H271787   4.528   1.786  13.713  0.0458 -0.8687 -0.1517
16766TIP3   OH271788   3.031   0.490   2.761 -0.5307  0.2367  0.7022
16766TIP3    H171789   3.065   0.504   2.849  0.4125  1.2046  0.2011
16766TIP3    H271790   3.091   0.428   2.721  0.7198  1.9376 -0.1795
16767TIP3   OH271791   0.141   4.873  16.928 -0.4196 -0.1505 -0.0249
16767TIP3    H171792   0.196   4.855  16.852  0.2039  0.3968  0.2840
16767TIP3    H271793   0.203   4.891  16.999 -0.9920 -0.9025  0.6815
16768TIP3   OH271794   6.273   5.779   6.352 -0.3556  0.7877  0.6561
16768TIP3    H171795   6.339   5.802   6.417  0.5631 -0.1226  0.0749
16768TIP3    H271796   6.250   5.689   6.372 -1.1702  0.9826  0.6283
16769TIP3   OH271797   1.818   1.715   3.812 -0.6996 -0.3380  0.1524
16769TIP3    H171798   1.778   1.778   3.871  1.3336  0.3586  0.8781
16769TIP3    H271799   1.848   1.767   3.737  1.4659 -0.2574  0.9957
16770TIP3   OH271800   3.349   6.769   3.129  0.0493 -0.1970 -0.4171
16770TIP3    H171801   3.439   6.787   3.103  0.0070 -0.2984 -0.6330
16770TIP3    H271802   3.357   6.729   3.215  0.1677  0.4789 -0.1037
16771TIP3   OH271803   5.834   3.472  13.295 -0.1897 -0.0470 -0.5046
16771TIP3    H171804   5.911   3.520  13.326  1.1600  0.0375 -3.6359
16771TIP3    H271805   5.843   3.385  13.333 -0.4342  0.8866  1.8681
16772TIP3   OH271806   2.458   2.266  12.823  0.2285  0.1279 -0.3944
16772TIP3    H171807   2.399   2.290  12.751  0.0085 -2.2905 -1.1193
16772TIP3    H271808   2.531   2.328  12.816 -0.4803  0.8521 -1.8005
16773TIP3   OH271809   1.200   3.765  14.009 -0.6774  0.3858  0.5206
16773TIP3    H171810   1.144   3.716  13.949 -2.0100 -0.1780  2.1404
16773TIP3    H271811   1.155   3.849  14.020  0.9203  1.5487 -1.2339
16774TIP3   OH271812   0.374   5.736   4.652  0.3163  0.2890  0.1460
16774TIP3    H171813   0.438   5.696   4.593  0.0516  1.1176 -0.7213
16774TIP3    H271814   0.309   5.775   4.594 -0.0945  0.8907  0.9908
16775TIP3   OH271815   5.062   0.775   4.936  0.0692  0.4004  0.1768
16775TIP3    H171816   5.150   0.784   4.901  0.6137 -0.8556  1.1561
16775TIP3    H271817   5.012   0.734   4.865  0.8809 -1.0972  0.4392
16776TIP3   OH271818   4.053   3.619  17.140  0.4035  0.2882 -0.0412
16776TIP3    H171819   4.133   3.641  17.092 -0.8257  1.2840 -1.7539
16776TIP3    H271820   4.019   3.703  17.169 -0.1078 -0.1200  0.5597
16777TIP3   OH271821   0.270   1.714  14.864  0.2349 -0.2485 -0.0341
16777TIP3    H171822   0.282   1.802  14.827 -1.8300  0.0226 -0.1439
16777TIP3    H271823   0.239   1.661  14.791 -0.1364 -0.6637  0.4177
16778TIP3   OH271824   0.342   2.939   0.139  0.1400 -0.0566  0.1945
16778TIP3    H171825   0.348   3.034   0.150  0.9618 -0.0132 -0.5387
16778TIP3    H271826   0.251   2.924   0.112 -0.2593  0.4085  1.2073
16779TIP3   OH271827   1.350   3.285   4.280  0.3663  0.8526  0.4846
16779TIP3    H171828   1.380   3.315   4.366  1.1656  2.4712 -0.3109
16779TIP3    H271829   1.344   3.190   4.289 -1.1709  1.0779  2.7984
16780TIP3   OH271830   1.400   2.761   3.664 -0.0746  0.4850  0.3278
16780TIP3    H171831   1.308   2.780   3.649 -0.2054 -0.5288 -0.1763
16780TIP3    H271832   1.435   2.739   3.578  0.0963 -1.3811  0.8384
16781TIP3   OH271833   1.605   2.474   0.355  0.2222 -0.0360  0.0529
16781TIP3    H171834   1.576   2.565   0.360  2.0588  0.5338  1.3655
16781TIP3    H271835   1.623   2.460   0.262  0.8523  1.2739 -0.0479
16782TIP3   OH271836   3.064   5.211   4.433  0.5668  0.5160 -0.5190
16782TIP3    H171837   3.154   5.217   4.464  0.5236 -0.6610 -0.1167
16782TIP3    H271838   3.051   5.118   4.416 -0.4249  0.7395 -1.0364
16783TIP3   OH271839   3.483   5.277  14.463  0.7601 -0.0216 -0.4300
16783TIP3    H171840   3.546   5.299  14.395 -0.0841  0.3594 -1.1045
16783TIP3    H271841   3.480   5.355  14.519 -0.8796  0.9675 -1.7858
16784TIP3   OH271842   6.756   4.098  13.053 -0.1369  0.0552  0.3770
16784TIP3    H171843   6.704   4.178  13.054  0.9285  0.7592  0.8531
16784TIP3    H271844   6.713   4.042  12.988 -0.0390  1.6000 -1.0758
16785TIP3   OH271845   6.648   3.533   4.193 -0.1775  0.1958 -0.3142
16785TIP3    H171846   6.722   3.595   4.189  0.2141 -0.0526  1.9114
16785TIP3    H271847   6.605   3.553   4.276 -0.5318 -1.9928  0.0655
16786TIP3   OH271848   0.745   1.555  16.461 -0.5000  0.4183  0.2697
16786TIP3    H171849   0.764   1.467  16.427 -0.0103  0.0560  1.4358
16786TIP3    H271850   0.740   1.610  16.383  2.8368  0.0592 -0.3543
16787TIP3   OH271851   0.273   0.737  11.442 -0.3466  0.2744  0.1700
16787TIP3    H171852   0.306   0.672  11.504  0.2565 -0.2789 -0.7107
16787TIP3    H271853   0.228   0.686  11.375  0.2603  0.7394 -0.6069
16788TIP3   OH271854   1.074   2.955   4.039 -0.1251  0.3398  0.0273
16788TIP3    H171855   0.990   2.964   3.993 -0.3155  1.2652  0.5397
16788TIP3    H271856   1.132   2.913   3.974 -0.2995  1.8908 -1.2028
16789TIP3   OH271857   0.772   3.814   3.371 -0.2915  0.5615  0.3859
16789TIP3    H171858   0.857   3.817   3.415  0.6800  0.2612 -1.4081
16789TIP3    H271859   0.766   3.724   3.338  0.5734  1.5864 -2.9546
16790TIP3   OH271860   4.554   5.498  13.592  0.0061  0.0656 -0.2546
16790TIP3    H171861   4.643   5.530  13.577  0.0336  0.6959  1.0346
16790TIP3    H271862   4.517   5.486  13.505  1.2666  0.0282 -0.8081
16791TIP3   OH271863   4.166   6.739   2.041 -0.2072 -0.1729  0.9977
16791TIP3    H171864   4.090   6.691   2.009 -0.4239 -2.1114  4.0016
16791TIP3    H271865   4.130   6.799   2.106  0.4115  2.2616 -0.7512
16792TIP3   OH271866   5.002   5.244  14.999  0.1198  0.1800 -0.0751
16792TIP3    H171867   4.937   5.212  15.062 -0.0123 -0.5803 -0.5752
16792TIP3    H271868   5.057   5.304  15.049 -1.2244  1.1786  0.2631
16793TIP3   OH271869   3.299   2.637   5.498  0.1622  0.0706 -0.3782
16793TIP3    H171870   3.262   2.585   5.426 -1.1724  0.1241  0.2457
16793TIP3    H271871   3.260   2.724   5.487 -0.3320 -0.0147  0.5933
16794TIP3   OH271872   3.443   5.620  17.027 -0.3251  0.5889  1.1444
16794TIP3    H171873   3.471   5.528  17.032  0.4030  0.7653  0.5806
16794TIP3    H271874   3.381   5.631  17.098 -0.8442 -0.4963  0.8778
16795TIP3   OH271875   3.090   5.923   0.502 -0.3086  0.0997  0.2353
16795TIP3    H171876   3.154   5.940   0.570  0.5011  0.2268 -0.5331
16795TIP3    H271877   3.086   5.828   0.496 -1.5284  0.0527  1.4957
16796TIP3   OH271878   3.331   2.422   3.521  0.5884  0.3059 -0.7419
16796TIP3    H171879   3.362   2.471   3.445 -1.8306  2.7392 -0.3225
16796TIP3    H271880   3.306   2.489   3.585 -1.9430 -1.4615  0.3182
16797TIP3   OH271881   6.733   1.700  16.327  0.3740 -0.0742  0.3286
16797TIP3    H171882   6.760   1.768  16.387 -0.6480  0.3343  0.3377
16797TIP3    H271883   6.667   1.650  16.374  0.0169 -0.1358 -0.2269
16798TIP3   OH271884   6.009   0.407   0.229  0.6281 -0.7167  0.1897
16798TIP3    H171885   6.003   0.497   0.259 -1.2708 -1.1510  1.2776
16798TIP3    H271886   6.050   0.360   0.301 -0.6436 -1.1294  0.6658
16799TIP3   OH271887   5.871   3.561   5.162  0.1496 -0.1444 -0.4350
16799TIP3    H171888   5.873   3.562   5.066 -0.8122 -0.9857 -0.4794
16799TIP3    H271889   5.873   3.469   5.185 -0.0608  0.0387  0.3458
16800TIP3   OH271890   5.969   0.968   1.125 -0.0910  0.6554 -0.0436
16800TIP3    H171891   6.041   0.984   1.064 -0.9681  3.1906 -0.5337
16800TIP3    H271892   6.009   0.919   1.197  2.5902  3.2435  0.4331
16801TIP3   OH271893   0.480   6.011  15.574 -0.5533 -0.0551  0.2642
16801TIP3    H171894   0.575   6.003  15.573 -0.5259  0.1901  0.5353
16801TIP3    H271895   0.451   5.965  15.496 -0.2265 -0.3138  0.2909
16802TIP3   OH271896   3.991   6.474  12.322 -0.0155  0.0779  0.1168
16802TIP3    H171897   3.961   6.450  12.234  0.5064 -0.6019  0.1172
16802TIP3    H271898   3.985   6.570  12.323 -0.2519  0.0834 -0.5738
16803TIP3   OH271899   5.086   5.981   5.062  0.0267  0.6483 -0.5815
16803TIP3    H171900   5.090   5.965   5.156  1.1911 -0.8728 -0.8597
16803TIP3    H271901   5.114   6.072   5.052 -0.6906  1.0145  0.5719
16804TIP3   OH271902   5.773   6.812  12.572  0.2916 -0.3904  0.2188
16804TIP3    H171903   5.770   6.908  12.573 -0.5224 -0.4181  0.7164
16804TIP3    H271904   5.816   6.789  12.654  2.1123 -0.4254 -0.6767
16805TIP3   OH271905   3.928   3.615   3.428 -0.2369  0.1749  0.1342
16805TIP3    H171906   4.014   3.645   3.455  0.1954 -2.1207  1.5375
16805TIP3    H271907   3.946   3.542   3.368 -1.1713 -0.8206  1.0310
16806TIP3   OH271908   5.748   5.514   3.292 -0.0268  0.5976  0.4300
16806TIP3    H171909   5.667   5.549   3.256  0.3924  0.3890 -0.7495
16806TIP3    H271910   5.734   5.419   3.296 -0.8484  0.7403  2.8440
16807TIP3   OH271911   4.935   2.330   0.325 -0.5484  0.2073  0.4839
16807TIP3    H171912   4.950   2.299   0.415 -1.1305  0.1169  0.5517
16807TIP3    H271913   4.897   2.256   0.280  0.6811 -0.0782 -0.1288
16808TIP3   OH271914   5.500   3.424   6.453 -0.1305 -0.0757  0.3285
16808TIP3    H171915   5.408   3.443   6.469  0.2185  0.3751  1.9977
16808TIP3    H271916   5.548   3.482   6.512  1.2185 -0.5653 -0.2271
16809TIP3   OH271917   4.433   5.439  13.839 -0.2809  0.0984  0.1887
16809TIP3    H171918   4.458   5.474  13.753  2.4854  0.1583  0.9121
16809TIP3    H271919   4.458   5.508  13.901  0.1871 -0.9674  1.2172
16810TIP3   OH271920   3.333   3.719  16.744  0.0987 -0.8098  0.4057
16810TIP3    H171921   3.254   3.665  16.734 -0.2915 -0.3265  0.8188
16810TIP3    H271922   3.309   3.783  16.811  0.6189 -0.2424  0.0477
16811TIP3   OH271923   5.664   1.279  12.380  0.0829 -0.0392 -0.9471
16811TIP3    H171924   5.731   1.348  12.382  0.1716 -0.1410  0.7852
16811TIP3    H271925   5.582   1.325  12.399 -0.5107  0.1700 -3.5381
16812TIP3   OH271926   4.262   6.252  12.282  0.1397 -0.1849 -0.1057
16812TIP3    H171927   4.277   6.185  12.215  1.4144  0.4237 -0.4580
16812TIP3    H271928   4.348   6.269  12.319  0.2598  2.7012 -1.4182
16813TIP3   OH271929   5.802   6.428  10.773 -0.6173 -0.2432  0.3803
16813TIP3    H171930   5.852   6.348  10.788  1.8006  1.2709  1.0868
16813TIP3    H271931   5.732   6.403  10.712  0.5770 -2.6623 -0.0963
16814TIP3   OH271932   5.159   3.835  10.479  0.3649  0.0433 -0.0420
16814TIP3    H171933   5.084   3.869  10.431  0.2226  0.7988  0.6924
16814TIP3    H271934   5.232   3.843  10.419  0.1052  0.5615 -0.2910
16815TIP3   OH271935   4.268   5.882  12.976  0.1115 -0.4048  0.2359
16815TIP3    H171936   4.328   5.891  12.902 -0.5046  0.2033 -0.2025
16815TIP3    H271937   4.319   5.912  13.052  0.3092  0.2976 -0.1600
16816TIP3   OH271938   3.492   4.261  10.584 -0.5346 -0.6028 -0.2426
16816TIP3    H171939   3.496   4.233  10.493  0.3624  1.0383 -0.7470
16816TIP3    H271940   3.580   4.248  10.617 -1.1229 -2.2874  0.7839
16817TIP3   OH271941   4.403   1.759  14.528 -0.4454 -0.2974 -0.4111
16817TIP3    H171942   4.310   1.775  14.513 -0.4442 -1.7821 -2.6074
16817TIP3    H271943   4.415   1.667  14.503  1.8526  0.2532 -1.5801
16818TIP3   OH271944   0.662   6.786   1.689 -1.1360 -0.0929 -0.5334
16818TIP3    H171945   0.714   6.853   1.734 -0.6458 -0.0604 -1.1407
16818TIP3    H271946   0.614   6.743   1.759 -1.9067  1.2652 -0.1841
16819TIP3   OH271947   1.734   4.378   4.231  0.4432  0.1108  0.4827
16819TIP3    H171948   1.726   4.425   4.148  1.6487  0.5946  0.6252
16819TIP3    H271949   1.786   4.436   4.287  0.3835 -0.5896  1.2875
16820TIP3   OH271950   2.927   3.155  10.905 -1.2727  0.2170 -0.1752
16820TIP3    H171951   2.979   3.128  10.981 -2.1195 -0.1141  0.3000
16820TIP3    H271952   2.991   3.165  10.834 -0.7803 -2.1296 -0.1398
16821TIP3   OH271953   2.496   6.209  16.572 -0.3039 -0.1146 -0.0258
16821TIP3    H171954   2.534   6.255  16.647 -0.7103 -0.2723  0.2787
16821TIP3    H271955   2.464   6.279  16.515 -2.2369  0.0172  1.1068
16822TIP3   OH271956   0.943   0.710  13.017 -0.0405  0.2236  1.1397
16822TIP3    H171957   0.865   0.750  13.057 -0.2702  1.2886 -0.3036
16822TIP3    H271958   0.932   0.724  12.923  1.0166 -1.2573  0.7696
16823TIP3   OH271959   4.407   1.402  10.371  0.4418 -0.0161  0.2346
16823TIP3    H171960   4.334   1.407  10.433  1.7550 -0.0173  1.8730
16823TIP3    H271961   4.444   1.490  10.371  1.0881 -0.2816  0.2729
16824TIP3   OH271962   6.054   0.616  14.969  0.1299  0.3793 -0.0200
16824TIP3    H171963   6.080   0.529  14.939 -1.6086 -0.3025  0.3296
16824TIP3    H271964   6.044   0.667  14.889  2.7185  0.8113 -0.1818
16825TIP3   OH271965   1.131   6.521   3.078 -0.3595 -0.4821  0.0925
16825TIP3    H171966   1.166   6.610   3.074  2.2076 -1.3753  0.6393
16825TIP3    H271967   1.108   6.509   3.171 -1.8506 -0.0256 -0.1974
16826TIP3   OH271968   5.624   1.899  16.098 -0.1672  0.7848  0.3671
16826TIP3    H171969   5.661   1.901  16.187  1.3162  0.6775 -0.2276
16826TIP3    H271970   5.695   1.929  16.042 -1.4693  2.0547 -0.6903
16827TIP3   OH271971   4.981   5.387  13.128  0.9741  0.4073 -0.5059
16827TIP3    H171972   5.010   5.337  13.204 -1.0754 -0.0175  0.0390
16827TIP3    H271973   4.919   5.451  13.163 -1.5833 -1.0910 -1.9692
16828TIP3   OH271974   3.981   1.338   4.049 -0.3602 -0.4389 -0.1513
16828TIP3    H171975   3.916   1.294   3.993  0.3718 -0.9166 -0.6421
16828TIP3    H271976   4.000   1.420   4.003 -1.8069  0.4944  0.8196
16829TIP3   OH271977   6.272   3.695   1.629  0.7140  0.1243 -0.1530
16829TIP3    H171978   6.348   3.753   1.627  0.7779  0.0115 -1.2492
16829TIP3    H271979   6.300   3.616   1.584 -0.4342  0.5922 -1.7885
16830TIP3   OH271980   1.250   1.892  10.130  0.3985 -0.9690 -0.4224
16830TIP3    H171981   1.328   1.917  10.081  0.0301  1.4393  0.1004
16830TIP3    H271982   1.183   1.954  10.102 -1.0319 -2.2941 -0.0461
16831TIP3   OH271983   2.582   4.533   4.886 -0.0986  0.4291  0.3450
16831TIP3    H171984   2.572   4.439   4.876  0.6515  0.1643  1.7597
16831TIP3    H271985   2.646   4.543   4.957  1.0550  1.9937 -0.8405
16832TIP3   OH271986   2.849   0.092   2.668  0.0261  0.2302  0.0274
16832TIP3    H171987   2.777   0.098   2.604  0.0864 -2.1499 -0.3427
16832TIP3    H271988   2.927   0.079   2.614  0.1822 -1.0130  0.5280
16833TIP3   OH271989   3.423   1.950  12.441 -0.3929 -0.1684  0.5678
16833TIP3    H171990   3.370   1.952  12.520  0.1569 -0.5788  0.9589
16833TIP3    H271991   3.394   1.872  12.394  0.1021 -0.5963  0.9592
16834TIP3   OH271992   2.023   0.423   3.563  0.4879  0.3411 -0.3690
16834TIP3    H171993   1.961   0.483   3.521 -0.1760  0.0562  0.1884
16834TIP3    H271994   2.084   0.399   3.493 -0.6557 -0.2013 -1.2002
16835TIP3   OH271995   2.705   1.959  16.044 -0.1639  0.0572 -0.0877
16835TIP3    H171996   2.707   2.019  16.119 -0.4685  0.0804 -0.0948
16835TIP3    H271997   2.628   1.986  15.994 -0.5618 -0.6229  0.1466
16836TIP3   OH271998   0.747   3.929  13.794 -0.4893  0.1189 -0.2080
16836TIP3    H171999   0.660   3.923  13.755 -0.9705  0.6208  0.7444
16836TIP3    H272000   0.736   3.890  13.881  0.1849  0.3707 -0.0075
16837TIP3   OH272001   2.022   2.485  13.703 -0.0140  0.1021 -0.1683
16837TIP3    H172002   1.946   2.541  13.718 -0.3270  1.1145 -4.3692
16837TIP3    H272003   1.987   2.396  13.711 -1.0963  0.5290  0.1323
16838TIP3   OH272004   4.421   1.230  13.503  0.5358 -0.3777 -0.6939
16838TIP3    H172005   4.341   1.181  13.486  0.8927 -0.8321 -1.1244
16838TIP3    H272006   4.439   1.275  13.420 -0.2413  1.1772 -0.0557
16839TIP3   OH272007   5.957   6.484   0.212 -0.5497 -0.5723 -0.0176
16839TIP3    H172008   6.030   6.546   0.215 -0.5125 -0.5711 -0.8088
16839TIP3    H272009   5.984   6.418   0.149 -1.1190 -0.7178 -0.1153
16840TIP3   OH272010   4.420   0.538   5.032 -0.1620 -0.7336  0.3135
16840TIP3    H172011   4.357   0.552   5.103 -0.3679  0.5305 -0.0844
16840TIP3    H272012   4.371   0.490   4.966 -1.4350  1.9513 -0.8607
16841TIP3   OH272013   4.264   2.114  11.983 -0.4110  0.4119 -0.0584
16841TIP3    H172014   4.285   2.206  12.000 -2.1536  0.8535 -0.0961
16841TIP3    H272015   4.182   2.117  11.933 -0.2196 -1.1483 -0.5138
16842TIP3   OH272016   0.823   2.841  12.850  0.1612  0.0248 -0.2812
16842TIP3    H172017   0.885   2.893  12.900  0.0700  1.6270 -1.7661
16842TIP3    H272018   0.860   2.836  12.762 -0.1245 -1.9662 -0.3473
16843TIP3   OH272019   5.870   4.165   0.841  0.1136  0.4345 -0.1426
16843TIP3    H172020   5.871   4.153   0.746  1.7925  1.4197 -0.2977
16843TIP3    H272021   5.962   4.181   0.864 -0.3534  0.9089  1.5491
16844TIP3   OH272022   5.892   6.537   3.174 -0.0864 -0.7191 -0.5435
16844TIP3    H172023   5.958   6.560   3.108  0.6337  0.5007  0.5543
16844TIP3    H272024   5.894   6.609   3.236 -1.2129 -1.5321  0.4872
16845TIP3   OH272025   0.608   6.341   3.234 -0.0939 -0.1331  0.2998
16845TIP3    H172026   0.521   6.300   3.224  0.5644 -1.2350 -1.4990
16845TIP3    H272027   0.590   6.427   3.271 -1.8673 -0.7189  0.9148
16846TIP3   OH272028   3.748   1.341   4.776  0.2410  0.3721 -0.2247
16846TIP3    H172029   3.677   1.278   4.785 -0.4557  1.2276  0.4147
16846TIP3    H272030   3.795   1.336   4.859  2.3370 -1.7761 -1.3912
16847TIP3   OH272031   3.727   2.871   2.392  0.2750 -0.3836  0.0266
16847TIP3    H172032   3.732   2.904   2.303  0.3129 -0.2301  0.0844
16847TIP3    H272033   3.634   2.878   2.415  0.4197  0.6571  0.3941
16848TIP3   OH272034   4.679   5.491  12.804 -0.4742 -0.5402 -0.3476
16848TIP3    H172035   4.749   5.524  12.748 -1.4850  1.4255 -0.5197
16848TIP3    H272036   4.697   5.529  12.890 -0.5161 -1.2297 -0.0294
16849TIP3   OH272037   4.067   3.059   5.416  0.1791  0.3143 -0.0405
16849TIP3    H172038   4.013   3.056   5.495  0.6810 -0.5014  0.2775
16849TIP3    H272039   4.034   3.135   5.367  0.1571  1.1075  1.1592
16850TIP3   OH272040   1.169   1.494   6.559  0.6141 -0.3157 -0.0286
16850TIP3    H172041   1.264   1.486   6.563  0.6418  0.3790  1.2010
16850TIP3    H272042   1.143   1.523   6.646 -0.8080 -1.1474 -0.1342
16851TIP3   OH272043   6.201   0.194  16.986 -0.4171  0.0987  0.0900
16851TIP3    H172044   6.244   0.195  17.072 -2.8782 -0.6349  1.4287
16851TIP3    H272045   6.273   0.201  16.923  1.3594  3.1172  2.1873
16852TIP3   OH272046   3.374   1.047  12.955  0.2381  0.2310  0.0004
16852TIP3    H172047   3.450   1.104  12.945  1.6663 -1.8284 -1.8362
16852TIP3    H272048   3.323   1.061  12.875 -0.3644  0.2677  0.3854
16853TIP3   OH272049   2.992   3.561   5.800 -0.3111 -0.1062  0.4255
16853TIP3    H172050   2.971   3.477   5.760 -0.7049 -0.1135  0.6451
16853TIP3    H272051   3.056   3.540   5.868 -1.0959 -0.3552  1.0962
16854TIP3   OH272052   2.878   3.468   1.627 -0.4506  0.1833  0.4531
16854TIP3    H172053   2.859   3.426   1.711 -0.3079  0.9049  0.8486
16854TIP3    H272054   2.829   3.550   1.628  0.2171  0.5997  0.1941
16855TIP3   OH272055   4.598   3.897   2.058  0.8731 -0.4677  0.0711
16855TIP3    H172056   4.584   3.830   1.991 -1.2001 -0.2489  0.2055
16855TIP3    H272057   4.620   3.976   2.009  1.5452 -0.8213 -0.2028
16856TIP3   OH272058   4.140   5.535   0.753 -0.0868 -0.7734  0.7845
16856TIP3    H172059   4.183   5.493   0.828 -2.7389 -2.6061  1.4078
16856TIP3    H272060   4.111   5.463   0.698 -0.4298  0.4702 -0.7276
16857TIP3   OH272061   4.260   0.967   3.137 -0.2991 -0.6477 -0.3713
16857TIP3    H172062   4.198   0.975   3.210  0.0522  0.3729 -0.1782
16857TIP3    H272063   4.335   0.922   3.176  0.3333  0.8589  0.1922
16858TIP3   OH272064   6.465   6.461   1.964  0.3322 -0.0051  0.1767
16858TIP3    H172065   6.460   6.366   1.955  1.7474  0.0262 -1.5288
16858TIP3    H272066   6.557   6.479   1.980  0.3611  1.1490 -1.1109
16859TIP3   OH272067   2.841   4.055   0.389  0.2001 -0.1965 -0.1585
16859TIP3    H172068   2.921   4.077   0.437  1.3649 -2.1581 -1.0678
16859TIP3    H272069   2.791   4.000   0.450 -0.9381  1.7415  0.7365
16860TIP3   OH272070   3.821   0.386  15.020 -0.0018 -0.4295  0.4136
16860TIP3    H172071   3.809   0.311  14.962 -0.5662 -0.1781  0.1966
16860TIP3    H272072   3.750   0.379  15.084 -0.2659  0.1111  0.1844
16861TIP3   OH272073   4.663   6.062   0.904 -0.1138 -0.2047 -0.1310
16861TIP3    H172074   4.703   6.001   0.842  2.3320  0.9875  0.1939
16861TIP3    H272075   4.726   6.069   0.975 -1.0653  1.5274  0.5935
16862TIP3   OH272076   1.526   2.214   4.645 -0.5061  0.2608  0.1413
16862TIP3    H172077   1.469   2.169   4.708 -0.1288 -0.6694 -0.1677
16862TIP3    H272078   1.614   2.204   4.681 -0.4567  1.1070  0.2681
16863TIP3   OH272079   0.806   3.803   5.072 -0.1561  0.8457 -0.5326
16863TIP3    H172080   0.872   3.756   5.124  0.3330 -0.7184 -2.4539
16863TIP3    H272081   0.723   3.780   5.114  0.2632  0.1529 -0.0409
16864TIP3   OH272082   0.413   2.647   1.063 -0.1382 -0.2517 -0.0800
16864TIP3    H172083   0.379   2.720   1.012  1.3838  0.3824 -0.2535
16864TIP3    H272084   0.408   2.675   1.154  0.7059  0.2054 -0.1654
16865TIP3   OH272085   2.385   0.324   4.066 -0.2359 -0.9680 -0.2401
16865TIP3    H172086   2.396   0.238   4.107  0.5299  0.2181  2.2123
16865TIP3    H272087   2.318   0.310   3.999 -1.4266 -3.0976  1.2744
16866TIP3   OH272088   2.248   2.018   1.208  0.2174 -0.2681  0.2058
16866TIP3    H172089   2.335   1.979   1.196  0.1548 -0.8745  1.5447
16866TIP3    H272090   2.259   2.109   1.183  0.8870 -0.6532 -0.9795
16867TIP3   OH272091   1.573   5.269   5.833 -0.2062 -0.3921  1.2562
16867TIP3    H172092   1.549   5.237   5.920  1.4354 -3.5883  0.7038
16867TIP3    H272093   1.529   5.209   5.773 -1.1171  1.6012 -0.1812
16868TIP3   OH272094   6.516   2.079  12.638 -0.4145 -0.2234  0.0418
16868TIP3    H172095   6.515   2.020  12.713  0.5374  1.6155  1.5769
16868TIP3    H272096   6.601   2.063  12.596 -0.5586 -0.5943 -0.1177
16869TIP3   OH272097   0.521   5.282   6.427  0.7661 -0.5635 -0.3458
16869TIP3    H172098   0.614   5.303   6.426  0.6785 -0.1804 -0.5030
16869TIP3    H272099   0.507   5.240   6.512  1.1856 -1.1145 -0.5394
16870TIP3   OH272100   4.301   2.657  14.300  0.1764 -0.0108  0.1266
16870TIP3    H172101   4.225   2.701  14.339 -0.0443 -0.2100 -0.0698
16870TIP3    H272102   4.363   2.645  14.372 -0.1046 -0.1166  0.3521
16871TIP3   OH272103   6.493   6.049   5.470 -0.4282 -0.4496  0.5136
16871TIP3    H172104   6.553   6.012   5.405 -0.6532 -2.2783  1.2819
16871TIP3    H272105   6.435   5.976   5.492 -2.4014  1.0269  0.4407
16872TIP3   OH272106   5.331   4.403   4.265 -0.1997  0.4445  0.5081
16872TIP3    H172107   5.262   4.339   4.255  1.4528 -1.4324  0.5191
16872TIP3    H272108   5.299   4.464   4.331 -1.2166 -1.2537  1.6307
16873TIP3   OH272109   6.498   3.111  16.662  0.3392 -0.2896  0.1151
16873TIP3    H172110   6.444   3.087  16.587  1.2456 -0.8726 -0.3604
16873TIP3    H272111   6.513   3.029  16.708  0.6004 -0.0852  0.3956
16874TIP3   OH272112   0.167   0.801   2.225  0.0838 -0.8824  0.0411
16874TIP3    H172113   0.105   0.778   2.294  1.1987  0.1115  1.4324
16874TIP3    H272114   0.172   0.722   2.170 -2.1291 -1.0865  0.0643
16875TIP3   OH272115   4.136   3.967  15.948 -0.6504 -0.1435  0.0632
16875TIP3    H172116   4.075   3.894  15.944  0.5871 -1.3324  1.7476
16875TIP3    H272117   4.217   3.933  15.912  0.0333  0.2833  1.1630
16876TIP3   OH272118   6.763   6.808  10.528  0.4550 -0.3114  0.5708
16876TIP3    H172119   6.854   6.796  10.500  0.3717 -0.5819  0.4097
16876TIP3    H272120   6.766   6.805  10.624  0.4948 -1.2605  0.5486
16877TIP3   OH272121   1.454   2.654  16.690 -0.0974  0.3963 -0.3272
16877TIP3    H172122   1.434   2.632  16.599 -0.8589 -0.5779  0.0642
16877TIP3    H272123   1.474   2.570  16.731  1.8717  0.9856  0.0396
16878TIP3   OH272124   5.898   2.771   4.664  0.1065 -0.6223  0.3718
16878TIP3    H172125   5.911   2.854   4.712 -2.7825  0.9788 -1.3218
16878TIP3    H272126   5.930   2.789   4.576 -0.1772 -1.4490  0.0949
16879TIP3   OH272127   1.917   5.595   5.098 -0.2716  0.3165  0.3304
16879TIP3    H172128   1.886   5.512   5.135 -1.0246  0.1133 -0.7183
16879TIP3    H272129   1.921   5.655   5.173 -2.3896  0.0995  0.6609
16880TIP3   OH272130   5.932   3.992   4.563  0.1253 -0.0594  0.2051
16880TIP3    H172131   5.939   3.906   4.605 -1.5827 -0.0099  0.6638
16880TIP3    H272132   5.940   3.974   4.469  0.5270 -0.6037  0.3385
16881TIP3   OH272133   1.013   2.781   4.223 -0.0156  0.0887  0.1178
16881TIP3    H172134   1.060   2.845   4.169 -0.2572 -0.8791 -1.2980
16881TIP3    H272135   1.064   2.700   4.213  0.1079 -0.0499  1.6236
16882TIP3   OH272136   4.660   5.106  12.570  0.1267 -0.1326  0.2321
16882TIP3    H172137   4.737   5.081  12.621  0.5243  0.4552 -0.0715
16882TIP3    H272138   4.626   5.024  12.535  2.3508 -0.1689 -2.0931
16883TIP3   OH272139   6.390   2.314  14.299  0.3780  0.3583 -0.0116
16883TIP3    H172140   6.427   2.246  14.356  0.6723  0.4765 -0.0610
16883TIP3    H272141   6.296   2.315  14.321  0.7772  1.7382  1.9031
16884TIP3   OH272142   4.435   5.832  15.737 -0.3128  0.3015  0.2359
16884TIP3    H172143   4.374   5.798  15.802  0.5512 -1.1369  0.3164
16884TIP3    H272144   4.520   5.831  15.780  0.0460  0.6982 -0.4417
16885TIP3   OH272145   6.657   4.084  16.764 -0.3585  0.1402 -0.2921
16885TIP3    H172146   6.677   4.036  16.684 -1.6918  1.7629 -1.6828
16885TIP3    H272147   6.627   4.170  16.734 -1.1557  0.7180  1.9382
16886TIP3   OH272148   1.974   6.532   3.840  0.4141  0.4668  0.6867
16886TIP3    H172149   1.917   6.566   3.910 -1.7351 -0.0071 -0.7255
16886TIP3    H272150   1.979   6.438   3.858 -0.1630  0.3405  0.2212
16887TIP3   OH272151   0.727   1.046  15.115  0.2977  0.0489 -0.2953
16887TIP3    H172152   0.775   1.128  15.104  0.1579  0.1064 -0.4963
16887TIP3    H272153   0.790   0.986  15.153  0.0724  0.5987  1.0052
16888TIP3   OH272154   1.415   0.197  16.010 -0.4084  0.1271  0.2652
16888TIP3    H172155   1.406   0.160  15.922  0.2798 -0.6859  0.5292
16888TIP3    H272156   1.415   0.291  15.996 -0.3641  0.0084 -0.6007
16889TIP3   OH272157   1.564   6.655  15.889  0.2396 -0.3220 -0.0701
16889TIP3    H172158   1.631   6.720  15.911  0.3755 -0.8087  1.0001
16889TIP3    H272159   1.482   6.693  15.920  0.1119 -0.0644 -0.6967
16890TIP3   OH272160   1.943   2.352  14.996  0.3281  0.1284  0.0578
16890TIP3    H172161   1.944   2.380  15.087 -0.1661  0.7151 -0.1171
16890TIP3    H272162   1.915   2.429  14.947  2.1804  0.3389 -0.7729
16891TIP3   OH272163   3.487   3.204  16.660 -0.1119 -0.2644 -0.6754
16891TIP3    H172164   3.454   3.163  16.740 -1.5691 -2.3926 -2.2452
16891TIP3    H272165   3.582   3.195  16.666 -0.1948 -0.4154  0.7848
16892TIP3   OH272166   4.714   3.285   1.897  0.4664  0.5718  0.2372
16892TIP3    H172167   4.685   3.228   1.968  1.2012 -0.7300 -0.4872
16892TIP3    H272168   4.634   3.303   1.847  0.5177 -1.6838 -0.8059
16893TIP3   OH272169   3.380   6.698   0.739  0.0492 -0.2122  0.3842
16893TIP3    H172170   3.297   6.745   0.748  0.8369  2.0004 -2.1931
16893TIP3    H272171   3.429   6.720   0.818 -1.5507 -1.0311  1.6426
16894TIP3   OH272172   6.436   5.259  16.616  0.2601  0.0215  0.3721
16894TIP3    H172173   6.486   5.324  16.567 -0.6877  0.1253 -0.4714
16894TIP3    H272174   6.483   5.177  16.601 -0.2591 -0.0375 -1.1185
16895TIP3   OH272175   4.437   5.844  14.905 -0.1911 -0.3549  0.3864
16895TIP3    H172176   4.509   5.788  14.877  0.3036 -0.6387  2.1106
16895TIP3    H272177   4.361   5.785  14.909 -0.2174 -0.3591 -0.0976
16896TIP3   OH272178   4.551   3.382  11.622 -0.0435  0.2244 -0.1410
16896TIP3    H172179   4.556   3.476  11.607  0.6736  0.6000  2.0638
16896TIP3    H272180   4.458   3.363  11.631 -0.1170  0.9750  0.7559
16897TIP3   OH272181   0.794   5.372  11.268  0.1155 -0.1912 -0.0876
16897TIP3    H172182   0.855   5.445  11.279  0.2786 -0.1929 -0.8919
16897TIP3    H272183   0.707   5.412  11.272  0.2100  0.0900 -0.7966
16898TIP3   OH272184   2.637   4.553  15.811  0.2397  0.0539 -0.0030
16898TIP3    H172185   2.711   4.494  15.803 -0.5303 -0.7841 -1.2314
16898TIP3    H272186   2.584   4.537  15.733 -0.2440  2.0291 -0.1411
16899TIP3   OH272187   2.165   6.212   4.497 -0.3179 -0.8509 -0.1777
16899TIP3    H172188   2.225   6.273   4.539 -0.1642  0.0365 -1.6009
16899TIP3    H272189   2.092   6.267   4.468 -1.0309 -1.6467  0.0618
16900TIP3   OH272190   3.290   1.915   4.286 -0.1628  0.2111 -0.2109
16900TIP3    H172191   3.228   1.843   4.291  0.3368 -0.2913 -1.1734
16900TIP3    H272192   3.279   1.951   4.198 -1.1724  2.0282  0.5799
16901TIP3   OH272193   4.243   1.847   1.707  0.5664  0.4162  0.5208
16901TIP3    H172194   4.206   1.797   1.633 -0.4189 -0.1623  1.3715
16901TIP3    H272195   4.227   1.791   1.783  1.6374  0.9756  1.1677
16902TIP3   OH272196   6.012   3.395  12.946 -0.3891  0.2003 -0.2567
16902TIP3    H172197   5.967   3.415  12.864 -0.9215 -2.0113 -0.5717
16902TIP3    H272198   5.980   3.461  13.008 -0.8134  1.2361 -1.5423
16903TIP3   OH272199   4.181   2.845   5.329  0.5939  0.3434 -0.5912
16903TIP3    H172200   4.123   2.905   5.376  0.0587 -0.1871 -0.5693
16903TIP3    H272201   4.161   2.759   5.365  0.2670 -0.0576 -1.6855
16904TIP3   OH272202   1.727   1.506   6.401 -0.0476  0.5204  0.1220
16904TIP3    H172203   1.705   1.585   6.451 -1.9962  0.0525  0.0910
16904TIP3    H272204   1.642   1.468   6.379  0.8443 -1.0539 -0.7284
16905TIP3   OH272205   5.485   2.309  14.687 -0.1957  0.0374  0.2832
16905TIP3    H172206   5.466   2.401  14.668 -0.5176  0.2553  1.5747
16905TIP3    H272207   5.424   2.260  14.632 -1.4168  0.6485  1.0521
16906TIP3   OH272208   1.192   3.709   0.582 -0.1202  0.0641 -0.4773
16906TIP3    H172209   1.276   3.691   0.625  0.4502  1.3003 -1.0245
16906TIP3    H272210   1.141   3.629   0.596  1.4574 -1.0805 -0.8971
16907TIP3   OH272211   2.747   3.115   0.195  0.0739  0.1145  0.1259
16907TIP3    H172212   2.685   3.162   0.252 -0.8998  2.7374 -2.8233
16907TIP3    H272213   2.832   3.154   0.216  0.0816 -0.4296  1.1816
16908TIP3   OH272214   4.463   2.050  15.776  0.4570 -0.2062  0.0868
16908TIP3    H172215   4.510   2.120  15.822  1.1896  0.1855 -1.2124
16908TIP3    H272216   4.411   2.007  15.845  2.4267 -0.4364  1.5419
16909TIP3   OH272217   2.820   0.071   1.647  0.1411  0.1991  0.4177
16909TIP3    H172218   2.806   0.149   1.592 -0.4473  0.2572  0.6445
16909TIP3    H272219   2.750   0.011   1.621 -0.6845  0.5637  1.7003
16910TIP3   OH272220   2.468   1.289   1.657  0.1245 -0.4910 -0.3997
16910TIP3    H172221   2.479   1.208   1.606  0.7716 -0.9088  0.3890
16910TIP3    H272222   2.543   1.343   1.633 -0.7169  0.2457 -1.5378
16911TIP3   OH272223   1.908   1.979  11.046 -0.7875  0.3237  0.3323
16911TIP3    H172224   1.871   2.068  11.051  0.7897  0.9650  1.1074
16911TIP3    H272225   1.838   1.923  11.081 -1.6173  1.3010  0.3035
16912TIP3   OH272226   6.354   4.507  11.455  0.0500  0.2440  0.4583
16912TIP3    H172227   6.339   4.558  11.535 -1.7423  1.3151 -0.4697
16912TIP3    H272228   6.365   4.417  11.485  2.1062  0.9688  2.0725
16913TIP3   OH272229   0.333   6.396  16.644 -0.4210 -0.0359 -0.8222
16913TIP3    H172230   0.274   6.471  16.651 -1.4940 -0.9825  1.0305
16913TIP3    H272231   0.297   6.332  16.705  2.8092 -0.4660  0.8569
16914TIP3   OH272232   0.662   6.340  12.646  0.0325 -0.0237 -0.2379
16914TIP3    H172233   0.581   6.314  12.690  0.9292  1.9555  2.9748
16914TIP3    H272234   0.731   6.290  12.691  1.1922  3.4627  2.2661
16915TIP3   OH272235   1.879   3.365   4.004 -0.0071 -0.3571 -0.0122
16915TIP3    H172236   1.833   3.426   3.947  1.1729 -0.6959 -1.4132
16915TIP3    H272237   1.913   3.418   4.075  0.1121  0.4437 -0.6542
16916TIP3   OH272238   1.361   2.242  14.366 -0.1797  0.2580  0.1228
16916TIP3    H172239   1.334   2.320  14.317  0.3899 -0.1289 -0.8519
16916TIP3    H272240   1.456   2.236  14.350 -0.0064  0.0239  1.1601
16917TIP3   OH272241   0.143   2.773  12.474  0.0112 -0.5201  0.2490
16917TIP3    H172242   0.122   2.680  12.483 -0.5945 -0.1926  2.8202
16917TIP3    H272243   0.157   2.804  12.563  2.0859  1.4789 -0.6643
16918TIP3   OH272244   5.616   3.042  11.415  0.5177  0.0944  0.3255
16918TIP3    H172245   5.654   3.112  11.362  0.9567 -0.1197  0.3527
16918TIP3    H272246   5.651   3.057  11.503 -1.6823  1.5684  1.0165
16919TIP3   OH272247   3.188   3.547  17.140 -0.4011 -0.6200 -0.3694
16919TIP3    H172248   3.206   3.480  17.205 -0.2356 -0.4642 -0.2544
16919TIP3    H272249   3.214   3.508  17.057  0.4725 -0.4014 -0.2100
16920TIP3   OH272250   5.530   5.444  13.467  0.1541  0.1218 -0.1119
16920TIP3    H172251   5.608   5.404  13.506  0.3104  0.4894 -0.0356
16920TIP3    H272252   5.561   5.478  13.383  0.2465  0.8650  0.2124
16921TIP3   OH272253   0.947   0.789  12.737  0.0679 -0.1585  0.2949
16921TIP3    H172254   0.904   0.751  12.660 -0.2711 -0.2898  0.5458
16921TIP3    H272255   0.967   0.879  12.712 -0.5737 -0.0255  0.2646
16922TIP3   OH272256   2.306   4.085   0.740  0.6159 -0.3822  0.3375
16922TIP3    H172257   2.266   4.043   0.816  0.6986 -1.7104 -0.3255
16922TIP3    H272258   2.368   4.020   0.707  2.4151  1.1500  0.5955
16923TIP3   OH272259   3.986   3.130  10.850 -0.2019  0.3711 -0.5760
16923TIP3    H172260   3.913   3.161  10.796  0.3669  1.1908 -0.9068
16923TIP3    H272261   4.044   3.086  10.788 -1.0546 -1.5347 -0.0919
16924TIP3   OH272262   5.695   0.098   4.698 -0.2204 -0.4083 -0.5894
16924TIP3    H172263   5.750   0.142   4.763  0.7955  1.0228 -2.3391
16924TIP3    H272264   5.757   0.052   4.642 -1.0778 -1.5373 -0.6333
16925TIP3   OH272265   0.692   5.499   2.542  0.3034  0.1240  0.0027
16925TIP3    H172266   0.746   5.458   2.474 -0.2089 -1.0565  0.2844
16925TIP3    H272267   0.740   5.484   2.623 -0.2329 -0.5674  0.1988
16926TIP3   OH272268   4.627   2.382   2.971 -0.8781 -0.0757 -0.5169
16926TIP3    H172269   4.626   2.389   2.876  1.7212  2.1356 -0.5166
16926TIP3    H272270   4.588   2.464   3.001  1.7291  1.0403  0.1618
16927TIP3   OH272271   6.527   4.114   2.779  0.5510  1.0666 -0.1330
16927TIP3    H172272   6.617   4.086   2.761 -0.1314  0.4402 -3.1710
16927TIP3    H272273   6.477   4.082   2.704 -3.0873 -2.2083  3.3180
16928TIP3   OH272274   2.755   4.590  10.625 -0.0263  0.0897 -0.3600
16928TIP3    H172275   2.822   4.629  10.681 -0.4174  0.1883  0.0455
16928TIP3    H272276   2.795   4.509  10.591  1.6515  1.8606 -3.0009
16929TIP3   OH272277   4.731   1.459  12.266  0.5538  0.0706 -0.1247
16929TIP3    H172278   4.759   1.455  12.174  4.1996 -2.4032  0.8786
16929TIP3    H272279   4.647   1.413  12.267  0.3908  0.2063 -2.2016
16930TIP3   OH272280   6.419   2.044   3.310  0.3612 -0.1165  0.3287
16930TIP3    H172281   6.343   2.045   3.252  1.3063 -0.7232 -0.9522
16930TIP3    H272282   6.463   1.961   3.290  0.9755 -0.1113  1.5810
16931TIP3   OH272283   5.762   1.459   3.832  0.0114  0.0843 -0.1285
16931TIP3    H172284   5.686   1.402   3.825  0.9004 -0.9898 -1.7221
16931TIP3    H272285   5.810   1.426   3.909 -1.5565  1.3960  1.4977
16932TIP3   OH272286   0.483   6.315  12.302 -0.4600 -0.5317  0.1194
16932TIP3    H172287   0.451   6.229  12.330 -0.4109 -0.2242  1.1735
16932TIP3    H272288   0.576   6.314  12.323 -0.1165 -0.7642 -1.2924
16933TIP3   OH272289   6.810   3.201  14.789  0.6802  0.4436 -0.0077
16933TIP3    H172290   6.868   3.214  14.864  0.4232  1.0910  0.0845
16933TIP3    H272291   6.869   3.174  14.718  0.9592  0.1070  0.3487
16934TIP3   OH272292   5.980   3.117   5.735 -0.4681 -0.5343 -0.2694
16934TIP3    H172293   6.050   3.182   5.745 -0.3419 -0.7835  0.6172
16934TIP3    H272294   5.980   3.094   5.642 -0.2745  0.4682 -0.5255
16935TIP3   OH272295   0.692   5.329  15.756 -0.3903 -0.3406 -0.0896
16935TIP3    H172296   0.612   5.276  15.761 -0.1445 -0.6275  1.0440
16935TIP3    H272297   0.661   5.419  15.768 -0.6360 -0.3728 -0.4715
16936TIP3   OH272298   1.888   2.806  14.702  0.6345 -0.2904  0.8721
16936TIP3    H172299   1.947   2.870  14.662  1.5140 -1.5503  0.0621
16936TIP3    H272300   1.802   2.827  14.667  0.7837  0.8932  1.1912
16937TIP3   OH272301   1.355   1.829   5.430 -0.3059 -0.1937 -0.4155
16937TIP3    H172302   1.290   1.780   5.379  1.2893 -0.7662 -2.0344
16937TIP3    H272303   1.326   1.820   5.520 -2.0573 -1.0508 -1.0095
16938TIP3   OH272304   3.804   3.824   2.708 -0.0504 -0.1782  0.0346
16938TIP3    H172305   3.886   3.813   2.660  0.9964 -0.2515  1.7546
16938TIP3    H272306   3.831   3.848   2.797 -1.9297  1.6622  0.1959
16939TIP3   OH272307   2.740   2.748   1.129 -0.0844 -0.0086 -0.1921
16939TIP3    H172308   2.678   2.802   1.081  1.5819  0.5627 -1.8548
16939TIP3    H272309   2.711   2.751   1.220 -0.3730  3.3076 -0.2872
16940TIP3   OH272310   1.645   6.266  11.544  0.2819  0.0160  0.3687
16940TIP3    H172311   1.651   6.346  11.491  2.6308  0.2799  0.9497
16940TIP3    H272312   1.643   6.195  11.481 -3.1827  0.4451 -0.2308
16941TIP3   OH272313   1.850   5.063   5.003  0.3134  0.0309  0.4397
16941TIP3    H172314   1.873   5.047   5.094  2.2183  0.9702  0.1707
16941TIP3    H272315   1.861   5.158   4.991 -0.5005  0.0228 -0.6270
16942TIP3   OH272316   1.300   3.880   1.563  0.0404  0.9300  0.7633
16942TIP3    H172317   1.357   3.883   1.640 -0.9294  0.8037  1.5178
16942TIP3    H272318   1.272   3.789   1.558  0.5895  0.7994 -0.1331
16943TIP3   OH272319   5.075   1.432  14.724  0.0542  0.1342  0.4790
16943TIP3    H172320   5.071   1.412  14.630 -0.0501 -1.7084  0.8400
16943TIP3    H272321   5.158   1.394  14.754  0.2467  0.9982  1.0864
16944TIP3   OH272322   4.798   3.313   3.725 -0.3667  0.2598  0.1558
16944TIP3    H172323   4.891   3.314   3.747 -0.8410  0.2899  2.3868
16944TIP3    H272324   4.755   3.279   3.803 -2.1635 -0.8305 -1.2154
16945TIP3   OH272325   2.377   4.951   0.856 -0.3030  0.8942 -0.9139
16945TIP3    H172326   2.316   4.922   0.788 -2.3045 -0.8229  1.4451
16945TIP3    H272327   2.447   4.887   0.855 -1.6761 -0.7173  0.2921
16946TIP3   OH272328   2.032   4.529  17.156  0.0361  0.2202  0.5792
16946TIP3    H172329   1.967   4.460  17.140  1.5972 -1.0371 -0.7508
16946TIP3    H272330   2.062   4.514  17.245 -0.4930 -0.0535  0.7168
16947TIP3   OH272331   3.200   4.521  16.620  0.2538  0.0686 -0.3160
16947TIP3    H172332   3.224   4.519  16.528 -1.3514 -2.1290 -0.7565
16947TIP3    H272333   3.105   4.526  16.621  0.2645  0.5615  1.2323
16948TIP3   OH272334   0.397   4.615   6.075 -0.2846  0.2755 -0.6963
16948TIP3    H172335   0.458   4.678   6.036  0.3468  0.9277  1.2467
16948TIP3    H272336   0.431   4.598   6.162 -1.7594 -0.9699 -0.3005
16949TIP3   OH272337   2.025   5.415  17.198 -0.3079 -0.0045 -0.3206
16949TIP3    H172338   2.111   5.423  17.238  1.0233 -1.1872 -2.7672
16949TIP3    H272339   1.990   5.504  17.199 -0.0999  0.1336  2.7356
16950TIP3   OH272340   4.275   1.496  16.405  0.4998 -0.0912  0.8413
16950TIP3    H172341   4.183   1.498  16.432 -0.2193  0.8993 -1.4580
16950TIP3    H272342   4.278   1.427  16.339  1.0282  0.9308 -0.2368
16951TIP3   OH272343   5.446   1.266  12.632  0.0499 -0.0587 -0.1401
16951TIP3    H172344   5.413   1.242  12.545 -0.3705  2.0522 -0.6304
16951TIP3    H272345   5.532   1.223  12.638 -1.1457 -2.6562 -0.3352
16952TIP3   OH272346   4.292   5.320   0.907  0.4589  0.1855 -0.4074
16952TIP3    H172347   4.295   5.391   0.970 -0.7347  1.4642 -1.7117
16952TIP3    H272348   4.334   5.246   0.951 -0.9950  0.7853  2.1472
16953TIP3   OH272349   3.373   2.868   4.693  0.0320  0.3877 -0.3293
16953TIP3    H172350   3.459   2.842   4.725 -0.5218  0.0219  0.9079
16953TIP3    H272351   3.368   2.962   4.710 -0.3693  0.1491  0.9915
16954TIP3   OH272352   2.751   0.658  17.125  0.2645 -0.2863 -0.1677
16954TIP3    H172353   2.690   0.722  17.160  0.2684 -1.1932  1.6081
16954TIP3    H272354   2.711   0.573  17.145  0.5944 -0.8723 -1.8364
16955TIP3   OH272355   6.624   6.225  16.275  0.2649 -0.5305 -0.1959
16955TIP3    H172356   6.633   6.312  16.314  1.6223 -0.3340 -0.8825
16955TIP3    H272357   6.531   6.205  16.284 -0.1820  1.1972 -0.4638
16956TIP3   OH272358   1.658   2.448   0.762  0.0067 -0.0968  0.3925
16956TIP3    H172359   1.727   2.490   0.813  0.2459  1.0427 -0.8021
16956TIP3    H272360   1.688   2.358   0.749  1.4385  0.4547 -0.3584
16957TIP3   OH272361   6.087   3.093  12.572  0.0735  0.5348 -0.0101
16957TIP3    H172362   6.033   3.023  12.535 -0.3953  0.5766  0.5747
16957TIP3    H272363   6.120   3.141  12.496  0.3813 -0.2998 -0.4170
16958TIP3   OH272364   1.330   3.136   0.294 -0.4450 -0.7179  0.6444
16958TIP3    H172365   1.279   3.167   0.218  1.2530  0.4303 -0.0764
16958TIP3    H272366   1.273   3.154   0.369 -1.6487 -0.7206 -0.2271
16959TIP3   OH272367   5.219   4.317   5.154  0.2340 -0.3066  0.1515
16959TIP3    H172368   5.244   4.240   5.206  0.6837 -0.8264 -0.8055
16959TIP3    H272369   5.286   4.322   5.086  0.5339  1.2906  0.5426
16960TIP3   OH272370   0.443   1.625  16.939 -0.0643  0.1356 -0.6108
16960TIP3    H172371   0.399   1.709  16.945  0.3563  0.5176 -2.2180
16960TIP3    H272372   0.517   1.631  16.999  0.0856  0.9946 -0.8802
16961TIP3   OH272373   2.993   6.432   1.728 -0.6194 -0.2514  0.2768
16961TIP3    H172374   3.011   6.503   1.790  1.9442  0.1056 -0.7340
16961TIP3    H272375   2.940   6.474   1.660 -1.5963 -0.0935  1.1064
16962TIP3   OH272376   4.908   6.058  12.956 -0.1513  0.3369  0.3132
16962TIP3    H172377   4.903   6.144  12.914 -0.1895  0.8439  1.3111
16962TIP3    H272378   4.995   6.056  12.996 -0.9864  0.9028  2.2743
16963TIP3   OH272379   2.954   1.270   2.853  0.1881 -1.0045 -0.0249
16963TIP3    H172380   3.046   1.261   2.828  0.1188 -1.3014 -0.1730
16963TIP3    H272381   2.954   1.340   2.918  0.5287 -1.0433  0.0198
16964TIP3   OH272382   4.192   1.569  13.406 -0.5254  0.2037  0.2076
16964TIP3    H172383   4.224   1.543  13.492 -0.6104 -0.0903  0.1525
16964TIP3    H272384   4.181   1.486  13.359  0.8683  0.4187 -0.5521
16965TIP3   OH272385   2.323   5.603   2.536 -0.0158  0.4966  1.0142
16965TIP3    H172386   2.269   5.679   2.558 -0.0526  0.4718  1.0085
16965TIP3    H272387   2.308   5.541   2.607 -0.5503  0.1985  0.6516
16966TIP3   OH272388   3.448   4.562   0.525  0.1075  0.6140  0.4351
16966TIP3    H172389   3.459   4.536   0.617 -2.7631 -1.9485  0.2081
16966TIP3    H272390   3.521   4.521   0.480 -0.1335 -0.7084  1.2034
16967TIP3   OH272391   4.564   0.774  11.361  0.8082 -0.2079 -0.8585
16967TIP3    H172392   4.579   0.761  11.267  1.5013 -0.0818 -0.7737
16967TIP3    H272393   4.615   0.852  11.382 -0.8430  0.8845 -0.7490
16968TIP3   OH272394   2.991   1.015   2.587  0.3184 -0.1167  0.0301
16968TIP3    H172395   2.952   1.006   2.674  2.4121  0.6243  1.1035
16968TIP3    H272396   3.039   0.934   2.573  0.3496 -0.0488 -0.2631
16969TIP3   OH272397   3.627   5.091  10.377  0.0736 -0.3089  0.2057
16969TIP3    H172398   3.660   5.087  10.287 -0.5399 -3.5548  0.0045
16969TIP3    H272399   3.545   5.041  10.375  0.3686 -1.0445  2.6689
16970TIP3   OH272400   0.774   1.575   6.531  0.2084  0.4611 -0.3313
16970TIP3    H172401   0.799   1.660   6.568 -0.7821  0.9114 -0.6564
16970TIP3    H272402   0.819   1.511   6.586  1.4328  1.1960 -0.4249
16971TIP3   OH272403   0.551   3.205  15.627  0.2456  0.1803  0.1553
16971TIP3    H172404   0.609   3.196  15.551  0.2660 -0.7345  0.2615
16971TIP3    H272405   0.463   3.204  15.591  0.2189 -1.3285  0.2061
16972TIP3   OH272406   6.564   4.472   2.673 -0.1843 -0.1785  0.0215
16972TIP3    H172407   6.579   4.427   2.756  2.5232 -0.5721 -0.5901
16972TIP3    H272408   6.542   4.402   2.611  0.1323 -0.1765 -0.0935
16973TIP3   OH272409   0.473   2.143   5.596  0.2681  0.1047  0.0344
16973TIP3    H172410   0.453   2.054   5.625 -1.2563  1.0069  2.0200
16973TIP3    H272411   0.517   2.183   5.671 -2.4246  2.0748  0.7540
16974TIP3   OH272412   0.510   1.834  11.869 -0.1060 -0.0044 -0.4157
16974TIP3    H172413   0.500   1.883  11.951 -0.8289  0.4702 -0.7720
16974TIP3    H272414   0.534   1.900  11.805 -1.5932 -0.0132 -1.0077
16975TIP3   OH272415   2.282   6.636   0.456  0.1075  0.2466 -0.0998
16975TIP3    H172416   2.304   6.565   0.396 -0.9620 -0.2140  0.0240
16975TIP3    H272417   2.206   6.678   0.416 -0.1058  0.4525  0.5138
16976TIP3   OH272418   5.558   6.030  15.470  0.2695  0.0195 -0.0881
16976TIP3    H172419   5.552   5.945  15.514 -0.4359  0.3058  0.3895
16976TIP3    H272420   5.619   6.081  15.524  0.5167 -0.1062 -0.2478
16977TIP3   OH272421   6.037   3.815   4.991  0.1823 -0.2580  0.0588
16977TIP3    H172422   6.099   3.751   5.025 -0.1454  0.1656  1.5141
16977TIP3    H272423   5.982   3.838   5.066  0.3485  1.7925 -0.3824
16978TIP3   OH272424   3.532   0.142   5.911 -0.4514 -0.0289 -0.7614
16978TIP3    H172425   3.496   0.123   5.997  1.7003 -0.0597  0.1908
16978TIP3    H272426   3.523   0.059   5.862 -2.0363  0.1061 -0.7439
16979TIP3   OH272427   5.231   5.358   3.457  0.3842  0.3525 -0.1420
16979TIP3    H172428   5.206   5.450   3.465  0.8322  0.5910 -1.3155
16979TIP3    H272429   5.220   5.322   3.546 -0.5982  1.3214  0.1451
16980TIP3   OH272430   5.354   3.139  15.858 -0.2689  0.1354 -0.2044
16980TIP3    H172431   5.298   3.071  15.894 -0.0731 -0.8665 -1.7451
16980TIP3    H272432   5.294   3.209  15.832 -0.6920 -0.4439 -0.7890
16981TIP3   OH272433   3.575   1.498  16.143 -0.4421  0.3907 -0.1175
16981TIP3    H172434   3.603   1.429  16.083 -0.2620  1.3655 -1.1948
16981TIP3    H272435   3.489   1.469  16.175 -0.8279  0.1297 -1.3297
16982TIP3   OH272436   0.633   2.266   5.789 -0.2593 -0.7239  0.2684
16982TIP3    H172437   0.602   2.230   5.872  1.9083 -2.0055  0.5762
16982TIP3    H272438   0.659   2.356   5.810  0.4894 -1.1124  1.0416
16983TIP3   OH272439   1.287   1.399   1.344  0.1099 -0.1818 -0.2089
16983TIP3    H172440   1.359   1.455   1.373  0.4818 -0.8639  0.2170
16983TIP3    H272441   1.308   1.379   1.253 -0.4801  1.0602 -0.6380
16984TIP3   OH272442   0.570   5.718  12.893 -0.4304  0.0185 -0.4841
16984TIP3    H172443   0.575   5.669  12.812 -0.2081 -0.1481 -0.3703
16984TIP3    H272444   0.639   5.681  12.948 -1.7294 -1.1027  0.4598
16985TIP3   OH272445   1.466   2.956   1.450  0.1401 -0.2041 -0.4724
16985TIP3    H172446   1.533   2.961   1.518 -0.7049 -1.6370  0.5266
16985TIP3    H272447   1.463   3.044   1.413 -0.2691  1.0341  2.2391
16986TIP3   OH272448   1.950   4.849   2.870 -0.0740 -0.4711  0.0607
16986TIP3    H172449   2.023   4.793   2.843  0.0134 -0.6492  0.6693
16986TIP3    H272450   1.971   4.935   2.832  0.3007 -0.5941 -0.0132
16987TIP3   OH272451   1.928   4.022  13.599  0.2028 -0.3087  0.1550
16987TIP3    H172452   1.944   3.995  13.689  0.9497  0.8347  0.3871
16987TIP3    H272453   1.844   4.068  13.602  0.8481  0.8884  0.5513
16988TIP3   OH272454   4.310   3.388  14.292  0.1951 -0.0230 -0.2416
16988TIP3    H172455   4.286   3.307  14.247  1.3751 -0.5720  0.0747
16988TIP3    H272456   4.237   3.448  14.275 -0.2600 -0.8433 -1.2532
16989TIP3   OH272457   1.052   4.003  15.353  0.0617 -0.1816  0.1428
16989TIP3    H172458   1.004   4.062  15.411 -0.2040 -0.6884  0.4356
16989TIP3    H272459   1.053   3.919  15.398 -1.3181 -0.9486 -1.1749
16990TIP3   OH272460   3.604   0.347  11.249 -0.6478 -0.1227  0.2120
16990TIP3    H172461   3.669   0.331  11.318  0.8148 -4.2229 -1.7663
16990TIP3    H272462   3.648   0.407  11.188 -1.0414  1.6302  1.5764
16991TIP3   OH272463   3.314   4.298   1.410  0.0564 -0.0597 -0.1806
16991TIP3    H172464   3.229   4.301   1.454 -0.8265 -0.1077 -1.7982
16991TIP3    H272465   3.376   4.331   1.475 -1.6269  2.8879  0.0943
16992TIP3   OH272466   5.078   4.227   3.315 -0.2984 -0.0490 -0.0245
16992TIP3    H172467   4.983   4.226   3.307 -0.2314  0.2991 -1.1600
16992TIP3    H272468   5.100   4.320   3.325 -0.0792 -0.1201  0.1550
16993TIP3   OH272469   0.411   1.448  12.901 -0.6790  0.1327 -0.5802
16993TIP3    H172470   0.350   1.480  12.968 -0.4295 -1.1252  0.2861
16993TIP3    H272471   0.364   1.377  12.858  0.7811 -2.2530  1.4531
16994TIP3   OH272472   3.909   1.892  13.550 -0.2448  0.0596  0.4689
16994TIP3    H172473   3.819   1.925  13.552 -0.3555 -0.2508  0.7598
16994TIP3    H272474   3.960   1.956  13.599 -0.0926  0.8443 -0.6723
16995TIP3   OH272475   4.846   5.211   3.218  0.3917 -0.5564 -0.2544
16995TIP3    H172476   4.801   5.181   3.297  2.3216 -3.5969 -0.1381
16995TIP3    H272477   4.869   5.302   3.237 -2.4770  0.0032  1.0625
16996TIP3   OH272478   3.560   2.498  12.256  0.0304 -0.3780 -0.0090
16996TIP3    H172479   3.525   2.507  12.167 -0.2923 -0.1807  0.1348
16996TIP3    H272480   3.655   2.502  12.246 -0.0258  0.5499 -0.2477
16997TIP3   OH272481   6.781   4.739   0.941 -0.0229 -0.1615  0.3935
16997TIP3    H172482   6.798   4.650   0.909  1.3252  0.3079 -0.2546
16997TIP3    H272483   6.794   4.733   1.036 -0.6870 -0.8153  0.4504
16998TIP3   OH272484   4.843   1.830   3.467  0.4718 -0.1235 -0.1320
16998TIP3    H172485   4.901   1.818   3.391  0.1111  0.5043 -0.5143
16998TIP3    H272486   4.756   1.842   3.429  0.0857 -0.9973  0.4346
16999TIP3   OH272487   4.719   5.994   3.828 -0.0186 -0.6449 -0.3522
16999TIP3    H172488   4.806   5.966   3.854  1.6423  2.0403 -2.4177
16999TIP3    H272489   4.704   6.074   3.878  0.3629  0.8819 -2.5342
17000TIP3   OH272490   0.022   0.543   0.974  0.4314  0.2059 -0.1139
17000TIP3    H172491  -0.009   0.455   0.954  2.5855 -0.2086 -2.0456
17000TIP3    H272492  -0.047   0.581   1.027 -1.3139 -2.0714 -0.5924
17001TIP3   OH272493   5.720   3.916   0.944 -0.2534  0.0254 -0.1732
17001TIP3    H172494   5.763   3.833   0.966 -0.1038  0.0362 -0.4261
17001TIP3    H272495   5.788   3.968   0.903 -0.2694  0.3858  0.2444
17002TIP3   OH272496   5.635   2.692  16.027  0.1542  0.4130 -0.5976
17002TIP3    H172497   5.725   2.661  16.020 -0.9396 -3.3750 -0.1967
17002TIP3    H272498   5.626   2.721  16.117  0.4870 -1.1776 -0.0216
17003TIP3   OH272499   3.347   0.391  13.864  0.0391 -0.4252  0.0371
17003TIP3    H172500   3.355   0.396  13.959 -0.7839  0.4959  0.0708
17003TIP3    H272501   3.408   0.321  13.838  1.4017  0.3164  1.0856
17004TIP3   OH272502   1.613   0.596   0.116 -0.5908  0.1242 -0.3697
17004TIP3    H172503   1.660   0.593   0.198 -0.8739 -2.3469 -0.2146
17004TIP3    H272504   1.539   0.655   0.132  1.3708  2.6469 -0.0920
17005TIP3   OH272505   3.791   5.046   1.170  0.5901 -0.1981  0.5018
17005TIP3    H172506   3.743   5.116   1.127  0.4638 -0.1966  0.6429
17005TIP3    H272507   3.807   5.079   1.259  1.7516  0.2212  0.1433
17006TIP3   OH272508   0.392   3.490   6.561 -0.8411  0.2784  0.6019
17006TIP3    H172509   0.478   3.495   6.520 -1.2879  0.6294 -0.3172
17006TIP3    H272510   0.378   3.396   6.575 -0.3073  0.2193  0.7821
17007TIP3   OH272511   6.743   3.606  10.941 -0.1929  0.0838 -0.0052
17007TIP3    H172512   6.807   3.673  10.917 -1.8229  1.7760  0.1017
17007TIP3    H272513   6.687   3.597  10.863 -1.1470  0.2815  0.6406
17008TIP3   OH272514   4.417   5.190  11.273 -0.1863 -0.0737  0.2185
17008TIP3    H172515   4.339   5.158  11.319 -1.3016  1.3242 -0.6299
17008TIP3    H272516   4.453   5.113  11.230 -0.2145 -1.0369  1.8149
17009TIP3   OH272517   5.229   6.629   4.700  0.3725 -0.5634  0.6593
17009TIP3    H172518   5.284   6.551   4.705 -0.3700 -1.2259 -0.7716
17009TIP3    H272519   5.280   6.691   4.647  1.0782  0.0652  2.0182
17010TIP3   OH272520   4.597   5.187   2.042 -0.1787  0.2443 -0.1288
17010TIP3    H172521   4.650   5.128   1.988 -0.4891 -1.0035  0.8942
17010TIP3    H272522   4.563   5.252   1.980 -1.5259 -1.8250 -1.6703
17011TIP3   OH272523   4.252   5.852  13.831  0.1490  0.0581 -0.5939
17011TIP3    H172524   4.207   5.933  13.808  1.0085  0.5679 -0.5187
17011TIP3    H272525   4.220   5.787  13.768 -1.5933  0.0885  0.1911
17012TIP3   OH272526   5.227   1.104   2.741 -0.3481 -0.2891 -0.2134
17012TIP3    H172527   5.153   1.049   2.718 -0.8405 -0.0731  0.7748
17012TIP3    H272528   5.273   1.055   2.810  0.6071 -0.5588 -1.0215
17013TIP3   OH272529   0.125   4.115  14.688 -0.1860  0.1038 -0.3185
17013TIP3    H172530   0.091   4.039  14.639  2.3008 -0.8792 -0.6426
17013TIP3    H272531   0.145   4.081  14.775 -1.0174  0.9384  0.2215
17014TIP3   OH272532   0.796   0.864   6.677 -0.2186  0.1199  0.4332
17014TIP3    H172533   0.861   0.904   6.620  0.4835  0.0131  1.1410
17014TIP3    H272534   0.809   0.770   6.666 -0.6377  0.0927  0.1507
17015TIP3   OH272535   4.869   0.481  13.228  0.4260 -0.1642  0.7901
17015TIP3    H172536   4.948   0.462  13.278  2.1510  2.3489 -0.7503
17015TIP3    H272537   4.815   0.532  13.288  0.2247 -1.3131  1.6280
17016TIP3   OH272538   3.539   4.383  13.027  1.0327  0.5358 -0.5934
17016TIP3    H172539   3.555   4.360  12.936  0.6974  1.7286 -0.9693
17016TIP3    H272540   3.610   4.340  13.075  0.4798 -1.1775 -1.2351
17017TIP3   OH272541   5.944   0.630   4.586 -0.0630 -0.3304 -0.3620
17017TIP3    H172542   5.963   0.553   4.640  1.1235 -0.3754 -0.8177
17017TIP3    H272543   5.850   0.625   4.571  0.1796 -2.5256 -1.5899
17018TIP3   OH272544   3.833   3.689  15.335  0.3611 -0.0362 -0.4113
17018TIP3    H172545   3.923   3.720  15.329  0.2268  0.8761  1.4811
17018TIP3    H272546   3.801   3.688  15.245  1.5323  1.8370 -0.8872
17019TIP3   OH272547   0.612   2.627  11.617  0.1945  0.3797  0.2193
17019TIP3    H172548   0.567   2.557  11.664  0.4379  0.2338  0.2339
17019TIP3    H272549   0.581   2.617  11.526 -0.7159  1.0156  0.4442
17020TIP3   OH272550   6.775   4.088  15.284  0.2147 -0.1931 -0.5128
17020TIP3    H172551   6.701   4.083  15.344  0.2911 -1.2646 -0.4918
17020TIP3    H272552   6.737   4.119  15.202 -0.5620 -2.1126 -0.9355
17021TIP3   OH272553   6.021   6.645   3.710 -0.1896  0.3550  0.3261
17021TIP3    H172554   6.050   6.581   3.775  1.2820  0.9255  0.2809
17021TIP3    H272555   6.087   6.640   3.640  0.8594  2.9101  1.0155
17022TIP3   OH272556   4.149   2.409   4.138 -0.0475 -0.0897 -0.0281
17022TIP3    H172557   4.198   2.453   4.068 -0.4968 -0.0162 -0.3017
17022TIP3    H272558   4.200   2.331   4.158  1.1427  0.8867  0.9507
17023TIP3   OH272559   3.495   2.927  15.966 -0.5577 -0.0504 -0.0122
17023TIP3    H172560   3.483   2.906  15.874  0.6958 -0.8807 -0.0137
17023TIP3    H272561   3.556   3.001  15.966 -1.1322  0.4339  0.1429
17024TIP3   OH272562   2.610   1.697  13.335  0.0490  0.0181 -0.0505
17024TIP3    H172563   2.606   1.609  13.372  1.2092  0.7109  1.8771
17024TIP3    H272564   2.565   1.752  13.399  0.3097  0.9862 -0.6747
17025TIP3   OH272565   6.194   0.026   0.312  0.3346  0.0577 -0.3330
17025TIP3    H172566   6.206   0.121   0.322 -0.0509  0.0783 -0.0507
17025TIP3    H272567   6.201  -0.008   0.401 -0.8726 -0.0198 -0.2530
17026TIP3   OH272568   5.894   5.645   1.434 -0.8690 -0.4660 -0.0881
17026TIP3    H172569   5.891   5.566   1.489  0.4395 -1.0959 -0.8715
17026TIP3    H272570   5.937   5.710   1.488 -0.5944 -0.7458  0.0326
17027TIP3   OH272571   4.169   5.566  15.349 -0.1607 -0.4534  0.3732
17027TIP3    H172572   4.168   5.566  15.445 -1.0998  0.0929  0.3755
17027TIP3    H272573   4.252   5.609  15.326 -1.4690  2.7083  0.9891
17028TIP3   OH272574   6.702   6.103   6.598 -0.4404  0.0381 -0.8577
17028TIP3    H172575   6.656   6.130   6.677 -1.2697 -0.4018 -1.1779
17028TIP3    H272576   6.767   6.172   6.583 -1.1339  0.7830 -0.5191
17029TIP3   OH272577   4.391   2.013  14.681  0.2069  0.2559 -0.1570
17029TIP3    H172578   4.465   2.068  14.654  0.8477 -0.2043  0.6155
17029TIP3    H272579   4.381   1.950  14.610  0.4671  0.4207 -0.3426
17030TIP3   OH272580   0.816   4.326   1.831 -0.2038  0.7018  0.1773
17030TIP3    H172581   0.892   4.355   1.781 -0.1477 -0.6758 -0.5879
17030TIP3    H272582   0.843   4.243   1.869 -1.2610  0.2966  0.0632
17031TIP3   OH272583   4.982   5.064  16.161  0.1798 -0.2449  0.3577
17031TIP3    H172584   4.995   5.158  16.156 -1.0020 -0.0846 -0.0272
17031TIP3    H272585   4.909   5.046  16.102 -1.0655 -1.0799  2.0356
17032TIP3   OH272586   1.934   2.505  15.729 -0.9731 -0.4598  0.1575
17032TIP3    H172587   1.889   2.530  15.648 -2.1535  1.8709  1.4214
17032TIP3    H272588   1.871   2.525  15.798  0.5554 -0.9462  1.7447
17033TIP3   OH272589   6.403   0.263  12.571  0.2067  0.0980  0.5453
17033TIP3    H172590   6.341   0.221  12.511 -0.3265 -0.7961  1.6957
17033TIP3    H272591   6.387   0.357  12.559  0.6833 -0.0075 -1.2920
17034TIP3   OH272592   2.362   5.338  11.203 -0.3116 -0.4711  0.3849
17034TIP3    H172593   2.360   5.306  11.112 -1.0042  0.5423  0.0302
17034TIP3    H272594   2.405   5.268  11.252  0.8719 -0.6790 -0.8730
17035TIP3   OH272595   2.346   0.014  12.318  0.2294 -0.0054  0.5822
17035TIP3    H172596   2.412   0.080  12.338 -1.7712  2.8156 -1.2654
17035TIP3    H272597   2.338   0.017  12.222 -1.6522 -1.1774  0.6451
17036TIP3   OH272598   2.853   0.837   6.338  0.0633 -0.1977 -0.0238
17036TIP3    H172599   2.800   0.786   6.276 -0.6706  1.4714 -0.8391
17036TIP3    H272600   2.790   0.892   6.384  0.8751  0.3415  0.4740
17037TIP3   OH272601   4.157   2.022  16.990 -0.4750  0.2471  0.4008
17037TIP3    H172602   4.149   2.017  16.894  1.6843  0.0735  0.1970
17037TIP3    H272603   4.232   2.079  17.006 -0.3823 -0.2694  1.9812
17038TIP3   OH272604   4.781   1.627  15.564  0.3828  0.0237  0.5004
17038TIP3    H172605   4.789   1.535  15.538 -1.4702  0.2543 -1.1013
17038TIP3    H272606   4.707   1.628  15.624 -0.7175  0.6861 -0.8343
17039TIP3   OH272607   5.224   5.194   5.455 -0.7570 -0.1902 -0.3045
17039TIP3    H172608   5.191   5.222   5.540  0.8485  0.7321  0.0449
17039TIP3    H272609   5.146   5.187   5.400 -1.7102  0.1373  0.9710
17040TIP3   OH272610   4.930   1.154   5.330  0.5236 -0.3324 -0.0762
17040TIP3    H172611   4.900   1.092   5.264  0.6232 -1.7869  1.1998
17040TIP3    H272612   4.894   1.238   5.302 -1.1863 -1.2831 -0.8358
17041TIP3   OH272613   6.185   0.529   4.837 -0.4201  0.6604 -0.6053
17041TIP3    H172614   6.198   0.616   4.876  0.7704  0.4231 -0.4227
17041TIP3    H272615   6.090   0.518   4.834 -0.6739  2.6376 -2.1422
17042TIP3   OH272616   4.822   2.362  12.430 -0.4617 -0.2032 -0.4196
17042TIP3    H172617   4.774   2.417  12.493  0.4127  0.8354 -0.6463
17042TIP3    H272618   4.873   2.302  12.485 -0.9841 -0.4285 -0.1687
17043TIP3   OH272619   1.528   1.199   3.989 -0.2972  0.4038 -0.1445
17043TIP3    H172620   1.523   1.104   3.986 -1.8979  0.4784 -0.4921
17043TIP3    H272621   1.620   1.217   4.010 -0.2643 -1.2266  1.3217
17044TIP3   OH272622   5.028   3.902   2.760 -0.4690 -0.4235 -0.0759
17044TIP3    H172623   4.986   3.931   2.841 -0.4674 -0.0212 -0.2218
17044TIP3    H272624   5.077   3.977   2.730  0.3375 -0.8800  0.0714
17045TIP3   OH272625   4.180   0.760   4.700 -0.3279  0.8405  0.0100
17045TIP3    H172626   4.252   0.727   4.646 -0.2311  2.2230 -0.7525
17045TIP3    H272627   4.105   0.706   4.677  0.3401 -0.3216  0.4804
17046TIP3   OH272628   5.301   4.496  15.704  0.4358  0.3559  0.3839
17046TIP3    H172629   5.274   4.469  15.791 -1.1821  2.5495  0.6546
17046TIP3    H272630   5.246   4.572  15.684  2.3642  1.3597 -1.5863
17047TIP3   OH272631   5.868   6.306   5.054  0.0008 -0.2578  0.3643
17047TIP3    H172632   5.934   6.237   5.064 -1.2192 -1.2907  1.9019
17047TIP3    H272633   5.899   6.359   4.981  2.2727 -0.9599  0.7516
17048TIP3   OH272634   4.914   6.273  12.468 -0.4004 -0.3502  0.2041
17048TIP3    H172635   4.886   6.296  12.557 -0.7340 -0.9555  0.2635
17048TIP3    H272636   4.924   6.178  12.471 -3.1827 -0.7960 -1.1322
17049TIP3   OH272637   4.668   3.422  12.983 -0.0093 -0.3584  0.2074
17049TIP3    H172638   4.715   3.339  12.976 -0.2414 -0.4936  0.2339
17049TIP3    H272639   4.610   3.410  13.059 -1.6282 -0.9759 -1.0692
17050TIP3   OH272640   2.408   2.390  12.577  0.8127  0.2576 -0.1907
17050TIP3    H172641   2.472   2.322  12.557  0.1830 -0.0747 -1.1024
17050TIP3    H272642   2.330   2.366  12.527  0.4418  1.4294 -0.2045
17051TIP3   OH272643   5.637   6.734   0.111  0.3844 -0.0589  0.2503
17051TIP3    H172644   5.690   6.758   0.035 -0.3596  0.0295 -0.2571
17051TIP3    H272645   5.600   6.648   0.088 -0.0150  0.0680  0.4088
17052TIP3   OH272646   4.526   2.740   4.229 -0.0664 -0.4065 -0.1938
17052TIP3    H172647   4.477   2.729   4.147 -0.0887 -0.0765 -0.2270
17052TIP3    H272648   4.617   2.721   4.205  0.1163  0.8491 -0.5783
17053TIP3   OH272649   0.161   6.387  13.393 -0.3279 -0.1629  0.0763
17053TIP3    H172650   0.211   6.434  13.460 -0.1684 -0.8149  0.4243
17053TIP3    H272651   0.183   6.295  13.407  0.8378 -0.2278 -1.7874
17054TIP3   OH272652   2.195   4.327   2.967 -0.5774  0.2256 -0.2362
17054TIP3    H172653   2.119   4.277   2.998 -0.5678  0.6207  0.4369
17054TIP3    H272654   2.187   4.326   2.872 -2.2711  1.5414 -0.1565
17055TIP3   OH272655   2.980   2.978   0.823 -0.3702  0.1650 -0.0694
17055TIP3    H172656   3.009   2.910   0.883 -0.1610  0.7959  0.5537
17055TIP3    H272657   2.901   3.014   0.863  1.1621  2.3488  1.2133
17056TIP3   OH272658   0.503   3.812   0.061 -0.7273 -0.3739 -0.4374
17056TIP3    H172659   0.422   3.775   0.098  0.5071 -1.1197  1.6783
17056TIP3    H272660   0.572   3.779   0.118  0.8211  2.5745 -0.4359
17057TIP3   OH272661   5.264   5.301  15.816  0.2124  0.2260 -0.0208
17057TIP3    H172662   5.317   5.319  15.893  0.8652  1.6697 -0.7769
17057TIP3    H272663   5.196   5.241  15.847  0.9118  0.1813  1.4882
17058TIP3   OH272664   3.982   1.722  13.297  0.8184 -0.0658 -0.5636
17058TIP3    H172665   3.935   1.784  13.353  1.6020  2.9039 -2.9606
17058TIP3    H272666   4.033   1.668  13.359 -2.4047 -0.6712  1.8371
17059TIP3   OH272667   4.327   2.093   5.998 -0.2707  0.1479 -0.2018
17059TIP3    H172668   4.296   2.052   5.917  0.0404  1.1183 -0.8420
17059TIP3    H272669   4.250   2.097   6.054 -0.6738  0.1349 -0.7482
17060TIP3   OH272670   6.063   5.495   3.172  0.1719  0.3305  0.0582
17060TIP3    H172671   6.005   5.422   3.191 -0.0155  0.8096  1.5006
17060TIP3    H272672   6.005   5.571   3.168  0.6052  0.7187  0.8843
17061TIP3   OH272673   6.813   4.240   2.256 -0.0339 -0.6038  0.2308
17061TIP3    H172674   6.740   4.248   2.195  0.6384  0.0023 -0.5188
17061TIP3    H272675   6.857   4.326   2.253 -0.2021 -0.4367  1.8533
17062TIP3   OH272676   2.455   3.934  12.029 -0.1632  0.6562 -0.1130
17062TIP3    H172677   2.472   4.026  12.051  0.8172  0.2243  1.1023
17062TIP3    H272678   2.442   3.933  11.934  2.1621  1.7467 -0.5080
17063TIP3   OH272679   2.236   1.857   4.576 -0.3555 -0.3567  0.1761
17063TIP3    H172680   2.158   1.840   4.629 -0.2569 -0.0448  0.4241
17063TIP3    H272681   2.234   1.951   4.560 -0.6573 -0.5190 -0.8085
17064TIP3   OH272682   4.007   5.967  13.286 -0.4936 -0.3536  0.2121
17064TIP3    H172683   4.073   6.030  13.317 -1.4700  0.1488  1.3835
17064TIP3    H272684   4.020   5.964  13.192  1.2315 -0.3082  0.4041
17065TIP3   OH272685   0.326   4.796   1.063 -0.2373 -0.1494  0.1666
17065TIP3    H172686   0.306   4.876   1.014  0.0742 -0.1530  0.0283
17065TIP3    H272687   0.274   4.728   1.019  0.7885 -0.3418 -0.8055
17066TIP3   OH272688   6.744   2.056   5.959 -0.0952  0.3991  0.0462
17066TIP3    H172689   6.649   2.046   5.950 -0.5630  3.5323  0.4265
17066TIP3    H272690   6.757   2.083   6.049  0.8326  2.3033 -0.5958
17067TIP3   OH272691   2.407   0.030   4.827  0.9007 -1.0628 -0.0160
17067TIP3    H172692   2.355  -0.028   4.770 -0.7098 -1.3890  1.6849
17067TIP3    H272693   2.392   0.118   4.792 -0.8219 -1.1588  0.3932
17068TIP3   OH272694   4.803   6.454   3.302 -0.3099 -0.2045  0.0811
17068TIP3    H172695   4.867   6.477   3.236  0.8501 -1.6562  0.6436
17068TIP3    H272696   4.845   6.385   3.354 -1.6446  0.0318  1.5659
17069TIP3   OH272697   2.443   5.028   5.681  0.0874 -0.2880  0.0600
17069TIP3    H172698   2.426   4.934   5.678  0.0597 -0.2770 -0.1609
17069TIP3    H272699   2.364   5.066   5.717 -0.0930 -0.3035 -0.3139
17070TIP3   OH272700   0.460   4.171  15.607  0.1721 -0.6466 -0.1751
17070TIP3    H172701   0.531   4.214  15.655  0.1684 -1.8682  0.9850
17070TIP3    H272702   0.380   4.207  15.645  0.1721 -0.5464 -0.2709
17071TIP3   OH272703   3.874   1.444  12.555  0.1773  0.5644  0.1465
17071TIP3    H172704   3.918   1.521  12.591  0.3493  0.6575 -0.2588
17071TIP3    H272705   3.903   1.371  12.611 -0.6686  0.9150  1.0822
17072TIP3   OH272706   6.337   1.444   4.336  0.4993 -0.3161 -0.5172
17072TIP3    H172707   6.249   1.416   4.309  0.9945 -1.2004 -1.2997
17072TIP3    H272708   6.361   1.382   4.405  0.5336 -0.1243 -0.3591
17073TIP3   OH272709   1.181   0.577   4.945 -0.7703 -0.2205 -0.0703
17073TIP3    H172710   1.200   0.635   5.018  3.5413 -0.0429 -1.1010
17073TIP3    H272711   1.180   0.634   4.868  1.3805 -1.1087 -0.8322
17074TIP3   OH272712   6.754   1.046  14.046 -0.4710  0.4624 -0.4765
17074TIP3    H172713   6.707   1.118  14.005 -0.4532 -0.2996 -1.9054
17074TIP3    H272714   6.765   1.073  14.137  0.8451  2.9493 -1.2639
17075TIP3   OH272715   3.511   5.895   5.081 -0.0902  0.2101  0.1355
17075TIP3    H172716   3.518   5.866   5.172  0.6006 -0.2383 -0.0570
17075TIP3    H272717   3.574   5.842   5.033  0.8829  1.6977 -0.3134
17076TIP3   OH272718   3.549   0.738  16.753  0.0562 -0.0623  0.0192
17076TIP3    H172719   3.458   0.715  16.773 -1.0497  3.4386 -0.2924
17076TIP3    H272720   3.554   0.732  16.657  0.1354 -0.2702  0.0377
17077TIP3   OH272721   6.658   6.335  17.039  0.2935 -0.0341 -0.0809
17077TIP3    H172722   6.613   6.398  16.982  0.8394  1.1084  0.7193
17077TIP3    H272723   6.600   6.258  17.040 -0.5797  0.5949 -0.7629
17078TIP3   OH272724   6.394   0.854   3.111 -0.1537 -0.3605  0.1653
17078TIP3    H172725   6.399   0.762   3.134 -0.9381 -1.2676 -2.7764
17078TIP3    H272726   6.320   0.888   3.160  0.5058 -1.1014  1.7258
17079TIP3   OH272727   2.187   3.230   2.438  0.6719 -0.5344  0.2877
17079TIP3    H172728   2.253   3.269   2.381  0.7563  0.3768  0.9860
17079TIP3    H272729   2.227   3.230   2.525  0.0746 -0.7749  0.5705
17080TIP3   OH272730   0.723   1.336  13.175 -0.2271  0.4896  0.0243
17080TIP3    H172731   0.657   1.397  13.209 -0.1267  0.9564 -0.6057
17080TIP3    H272732   0.749   1.284  13.252  1.5427  2.9287  1.1996
17081TIP3   OH272733   6.369   1.289   5.667 -0.0782  0.2603 -0.3285
17081TIP3    H172734   6.394   1.215   5.611  1.5347  0.5618 -0.0567
17081TIP3    H272735   6.283   1.265   5.702 -1.2324  0.1165 -3.0045
17082TIP3   OH272736   5.824   1.233   6.011  0.3187  0.3964  0.2154
17082TIP3    H172737   5.866   1.293   5.949 -0.4292  2.0479  1.2165
17082TIP3    H272738   5.892   1.216   6.077 -0.0638  1.9551  1.0870
17083TIP3   OH272739   1.065   2.728   4.883 -0.1801  0.2594 -0.1263
17083TIP3    H172740   1.035   2.816   4.904 -0.0976  0.6664 -1.5682
17083TIP3    H272741   1.017   2.706   4.802  0.8716 -0.4350 -0.5766
17084TIP3   OH272742   0.225   1.553  14.644 -0.1782  0.2071 -0.1043
17084TIP3    H172743   0.293   1.548  14.577 -1.0914 -1.8248 -0.9835
17084TIP3    H272744   0.152   1.501  14.608 -0.6603 -1.0893  2.4858
17085TIP3   OH272745   4.382   0.596   1.778 -0.3781  0.3087 -0.1931
17085TIP3    H172746   4.389   0.554   1.692 -1.7106 -0.4049  0.0055
17085TIP3    H272747   4.317   0.665   1.766 -0.5028  0.2660  0.2164
17086TIP3   OH272748   1.333   4.509  16.272  0.4332 -0.2140  0.0669
17086TIP3    H172749   1.402   4.481  16.212  1.5012  0.1763  1.0679
17086TIP3    H272750   1.278   4.432  16.283  2.0228 -1.2723  0.9998
17087TIP3   OH272751   3.664   1.168   5.721  0.1764  0.3721  0.0677
17087TIP3    H172752   3.670   1.075   5.741 -1.0650  0.3851  0.5369
17087TIP3    H272753   3.718   1.179   5.642  2.0060 -0.3530  1.1610
17088TIP3   OH272754   6.761   5.522   1.110  0.7655  0.3000  0.3404
17088TIP3    H172755   6.672   5.517   1.075  0.6101  2.9909  0.2011
17088TIP3    H272756   6.811   5.568   1.042  1.8116  0.5277  1.2398
17089TIP3   OH272757   3.808   1.834   0.327 -0.0985 -0.3412  0.0624
17089TIP3    H172758   3.841   1.914   0.286  2.2100 -1.3388 -0.1657
17089TIP3    H272759   3.854   1.831   0.412  1.1372 -2.1997 -0.6122
17090TIP3   OH272760   2.259   2.157  14.178  0.0358 -0.3504  0.0860
17090TIP3    H172761   2.281   2.093  14.111 -1.1544  0.8757 -1.5616
17090TIP3    H272762   2.243   2.238  14.130 -1.3587  0.4612  1.7831
17091TIP3   OH272763   1.808   4.517   1.318  0.5760  0.6899  0.1237
17091TIP3    H172764   1.762   4.601   1.308 -0.4126  0.1249 -0.1986
17091TIP3    H272765   1.883   4.524   1.259 -1.5150 -0.0333 -2.8230
17092TIP3   OH272766   1.682   4.170  14.916 -0.1159  0.5677  0.0421
17092TIP3    H172767   1.645   4.142  15.000 -0.2129 -1.1130 -0.5297
17092TIP3    H272768   1.676   4.093  14.860  2.7417  0.7109 -0.5858
17093TIP3   OH272769   4.193   2.411   1.827 -0.1739 -0.7494  0.2318
17093TIP3    H172770   4.266   2.403   1.887 -0.4997  2.9413  1.3611
17093TIP3    H272771   4.115   2.403   1.882 -0.5507 -0.9824 -0.3243
17094TIP3   OH272772   1.669   2.499  11.090  0.0142  0.5385  0.2303
17094TIP3    H172773   1.750   2.547  11.072 -0.2269  1.0176  0.4218
17094TIP3    H272774   1.637   2.473  11.003 -0.2237  1.3317  0.0818
17095TIP3   OH272775   2.959   4.872  12.354  0.0977 -0.4950 -0.2885
17095TIP3    H172776   3.006   4.955  12.356 -2.2965  0.9182  0.2973
17095TIP3    H272777   3.027   4.806  12.369  2.1818  1.2567 -1.5112
17096TIP3   OH272778   5.832   3.746  14.149  0.9457 -0.7155 -0.0396
17096TIP3    H172779   5.748   3.791  14.157  1.5036  0.2727  0.5193
17096TIP3    H272780   5.847   3.740  14.055  0.0560 -1.2992 -0.1570
17097TIP3   OH272781   2.849   4.594   6.293  0.1010 -0.2692  0.3607
17097TIP3    H172782   2.861   4.540   6.371 -0.2152 -0.9797 -0.0705
17097TIP3    H272783   2.915   4.561   6.232  0.1721  0.1051  0.2393
17098TIP3   OH272784   2.837   0.926   0.162 -0.4526  0.2858  0.4031
17098TIP3    H172785   2.741   0.923   0.155 -0.4789 -0.6141  0.9894
17098TIP3    H272786   2.861   0.839   0.193  0.4881  0.7695  1.0814
17099TIP3   OH272787   4.057   1.413  14.970 -0.0218  0.0598  0.5558
17099TIP3    H172788   4.019   1.439  14.886 -1.5090 -2.9217  0.1980
17099TIP3    H272789   4.128   1.354  14.947  0.5519  0.3990  1.4004
17100TIP3   OH272790   0.127   6.386   5.405  0.0876  0.5198  0.0803
17100TIP3    H172791   0.182   6.406   5.481  1.2700  1.2336 -0.9203
17100TIP3    H272792   0.174   6.424   5.331 -0.3655 -1.2781 -1.1910
17101TIP3   OH272793   4.024   0.618  15.835  0.0127 -0.0420  0.0931
17101TIP3    H172794   3.940   0.647  15.870 -1.2112 -0.1650 -2.5229
17101TIP3    H272795   4.038   0.532  15.873 -0.7011  0.2461  1.0537
17102TIP3   OH272796   2.061   0.085  12.046  0.1387 -0.3242 -0.0163
17102TIP3    H172797   2.001   0.060  12.116  2.1807  0.9093  2.3193
17102TIP3    H272798   2.137   0.028  12.057  1.2182  1.0480 -0.0647
17103TIP3   OH272799   0.552   1.838  13.822  0.4177  0.3386  0.4415
17103TIP3    H172800   0.623   1.844  13.885  0.7762 -2.5810  0.4824
17103TIP3    H272801   0.482   1.792  13.868 -0.3844  0.5976 -0.4699
17104TIP3   OH272802   1.025   3.962  12.889 -0.0035  0.4528 -0.0179
17104TIP3    H172803   1.033   3.936  12.981  0.8507  1.6709  0.2730
17104TIP3    H272804   1.112   3.995  12.866  0.2319 -1.1653 -1.7110
17105TIP3   OH272805   2.842   6.095   3.579 -0.5289 -0.2847 -0.1901
17105TIP3    H172806   2.803   6.163   3.523 -1.4609 -0.0629  0.6983
17105TIP3    H272807   2.768   6.043   3.610  0.2450 -2.3999 -1.6605
17106TIP3   OH272808   3.498   2.084  12.949 -0.3371  0.2869  0.4305
17106TIP3    H172809   3.504   2.032  12.869  4.2307  1.3368 -0.2262
17106TIP3    H272810   3.515   2.021  13.020 -1.3114 -0.1318  0.3006
17107TIP3   OH272811   2.787   0.990  10.561 -0.1995  0.1313 -0.4159
17107TIP3    H172812   2.812   1.046  10.487  0.4273  1.1202  0.5204
17107TIP3    H272813   2.769   0.905  10.521  0.2715  0.6014 -1.6908
17108TIP3   OH272814   6.082   3.390   3.645 -0.3239 -0.6258 -0.0642
17108TIP3    H172815   6.037   3.438   3.575  1.4864  1.0627 -0.1596
17108TIP3    H272816   6.076   3.448   3.721  0.9580 -0.7239  0.1239
17109TIP3   OH272817   5.500   3.260   2.792 -0.0313 -0.2096  0.2862
17109TIP3    H172818   5.422   3.264   2.737  0.6483  1.4446 -0.6111
17109TIP3    H272819   5.470   3.217   2.873 -2.6772  3.0192  1.2143
17110TIP3   OH272820   3.139   3.276   4.543  0.1665  0.0213  0.1879
17110TIP3    H172821   3.233   3.267   4.559 -0.1230 -2.5113  0.9987
17110TIP3    H272822   3.132   3.348   4.481  2.5520  0.9106  0.8233
17111TIP3   OH272823   2.643   3.000   6.425 -0.3361 -0.2577 -0.9681
17111TIP3    H172824   2.714   3.063   6.432 -0.0769 -0.6685  0.5045
17111TIP3    H272825   2.620   2.999   6.332  0.9849  0.5262 -1.3217
17112TIP3   OH272826   2.847   4.816  10.292  0.1916 -0.1573 -0.5987
17112TIP3    H172827   2.807   4.874  10.227 -1.1192  0.6048  0.8318
17112TIP3    H272828   2.774   4.769  10.330  0.4616  1.6991  2.5255
17113TIP3   OH272829   2.497   3.278  11.525 -0.2200 -0.6636  0.7712
17113TIP3    H172830   2.432   3.216  11.559 -1.3080  1.1018  2.0964
17113TIP3    H272831   2.553   3.297  11.600  1.4770 -1.6338 -0.1877
17114TIP3   OH272832   2.127   2.984  15.995 -0.3260 -0.3000 -0.0664
17114TIP3    H172833   2.100   3.026  15.913  0.9469  2.6868  0.9088
17114TIP3    H272834   2.178   2.908  15.967 -0.2699  0.4066 -2.0594
17115TIP3   OH272835   1.778   3.986   4.478 -0.1353 -0.0360 -0.1381
17115TIP3    H172836   1.749   4.064   4.430  0.1826  0.2730  0.1616
17115TIP3    H272837   1.819   4.021   4.557  0.9865 -0.4598 -0.5183
17116TIP3   OH272838   5.371   2.011  16.656  0.0207 -0.1222  0.2480
17116TIP3    H172839   5.285   2.032  16.619  0.5219  0.3574 -0.6892
17116TIP3    H272840   5.352   1.975  16.742 -1.3059 -2.4939 -0.9167
17117TIP3   OH272841   0.648   4.477  14.987 -0.2005 -0.0861  0.9098
17117TIP3    H172842   0.567   4.428  14.971  1.2313 -1.6444 -2.8494
17117TIP3    H272843   0.701   4.418  15.040  0.2152 -1.1838 -0.6819
17118TIP3   OH272844   4.246   1.954  15.904  0.0977 -0.3132  0.2333
17118TIP3    H172845   4.186   1.927  15.835  1.8442  0.3893 -1.6482
17118TIP3    H272846   4.289   1.874  15.932  0.7664 -0.3645 -0.8918
17119TIP3   OH272847   0.597   3.902  14.276 -0.1802  1.0126 -0.4232
17119TIP3    H172848   0.630   3.869  14.192 -2.5004 -0.5776 -0.7861
17119TIP3    H272849   0.650   3.857  14.342  0.3085  0.7235 -1.0008
17120TIP3   OH272850   3.764   6.762   2.342 -0.3747  0.2046 -0.0414
17120TIP3    H172851   3.798   6.818   2.412 -0.5995 -0.4246  0.5780
17120TIP3    H272852   3.795   6.674   2.365 -1.8586 -0.2827  0.1860
17121TIP3   OH272853   2.271   6.647   1.963 -0.2196 -0.1996 -0.1596
17121TIP3    H172854   2.343   6.584   1.961 -0.5173 -0.5616  0.2412
17121TIP3    H272855   2.253   6.667   1.872  0.3167 -0.1941 -0.2648
17122TIP3   OH272856   2.713   1.698   4.822  0.1239  0.1491  0.0427
17122TIP3    H172857   2.748   1.778   4.783 -0.0468  0.0093 -0.3934
17122TIP3    H272858   2.662   1.657   4.753 -0.2267 -0.0707  0.4233
17123TIP3   OH272859   4.310   6.450  16.180 -0.1963 -0.0194  0.2566
17123TIP3    H172860   4.324   6.532  16.133 -0.3476  0.0025  0.2486
17123TIP3    H272861   4.252   6.399  16.123 -0.4277  0.0307  0.4446
17124TIP3   OH272862   4.381   1.261  14.696 -0.3615 -0.0467 -0.3526
17124TIP3    H172863   4.329   1.228  14.769 -0.3124  1.1254  0.2449
17124TIP3    H272864   4.382   1.356  14.708  0.1088  0.1285 -1.5772
17125TIP3   OH272865   2.382   1.687  14.318  0.4184 -0.2527 -0.2877
17125TIP3    H172866   2.474   1.715  14.311  0.0846  1.7912  1.8878
17125TIP3    H272867   2.333   1.755  14.271 -0.0852 -0.1420  0.3805
17126TIP3   OH272868   3.250   3.569  10.547  0.1892  0.1201 -0.2707
17126TIP3    H172869   3.191   3.494  10.553  1.5853 -1.0517 -0.7795
17126TIP3    H272870   3.309   3.548  10.475  1.9197  0.7600  0.9027
17127TIP3   OH272871   6.168   5.132  11.744 -0.2006  0.2200 -0.3188
17127TIP3    H172872   6.242   5.072  11.736  0.3714  0.7663  0.5869
17127TIP3    H272873   6.193   5.207  11.691 -0.2105  0.2956 -0.2188
17128TIP3   OH272874   0.049   3.613   5.444  0.5766  0.2243  0.2857
17128TIP3    H172875   0.064   3.621   5.350 -0.9530 -1.1741 -0.1362
17128TIP3    H272876   0.046   3.703   5.476 -0.1083  0.7827 -1.2451
17129TIP3   OH272877   4.894   1.230   4.995  0.0098  0.5232 -0.0891
17129TIP3    H172878   4.826   1.189   4.941  0.2496  0.4980 -0.3762
17129TIP3    H272879   4.965   1.248   4.933  0.2907  0.4864  0.2217
17130TIP3   OH272880   5.736   4.217  12.266  0.6301  0.8232  1.0711
17130TIP3    H172881   5.774   4.271  12.197 -0.2701 -0.5307 -0.5480
17130TIP3    H272882   5.652   4.258  12.286 -1.3782 -1.2898 -2.1213
17131TIP3   OH272883   0.903   4.968  16.600 -0.3743  0.2122  0.6742
17131TIP3    H172884   0.825   5.018  16.576  0.2547  0.9081  0.0290
17131TIP3    H272885   0.975   5.030  16.592  0.4835 -0.8834 -0.5687
17132TIP3   OH272886   5.981   1.890   1.414  0.1384  0.5718 -0.6458
17132TIP3    H172887   6.045   1.952   1.449  0.5271 -0.4842  0.5873
17132TIP3    H272888   5.897   1.921   1.447  0.0336  1.6178 -1.7819
17133TIP3   OH272889   4.476   1.632   3.846  0.8909 -0.0189 -0.2643
17133TIP3    H172890   4.411   1.700   3.827  0.1585 -0.6887 -0.1904
17133TIP3    H272891   4.456   1.562   3.784  1.4291 -0.3134 -0.1113
17134TIP3   OH272892   3.800   2.350   1.583 -0.0039 -0.0549  0.1816
17134TIP3    H172893   3.893   2.369   1.568  0.1873 -0.6177  0.6186
17134TIP3    H272894   3.761   2.435   1.602  0.1532  0.3925 -1.3010
17135TIP3   OH272895   0.883   2.661   2.616 -0.3789 -0.4465  0.3791
17135TIP3    H172896   0.845   2.573   2.618 -0.6504 -0.3214  1.4850
17135TIP3    H272897   0.815   2.718   2.651 -0.7533  0.4599 -1.6633
17136TIP3   OH272898   4.146   2.950   3.817 -0.2922 -0.3554  0.0923
17136TIP3    H172899   4.056   2.943   3.851 -0.4447 -0.5245 -0.3421
17136TIP3    H272900   4.136   2.957   3.723  0.1015  0.8957  0.1243
17137TIP3   OH272901   0.406   4.909  12.317  0.5016 -0.4433 -0.4033
17137TIP3    H172902   0.408   4.873  12.406 -1.2261  0.9496  0.2576
17137TIP3    H272903   0.475   4.975  12.317 -0.9982  1.2011  0.7146
17138TIP3   OH272904   4.863   1.689  10.876 -0.4711  0.0428  0.9618
17138TIP3    H172905   4.955   1.710  10.892  0.2173 -1.9421 -0.1465
17138TIP3    H272906   4.819   1.774  10.883  1.6183  1.2889  0.1960
17139TIP3   OH272907   4.896   6.496   3.713 -0.2307 -0.3207  0.2557
17139TIP3    H172908   4.886   6.565   3.779 -1.0833 -0.4214  0.2481
17139TIP3    H272909   4.886   6.414   3.761 -0.8774 -0.3945  0.0079
17140TIP3   OH272910   5.030   2.650  15.638 -0.0114  0.3551  0.2839
17140TIP3    H172911   5.060   2.637  15.548 -1.4101  0.5695 -0.2527
17140TIP3    H272912   5.071   2.579  15.688 -0.0040 -0.3724 -0.7189
17141TIP3   OH272913   0.675   2.647  15.246 -0.2298 -0.1385  0.0020
17141TIP3    H172914   0.699   2.568  15.293 -0.3965 -0.1769  0.0231
17141TIP3    H272915   0.582   2.660  15.266 -0.2742 -0.0959 -0.2277
17142TIP3   OH272916   6.538   3.490   5.696 -0.3580 -0.1488  0.6130
17142TIP3    H172917   6.544   3.444   5.612 -0.0297 -0.0205  0.5677
17142TIP3    H272918   6.523   3.581   5.672 -1.6791 -0.3234  0.7068
17143TIP3   OH272919   4.333   5.157  16.029  0.1849 -0.9543 -0.2693
17143TIP3    H172920   4.297   5.241  15.999  2.3201 -0.2765 -1.1615
17143TIP3    H272921   4.389   5.181  16.103 -0.1097 -1.7761  0.2258
17144TIP3   OH272922   0.244   5.317  14.114 -0.3477  0.2438 -0.1880
17144TIP3    H172923   0.161   5.298  14.159 -1.0482  0.2269 -1.4549
17144TIP3    H272924   0.223   5.313  14.021  0.7879  1.5081 -0.5318
17145TIP3   OH272925   6.803   5.130   1.465  0.0394 -0.2565  0.0103
17145TIP3    H172926   6.836   5.135   1.375 -0.3305 -0.0727 -0.1178
17145TIP3    H272927   6.720   5.083   1.458  0.6695 -1.4760  0.4475
17146TIP3   OH272928   3.481   4.829  10.606 -0.4352 -0.8330 -0.1789
17146TIP3    H172929   3.413   4.790  10.552 -1.0551 -0.5553  0.3862
17146TIP3    H272930   3.506   4.909  10.560 -0.6742 -0.8063 -0.2622
17147TIP3   OH272931   4.635   2.635   1.075 -0.3194  0.0247  0.1989
17147TIP3    H172932   4.594   2.645   0.989  0.8134 -3.5596 -0.9477
17147TIP3    H272933   4.727   2.659   1.061  0.0205 -1.2382  0.1927
17148TIP3   OH272934   2.326   5.835   5.318 -0.3332  0.6839 -0.2437
17148TIP3    H172935   2.284   5.768   5.264  0.0123  1.3495 -1.3774
17148TIP3    H272936   2.262   5.856   5.385 -0.0543 -1.5327  0.8151
17149TIP3   OH272937   0.004   5.356  16.846  0.3093  0.4092 -0.5964
17149TIP3    H172938   0.093   5.364  16.810  0.4942 -2.5544 -1.0422
17149TIP3    H272939   0.017   5.331  16.937 -0.1678  3.3876  0.3835
17150TIP3   OH272940   2.130   1.815  14.863 -0.1893  0.1021  0.1130
17150TIP3    H172941   2.135   1.805  14.768 -0.8220 -3.1850  0.3018
17150TIP3    H272942   2.220   1.835  14.889  0.2847 -0.3815 -1.0711
17151TIP3   OH272943   5.252   6.130   6.360  1.0520  0.0761  0.3984
17151TIP3    H172944   5.185   6.186   6.401  0.0740 -0.6657 -0.1405
17151TIP3    H272945   5.229   6.042   6.389  1.3018 -0.2769 -0.4712
17152TIP3   OH272946   3.947   2.368   3.851 -0.4247 -0.6636  0.2105
17152TIP3    H172947   3.868   2.316   3.837 -2.2103  2.1600 -1.0652
17152TIP3    H272948   3.967   2.404   3.765  1.6096 -0.3587  0.7595
17153TIP3   OH272949   0.801   6.795  10.957  0.0103 -0.1248 -0.7361
17153TIP3    H172950   0.727   6.807  11.017 -1.0275 -0.0522 -1.9819
17153TIP3    H272951   0.780   6.849  10.881  0.5120 -1.3958 -1.8327
17154TIP3   OH272952   4.637   1.624   5.022  0.7016  0.0420  0.1903
17154TIP3    H172953   4.723   1.588   5.043  0.9893  0.6571  0.1024
17154TIP3    H272954   4.596   1.643   5.106  1.3543  1.3533  0.2366
17155TIP3   OH272955   1.230   3.178   3.900 -0.7385  0.4440 -0.4183
17155TIP3    H172956   1.306   3.133   3.938 -0.7236 -0.4447 -1.4343
17155TIP3    H272957   1.158   3.160   3.960 -0.1249  1.4954  0.6847
17156TIP3   OH272958   4.533   6.291   2.732  0.1098  0.0554  0.3880
17156TIP3    H172959   4.472   6.259   2.798 -1.9667 -1.5596 -2.1649
17156TIP3    H272960   4.549   6.217   2.675  0.6518  1.7605 -1.8226
17157TIP3   OH272961   3.222   2.151  12.340 -0.2698 -0.9048 -1.2691
17157TIP3    H172962   3.236   2.235  12.296  0.2756 -0.3599 -0.0952
17157TIP3    H272963   3.309   2.111  12.344 -0.0580 -0.3391  0.4714
17158TIP3   OH272964   4.129   4.139   5.132  0.3971 -0.2319  0.2069
17158TIP3    H172965   4.151   4.176   5.046  0.6005  1.9607  1.1456
17158TIP3    H272966   4.041   4.103   5.121 -1.6064  4.0884  0.1329
17159TIP3   OH272967   2.262   0.538   2.067 -0.5399  0.2641 -0.5705
17159TIP3    H172968   2.294   0.469   2.008  1.1597  1.8612 -1.6327
17159TIP3    H272969   2.261   0.497   2.154  1.3152 -0.8584 -1.0264
17160TIP3   OH272970   0.725   1.106  13.353  0.1718 -0.0936  0.2737
17160TIP3    H172971   0.640   1.070  13.324  0.5344 -1.7204  1.0924
17160TIP3    H272972   0.712   1.126  13.445  0.7801 -0.7238  0.5037
17161TIP3   OH272973   3.164   2.507  14.091 -0.4052  0.2562  0.3274
17161TIP3    H172974   3.145   2.417  14.118 -0.3408  0.0202 -0.3900
17161TIP3    H272975   3.257   2.506  14.068 -0.7433  0.1306 -1.1069
17162TIP3   OH272976   1.565   4.070  12.343  0.0643  0.8477  0.3950
17162TIP3    H172977   1.564   4.045  12.250  0.3612  1.0139  0.3468
17162TIP3    H272978   1.657   4.087  12.363  0.0149  0.6990  0.7520
17163TIP3   OH272979   1.553   0.735   2.892 -0.0420  0.8241  0.5689
17163TIP3    H172980   1.545   0.697   2.979 -0.1404 -1.4531 -0.3620
17163TIP3    H272981   1.476   0.704   2.845  0.4249  1.3200 -0.5669
17164TIP3   OH272982   2.555   1.225   3.829  0.8317  0.4344  0.0508
17164TIP3    H172983   2.622   1.187   3.885  1.4410  1.1323 -0.1929
17164TIP3    H272984   2.544   1.163   3.757  0.8913  0.1050  0.3277
17165TIP3   OH272985   5.832   0.593  15.489 -0.4096  0.3077 -0.3406
17165TIP3    H172986   5.848   0.596  15.395 -0.3034 -1.1253 -0.3922
17165TIP3    H272987   5.916   0.571  15.527 -0.8929 -1.2950 -0.1192
17166TIP3   OH272988   0.217   0.944   6.554 -0.4149  0.6969 -0.4610
17166TIP3    H172989   0.253   0.995   6.481  1.1234 -1.0161 -0.9579
17166TIP3    H272990   0.175   0.869   6.513 -3.0193  1.6653  0.2456
17167TIP3   OH272991   3.629   5.379  14.017 -0.0667  0.2846  0.3129
17167TIP3    H172992   3.617   5.469  13.986 -1.8263  0.3206  1.0123
17167TIP3    H272993   3.644   5.388  14.111  0.3587 -0.1324  0.2896
17168TIP3   OH272994   5.946   4.795   3.081  0.0952  0.3125  0.2223
17168TIP3    H172995   5.903   4.871   3.043 -0.7137 -1.0254 -1.6934
17168TIP3    H272996   6.029   4.788   3.034  0.9135  0.8734  1.5026
17169TIP3   OH272997   5.994   5.889  16.635 -0.0475 -0.0946  0.4140
17169TIP3    H172998   6.053   5.817  16.616  0.1922  0.1425  0.2480
17169TIP3    H272999   6.050   5.967  16.636 -0.4306  0.1968 -0.2121
17170TIP3   OH273000   0.415   3.607  13.873 -0.3807 -0.3689  0.4686
17170TIP3    H173001   0.507   3.601  13.847 -0.5045 -0.7110  0.1055
17170TIP3    H273002   0.412   3.563  13.958 -0.1875 -0.2508  0.5383
17171TIP3   OH273003   0.224   5.052   3.570  0.6638  0.1891 -0.2958
17171TIP3    H173004   0.297   5.056   3.508  0.3115 -1.1686 -0.8313
17171TIP3    H273005   0.183   4.967   3.554 -0.0267  0.2149  1.1491
17172TIP3   OH273006   2.074   4.460   1.417  0.1830 -0.8719 -0.6967
17172TIP3    H173007   1.982   4.476   1.398 -0.0406 -0.8674  0.3117
17172TIP3    H273008   2.073   4.399   1.491  0.8536  2.1309  2.0678
17173TIP3   OH273009   1.493   4.827   1.057 -0.0663  0.5197 -0.5499
17173TIP3    H173010   1.432   4.790   1.121  1.3812  0.6634  0.9713
17173TIP3    H273011   1.481   4.773   0.979 -0.8604 -0.5850  0.3053
17174TIP3   OH273012   0.525   2.624  14.654 -0.3635 -0.4385 -0.4097
17174TIP3    H173013   0.512   2.710  14.614  1.3448  0.3081  0.5342
17174TIP3    H273014   0.586   2.579  14.595  1.5324  0.3655  0.8762
17175TIP3   OH273015   1.735   4.900  11.924 -0.0391  0.1534 -0.1463
17175TIP3    H173016   1.669   4.940  11.981 -0.2073 -0.2182 -0.0752
17175TIP3    H273017   1.739   4.958  11.849 -2.3332 -1.1208 -1.3736
17176TIP3   OH273018   6.496   0.116  11.517  0.1529  0.5165  0.1638
17176TIP3    H173019   6.401   0.121  11.531 -0.2144 -1.7867 -1.0402
17176TIP3    H273020   6.505   0.090  11.425  1.9606  0.5690  0.2892
17177TIP3   OH273021   2.194   5.872  12.340  0.4763  0.5143 -0.4440
17177TIP3    H173022   2.194   5.913  12.427 -0.3722 -0.9853  0.2932
17177TIP3    H273023   2.269   5.813  12.343 -0.9903 -1.3876  0.2145
17178TIP3   OH273024   6.736   3.515  15.306 -0.3255  0.1806 -0.4460
17178TIP3    H173025   6.781   3.583  15.355  0.3852 -0.5410 -0.0996
17178TIP3    H273026   6.719   3.556  15.220 -0.5429  1.0335 -0.0102
17179TIP3   OH273027   1.120   2.687  16.855 -0.2264 -0.4845  0.0932
17179TIP3    H173028   1.122   2.750  16.927 -0.8177 -0.3488 -0.0021
17179TIP3    H273029   1.027   2.667  16.843 -0.3978  1.1600 -2.0676
17180TIP3   OH273030   4.070   5.071   6.010 -0.1641  0.2865 -0.3964
17180TIP3    H173031   4.055   5.080   6.104 -0.2060 -0.8693 -0.2833
17180TIP3    H273032   4.031   4.987   5.987  0.0023  0.4725 -1.4176
17181TIP3   OH273033   0.281   2.231  16.145 -0.4810  0.1287  0.4076
17181TIP3    H173034   0.284   2.250  16.051 -1.2583  1.9017  0.6862
17181TIP3    H273035   0.372   2.220  16.171 -0.2102  0.3386 -0.4241
17182TIP3   OH273036   3.647   3.941   6.381 -0.1318  0.1087  0.4306
17182TIP3    H173037   3.597   3.981   6.452  0.4045 -0.9937  1.4744
17182TIP3    H273038   3.685   4.014   6.332 -1.3070  0.9042  0.6884
17183TIP3   OH273039   0.103   1.619  13.748 -0.0984 -0.0486 -0.1286
17183TIP3    H173040   0.032   1.683  13.754 -0.7926 -0.6912 -1.2710
17183TIP3    H273041   0.120   1.593  13.839 -1.2520  0.1684  0.1573
17184TIP3   OH273042   4.261   2.547   3.915 -0.0929  0.5860  0.0107
17184TIP3    H173043   4.330   2.502   3.865 -0.5751  0.6632 -0.7306
17184TIP3    H273044   4.179   2.517   3.876 -0.4688  0.9864  0.4752
17185TIP3   OH273045   1.027   2.162   0.519  0.2101 -0.1559  0.7186
17185TIP3    H173046   0.960   2.100   0.551  1.6151 -0.6256  2.9720
17185TIP3    H273047   0.986   2.203   0.442 -2.4422 -0.8010  1.6598
17186TIP3   OH273048   0.329   1.469   5.668  0.2068  0.2466 -0.4633
17186TIP3    H173049   0.421   1.494   5.659  0.5104 -0.1798  1.2599
17186TIP3    H273050   0.288   1.542   5.713  0.2068 -0.5284  0.8280
17187TIP3   OH273051   2.450   1.798   4.059 -0.0864  0.0155  0.0252
17187TIP3    H173052   2.405   1.733   4.114 -1.1124  0.3839 -0.3595
17187TIP3    H273053   2.535   1.811   4.103  0.8640 -2.7698 -0.7666
17188TIP3   OH273054   2.029   0.185  11.762  0.4169 -0.0943 -0.1170
17188TIP3    H173055   2.034   0.143  11.848 -0.4526  1.0581  0.5373
17188TIP3    H273056   2.116   0.223  11.749  0.5047 -0.1269  0.3496
17189TIP3   OH273057   4.891   1.097   5.619 -0.1873  0.2107  0.6492
17189TIP3    H173058   4.932   1.159   5.559  0.1713  0.1205  0.7995
17189TIP3    H273059   4.797   1.107   5.604 -0.1443  1.0093  0.8860
17190TIP3   OH273060   5.391   3.899  12.333 -0.3401 -0.0048 -0.4135
17190TIP3    H173061   5.457   3.855  12.386  1.4390  0.0049 -2.4928
17190TIP3    H273062   5.356   3.967  12.391  1.3043 -0.1458  0.8414
17191TIP3   OH273063   4.412   0.513   4.343 -0.1118 -0.1163 -0.3886
17191TIP3    H173064   4.442   0.423   4.332  0.9626  0.1450  0.2681
17191TIP3    H273065   4.421   0.552   4.256 -2.2472 -1.0964 -1.1047
17192TIP3   OH273066   1.501   1.273  11.726 -0.2021  0.6849 -0.2199
17192TIP3    H173067   1.478   1.332  11.655  1.2930 -0.7026 -1.9673
17192TIP3    H273068   1.596   1.282  11.735 -0.2323  0.0695  0.8783
17193TIP3   OH273069   6.764   0.860  17.232  0.4579  1.0827 -0.0852
17193TIP3    H173070   6.708   0.932  17.203  0.1520  1.0908  0.4888
17193TIP3    H273071   6.705   0.803  17.281  1.0016  1.2311  0.7735
17194TIP3   OH273072   1.889   0.066  11.224 -0.0796 -0.9635 -0.8241
17194TIP3    H173073   1.806   0.045  11.267  0.1156 -2.1474 -1.0087
17194TIP3    H273074   1.876   0.045  11.132  0.1684 -0.3603 -1.0067
17195TIP3   OH273075   2.815   5.795  16.999 -0.4187  0.3326 -0.5679
17195TIP3    H173076   2.838   5.793  16.907  1.7190 -1.0459 -0.0855
17195TIP3    H273077   2.740   5.736  17.006  0.3716 -0.8078 -1.2552
17196TIP3   OH273078   1.638   2.370   1.326 -0.1352 -0.6816  0.6464
17196TIP3    H173079   1.552   2.401   1.353  0.0198  1.5826 -1.1848
17196TIP3    H273080   1.624   2.330   1.240  0.6122 -0.3692  0.3653
17197TIP3   OH273081   0.962   2.334   0.307  0.4296  0.0260  0.0813
17197TIP3    H173082   0.882   2.341   0.256 -0.0456  1.9133  0.9859
17197TIP3    H273083   1.017   2.406   0.275  0.5335  0.5969  1.4793
17198TIP3   OH273084   0.461   4.015   6.404  0.0391  0.4384 -0.0501
17198TIP3    H173085   0.367   4.027   6.417 -0.2097 -2.6168  2.0925
17198TIP3    H273086   0.469   3.929   6.363  1.8970  0.3557  0.3688
17199TIP3   OH273087   6.396   4.108  10.896 -0.1089  0.1093  0.1396
17199TIP3    H173088   6.327   4.069  10.843 -0.2010  0.9858 -0.4122
17199TIP3    H273089   6.464   4.133  10.833 -0.5291  1.8267  0.2981
17200TIP3   OH273090   3.841   4.973   5.184 -0.5036 -0.4963  0.1958
17200TIP3    H173091   3.801   5.003   5.102  0.9157  3.6073  0.8046
17200TIP3    H273092   3.766   4.952   5.241 -1.5306 -1.4422 -1.4161
17201TIP3   OH273093   3.491   2.674   2.715  0.3044  0.0996 -0.1597
17201TIP3    H173094   3.455   2.588   2.694  0.3150 -0.1424  0.7641
17201TIP3    H273095   3.537   2.661   2.798 -1.1151  1.3739  0.8800
17202TIP3   OH273096   5.926   5.220   2.365 -0.5484 -0.2161  0.3757
17202TIP3    H173097   5.999   5.173   2.326 -1.6844 -1.4783 -0.3317
17202TIP3    H273098   5.960   5.308   2.383  0.3389  0.1526 -2.5774
17203TIP3   OH273099   5.376   0.437   5.270  0.2647  0.1222  0.2002
17203TIP3    H173100   5.359   0.375   5.199 -0.9728 -0.1473  0.7012
17203TIP3    H273101   5.354   0.390   5.350 -0.7785  1.1953  0.5896
17204TIP3   OH273102   6.664   3.702   1.564  0.2403  0.1499  0.2385
17204TIP3    H173103   6.671   3.749   1.481  0.6114  0.9661  0.7196
17204TIP3    H273104   6.706   3.617   1.547 -1.6312 -0.5810 -1.0335
17205TIP3   OH273105   4.158   5.472   3.342 -0.4190  0.0397  0.0800
17205TIP3    H173106   4.200   5.448   3.259 -0.3918 -2.4301  0.7286
17205TIP3    H273107   4.231   5.494   3.400 -0.1256 -1.6927  0.4327
17206TIP3   OH273108   4.506   5.275   3.330 -0.1560  0.2429 -0.0287
17206TIP3    H173109   4.581   5.235   3.372 -0.8774 -0.2300  0.8488
17206TIP3    H273110   4.499   5.231   3.246  0.5033  0.2462 -0.0896
17207TIP3   OH273111   6.760   0.986   2.390  0.2241 -0.0817  0.5018
17207TIP3    H173112   6.682   0.990   2.446 -0.1731  1.6699 -0.1249
17207TIP3    H273113   6.772   0.892   2.373 -2.2169 -0.3571 -0.0495
17208TIP3   OH273114   2.157   4.025  13.433 -0.2520  0.2403  0.1027
17208TIP3    H173115   2.224   3.956  13.430  0.2574  0.7640 -0.9193
17208TIP3    H273116   2.118   4.015  13.520  0.3966 -0.7825  0.3057
17209TIP3   OH273117   5.818   6.619  13.963  0.7493  0.6923 -0.7703
17209TIP3    H173118   5.860   6.650  13.883  1.8303  0.3118 -0.3580
17209TIP3    H273119   5.799   6.700  14.012 -1.5823  1.0798 -2.1717
17210TIP3   OH273120   5.624   3.935  11.118 -0.1374 -0.0038  0.4548
17210TIP3    H173121   5.687   3.937  11.046 -0.4888  0.1327  0.1480
17210TIP3    H273122   5.675   3.908  11.194  0.4745  0.9336  0.3932
17211TIP3   OH273123   5.892   6.658  14.610 -0.2706  0.4461 -0.3988
17211TIP3    H173124   5.957   6.605  14.564 -0.5645  0.2079 -0.5444
17211TIP3    H273125   5.937   6.688  14.688 -0.5931 -1.4295  0.5788
17212TIP3   OH273126   6.316   5.612   3.862 -0.1050  0.4580  0.0800
17212TIP3    H173127   6.322   5.561   3.943 -2.7198 -1.0493 -0.5484
17212TIP3    H273128   6.249   5.566   3.811 -0.8638  3.2104 -1.5602
17213TIP3   OH273129   1.285   3.030   1.213  0.1066  0.5265  0.5507
17213TIP3    H173130   1.339   2.969   1.163 -2.7597 -1.4788 -0.3679
17213TIP3    H273131   1.293   3.113   1.166 -0.0946 -0.5368 -1.4555
17214TIP3   OH273132   0.456   5.760   0.530 -0.7531  0.3473  0.2382
17214TIP3    H173133   0.432   5.757   0.623  0.3125  2.8641  0.6858
17214TIP3    H273134   0.408   5.688   0.491 -1.0968 -0.9280  2.7731
17215TIP3   OH273135   5.013   1.988   3.085 -0.2313  0.1968 -0.3159
17215TIP3    H173136   5.105   2.014   3.075  0.3257 -2.0958 -1.9627
17215TIP3    H273137   4.970   2.021   3.006 -0.5388  0.1235 -0.1787
17216TIP3   OH273138   5.512   3.896  15.047  0.5362 -0.0727 -0.9469
17216TIP3    H173139   5.586   3.885  15.106 -0.5092  0.5658  0.5306
17216TIP3    H273140   5.524   3.983  15.010  0.6340 -0.0637 -0.8954
17217TIP3   OH273141   6.311   1.337  15.256 -0.1737  1.0569 -0.0081
17217TIP3    H173142   6.216   1.350  15.247 -0.5776  1.0390  3.0841
17217TIP3    H273143   6.340   1.411  15.309  1.4759  0.7460 -0.4310
17218TIP3   OH273144   4.473   2.724  15.754 -0.6233  0.1512 -0.1357
17218TIP3    H173145   4.406   2.672  15.799  1.4317 -1.8011  0.8946
17218TIP3    H273146   4.474   2.807  15.801 -1.4926 -0.2471  0.6241
17219TIP3   OH273147   6.665   1.352  17.096 -0.2353 -0.0266  0.2296
17219TIP3    H173148   6.680   1.325  17.187  0.1901 -1.1500 -0.1598
17219TIP3    H273149   6.595   1.294  17.066  0.7539 -0.7868 -0.6532
17220TIP3   OH273150   4.466   6.498  11.850 -0.3133 -0.2808  0.0749
17220TIP3    H173151   4.555   6.483  11.880 -1.4788 -0.6008  3.8448
17220TIP3    H273152   4.452   6.432  11.782  2.1589 -0.3842 -0.4302
17221TIP3   OH273153   2.837   2.190  16.222 -0.5861  0.2457 -0.4675
17221TIP3    H173154   2.792   2.274  16.223  1.4017  1.3689  0.1860
17221TIP3    H273155   2.876   2.184  16.134 -1.1699 -0.2555 -0.6982
17222TIP3   OH273156   3.374   4.501  12.042  0.0126  0.1210  0.3277
17222TIP3    H173157   3.451   4.535  11.996  0.5122 -2.2585 -0.7327
17222TIP3    H273158   3.318   4.466  11.972  0.0832 -2.2205  1.3458
17223TIP3   OH273159   0.605   6.815   5.021 -0.2690  0.3162  0.0829
17223TIP3    H173160   0.592   6.822   5.115  0.3457  0.0685  0.1860
17223TIP3    H273161   0.677   6.753   5.010 -1.6301 -1.2242 -0.6174
17224TIP3   OH273162   2.008   6.633  11.532 -0.5928  0.2723 -0.2345
17224TIP3    H173163   1.940   6.565  11.533 -0.0776 -0.2438  0.2220
17224TIP3    H273164   1.959   6.715  11.540 -1.1542 -0.1080  0.3292
17225TIP3   OH273165   5.393   5.728   0.208 -0.0596  0.0598  0.2177
17225TIP3    H173166   5.329   5.754   0.143  0.3027 -2.6018 -1.3587
17225TIP3    H273167   5.348   5.663   0.262  0.4050  0.4108  1.0519
17226TIP3   OH273168   5.417   2.893  12.661  0.1545  0.0227  0.2516
17226TIP3    H173169   5.335   2.895  12.611  0.1208 -1.7642  0.1838
17226TIP3    H273170   5.449   2.804  12.651  1.2728  0.2344  1.6596
17227TIP3   OH273171   4.002   4.217  14.647  0.3470 -0.0223  0.0969
17227TIP3    H173172   4.021   4.225  14.740  0.6597 -1.0640  0.1406
17227TIP3    H273173   3.912   4.183  14.643  0.5118 -0.4654  0.0433
17228TIP3   OH273174   4.415   4.785  16.357  0.2927  0.3338  0.3152
17228TIP3    H173175   4.471   4.744  16.424 -0.2915  1.9863  1.8665
17228TIP3    H273176   4.369   4.855  16.403 -3.0886 -0.9108 -0.8860
17229TIP3   OH273177   0.134   0.904   1.345  0.5821  0.5534  0.3178
17229TIP3    H173178   0.066   0.940   1.401 -0.5460  1.3895 -1.5037
17229TIP3    H273179   0.177   0.981   1.306 -0.9680  0.0846 -2.5816
17230TIP3   OH273180   5.314   3.427   1.570  0.1774 -0.5201  0.5417
17230TIP3    H173181   5.359   3.342   1.571  0.0975 -0.6114 -0.8400
17230TIP3    H273182   5.228   3.407   1.533 -0.1138  0.0488  0.9112
17231TIP3   OH273183   2.512   5.938  14.067  0.2885 -0.5332  0.2665
17231TIP3    H173184   2.481   5.861  14.020 -0.8532  0.4356 -0.6124
17231TIP3    H273185   2.541   5.999  13.999  0.0076  0.3094  0.8770
17232TIP3   OH273186   3.084   3.075  15.865  0.3792  0.3757  0.1337
17232TIP3    H173187   3.043   3.002  15.819  0.0627  1.1859 -0.9207
17232TIP3    H273188   3.018   3.144  15.865  1.6278  1.6788 -1.5186
17233TIP3   OH273189   1.645   4.070  15.533  0.3980 -0.5431  0.2638
17233TIP3    H173190   1.659   4.020  15.452 -0.7565  0.9724 -0.9045
17233TIP3    H273191   1.558   4.044  15.562 -0.6311  1.4493 -0.8911
17234TIP3   OH273192   5.021   4.916   5.351  0.0360 -0.1076 -0.4122
17234TIP3    H173193   5.071   4.984   5.306  0.4174  0.4584  0.8307
17234TIP3    H273194   5.015   4.845   5.288  1.0146  0.4502 -1.1579
17235TIP3   OH273195   5.171   4.124  17.223  0.4358 -0.0969  0.0885
17235TIP3    H173196   5.188   4.099  17.313 -0.7535  1.7450  0.8836
17235TIP3    H273197   5.123   4.049  17.186  0.1475 -0.5056  1.2461
17236TIP3   OH273198   6.490   0.877   1.491 -0.0849 -0.1941 -0.0393
17236TIP3    H173199   6.477   0.789   1.527  0.5056 -0.6313 -0.8467
17236TIP3    H273200   6.422   0.930   1.531 -0.9658 -1.2114 -0.1530
17237TIP3   OH273201   0.290   3.440   2.888  0.5686 -0.8903 -0.4931
17237TIP3    H173202   0.271   3.347   2.872  0.4954 -0.7222 -1.4408
17237TIP3    H273203   0.304   3.477   2.800  1.1259 -0.1175 -0.0869
17238TIP3   OH273204   5.378   3.902  11.025  0.1332 -0.1358  0.2411
17238TIP3    H173205   5.468   3.905  11.059  0.3337  1.3016 -0.3409
17238TIP3    H273206   5.388   3.891  10.931 -0.2759  0.4107  0.1262
17239TIP3   OH273207   2.059   1.924   2.038  0.1399 -0.2266 -0.6665
17239TIP3    H173208   2.053   1.991   1.971 -0.5960  0.4397  0.0381
17239TIP3    H273209   2.084   1.972   2.118 -1.2879 -0.6210  0.0518
17240TIP3   OH273210   4.654   1.767   0.614 -0.3137 -0.2404  0.5547
17240TIP3    H173211   4.673   1.812   0.696 -0.4686 -1.2144  1.1450
17240TIP3    H273212   4.728   1.787   0.557 -0.3757  0.7353  0.7961
17241TIP3   OH273213   6.360   3.298  12.604  0.5073  0.2262  0.1582
17241TIP3    H173214   6.430   3.322  12.544  1.7426  0.4270  1.6135
17241TIP3    H273215   6.378   3.208  12.629 -0.4969 -0.1519 -0.4109
17242TIP3   OH273216   0.650   4.658  12.029 -0.1670  0.1431  0.6784
17242TIP3    H173217   0.671   4.567  12.009  0.4574  0.5242 -0.5670
17242TIP3    H273218   0.658   4.703  11.944 -3.7309  0.7995  0.5624
17243TIP3   OH273219   3.320   0.398   4.410  0.1365 -0.4149 -0.4268
17243TIP3    H173220   3.231   0.432   4.399  0.1219 -0.2745  0.0931
17243TIP3    H273221   3.316   0.346   4.490 -0.1718 -2.8149 -1.9064
17244TIP3   OH273222   4.215   2.306   3.678 -0.9096  0.3750  0.4830
17244TIP3    H173223   4.137   2.338   3.634  0.4136  1.1312 -1.4962
17244TIP3    H273224   4.247   2.236   3.621  1.3808  2.0145 -0.4182
17245TIP3   OH273225   4.116   2.623  16.005 -0.4298 -0.8937 -0.0803
17245TIP3    H173226   4.095   2.683  16.076  0.7579  0.2775 -0.6724
17245TIP3    H273227   4.032   2.585  15.980 -1.1068 -0.0095  0.7869
17246TIP3   OH273228   5.281   4.871  15.379 -0.5732  0.0082 -0.0410
17246TIP3    H173229   5.223   4.796  15.389 -1.2554  0.6988  1.5847
17246TIP3    H273230   5.222   4.947  15.376  0.1974  0.6536  0.6487
17247TIP3   OH273231   2.090   5.896   3.838 -0.2983  0.4523 -0.3067
17247TIP3    H173232   2.129   5.889   3.925 -0.9312 -0.9624 -0.1047
17247TIP3    H273233   2.086   5.990   3.820  3.3695  0.7118 -0.4339
17248TIP3   OH273234   6.378   2.956   5.232  0.3440 -0.3157  0.5658
17248TIP3    H173235   6.388   2.943   5.137  0.5336  2.4125  0.1253
17248TIP3    H273236   6.346   2.872   5.264 -0.9717 -0.9505 -2.1116
17249TIP3   OH273237   0.868   4.435   6.182  0.5796 -0.1237 -0.0923
17249TIP3    H173238   0.858   4.520   6.225  2.3672 -0.2499  0.6756
17249TIP3    H273239   0.907   4.379   6.249  0.8090 -1.1301 -1.0422
17250TIP3   OH273240   1.592   0.615  11.528 -0.7249  0.0139 -0.3982
17250TIP3    H173241   1.667   0.616  11.468  0.0935 -0.4847  0.5917
17250TIP3    H273242   1.572   0.707  11.542  0.2668  0.1758  0.0093
17251TIP3   OH273243   3.999   1.845   2.734  0.2354 -0.0414  0.1203
17251TIP3    H173244   4.000   1.882   2.646  0.5232  1.8411  0.8568
17251TIP3    H273245   4.090   1.826   2.753  0.2444  0.0902  0.2125
17252TIP3   OH273246   0.446   2.760  12.426 -0.0336  0.2579  0.0415
17252TIP3    H173247   0.504   2.836  12.420 -0.3206  0.5245  0.6232
17252TIP3    H273248   0.370   2.791  12.474 -0.8219  0.0054 -0.9879
17253TIP3   OH273249   1.719   2.490  15.909  0.0799 -0.2844  0.0607
17253TIP3    H173250   1.700   2.527  15.995  1.2693  0.4785  0.0173
17253TIP3    H273251   1.644   2.516  15.855  0.5607  1.5502  0.2079
17254TIP3   OH273252   1.326   5.896   0.227 -0.1516 -0.0440  0.6416
17254TIP3    H173253   1.349   5.945   0.148  0.1007  0.8622  1.2503
17254TIP3    H273254   1.230   5.896   0.228 -0.1845  1.7226  1.3542
17255TIP3   OH273255   4.590   4.735  13.144 -0.0842  0.6765  0.4267
17255TIP3    H173256   4.516   4.685  13.176 -0.5674 -0.7981 -2.6213
17255TIP3    H273257   4.666   4.695  13.186 -0.7594  0.0015  1.0364
17256TIP3   OH273258   1.088   0.885  14.390 -0.0647  0.1748  0.1236
17256TIP3    H173259   1.103   0.966  14.439  1.0059  0.9349 -1.3522
17256TIP3    H273260   1.127   0.902  14.304 -0.3093 -1.7214 -0.4100
17257TIP3   OH273261   6.408   0.639   1.603 -0.2843 -0.3611  0.0675
17257TIP3    H173262   6.355   0.612   1.528 -0.8638  1.0232 -0.0504
17257TIP3    H273263   6.408   0.564   1.661  0.6940 -1.7235 -1.5761
17258TIP3   OH273264   0.003   2.875   2.194  0.1234  0.8243  0.3019
17258TIP3    H173265   0.093   2.855   2.220 -0.7020 -0.4750  2.4670
17258TIP3    H273266  -0.048   2.800   2.225 -1.7234  1.4825 -0.9340
17259TIP3   OH273267   2.901   1.756  16.076  0.0766 -0.4469 -0.7545
17259TIP3    H173268   2.863   1.716  16.154  0.6185 -0.1700 -0.3404
17259TIP3    H273269   2.841   1.826  16.052  1.8148  2.1435  1.7863
17260TIP3   OH273270   6.820   0.322   0.126 -0.6142  0.6224 -0.4667
17260TIP3    H173271   6.788   0.235   0.102 -0.6585  0.2142  0.9674
17260TIP3    H273272   6.894   0.338   0.068  1.7044 -1.9183  1.4953
17261TIP3   OH273273   6.226   6.140   5.598 -0.8305  0.2106  0.2980
17261TIP3    H173274   6.196   6.129   5.688 -1.1911 -1.1318  0.0290
17261TIP3    H273275   6.290   6.070   5.585 -1.9758 -0.6671 -0.9772
17262TIP3   OH273276   1.515   1.257  12.229 -0.5363  0.1888 -0.0702
17262TIP3    H173277   1.531   1.247  12.135  0.8617  0.5472  0.1217
17262TIP3    H273278   1.432   1.211  12.243  0.2785 -1.7011 -1.1136
17263TIP3   OH273279   5.912   5.044   5.999 -0.5014  0.4443  0.2062
17263TIP3    H173280   5.954   5.060   6.083  0.6100 -1.4985  0.0789
17263TIP3    H273281   5.984   5.035   5.937 -1.1819 -0.4654 -0.4936
17264TIP3   OH273282   0.983   6.472   6.102 -0.1094  0.3448  0.5684
17264TIP3    H173283   0.979   6.415   6.179 -0.6299  0.2858  0.5043
17264TIP3    H273284   1.075   6.474   6.078 -0.2013 -1.2547 -0.0084
17265TIP3   OH273285   2.578   2.396  15.869  0.0550 -0.1281 -0.5944
17265TIP3    H173286   2.486   2.398  15.841 -0.6881 -1.3679  1.5599
17265TIP3    H273287   2.603   2.488  15.873 -1.8071  0.3789  0.8567
17266TIP3   OH273288   3.904   4.756  11.669 -0.7011  0.6741  0.0644
17266TIP3    H173289   3.918   4.663  11.653  1.6183  1.0330 -0.3457
17266TIP3    H273290   3.900   4.795  11.581  3.4646  1.5337  0.0605
17267TIP3   OH273291   3.119   0.514   3.023 -0.4855  0.3840 -0.3955
17267TIP3    H173292   3.032   0.492   3.055 -1.5825  1.3580 -2.4757
17267TIP3    H273293   3.138   0.599   3.062 -0.6556  0.3567 -0.2515
17268TIP3   OH273294   6.550   0.324  12.961 -0.6258  0.2270 -0.0360
17268TIP3    H173295   6.623   0.364  12.914  1.0688 -0.6280  1.7217
17268TIP3    H273296   6.518   0.256  12.902 -1.2772  1.7921 -1.5904
17269TIP3   OH273297   5.009   6.083   5.792  0.3073 -0.0381  0.2488
17269TIP3    H173298   5.063   6.155   5.825 -1.2173  1.7478 -0.8909
17269TIP3    H273299   5.055   6.052   5.714  0.3735  0.5529  0.0487
17270TIP3   OH273300   2.124   1.918   6.075 -0.4413 -0.5965 -0.3579
17270TIP3    H173301   2.135   1.839   6.023  0.9361 -1.0450  0.5596
17270TIP3    H273302   2.146   1.892   6.164  0.9283  1.0175 -0.1788
17271TIP3   OH273303   3.522   2.839  11.660 -0.7161  0.3322  0.4302
17271TIP3    H173304   3.536   2.900  11.588 -0.0417 -0.4373 -0.1149
17271TIP3    H273305   3.607   2.835  11.705 -0.1649 -1.5370 -0.6371
17272TIP3   OH273306   0.217   0.134   2.051 -0.2538 -0.0743 -0.3548
17272TIP3    H173307   0.213   0.042   2.024 -1.1969 -0.1684  0.0701
17272TIP3    H273308   0.282   0.136   2.121 -0.3508 -0.4472 -0.2535
17273TIP3   OH273309   5.428   5.258  15.598 -0.1611 -0.7212  0.4510
17273TIP3    H173310   5.340   5.274  15.633 -1.5151 -1.8267 -2.1271
17273TIP3    H273311   5.436   5.162  15.599  1.4281 -0.6054  1.4862
17274TIP3   OH273312   6.799   6.666   4.774  0.2542 -0.0571  0.2125
17274TIP3    H173313   6.767   6.752   4.745 -2.1899 -0.6492  0.9682
17274TIP3    H273314   6.772   6.660   4.865  3.8323 -0.1122  1.4524
17275TIP3   OH273315   1.433   3.757  16.383  0.4228  0.2796 -0.1316
17275TIP3    H173316   1.352   3.790  16.421 -0.4924  0.4908 -2.1973
17275TIP3    H273317   1.502   3.803  16.432 -0.7333  1.7692  0.1485
17276TIP3   OH273318   0.972   3.154   0.334 -0.3078 -0.0493  0.4840
17276TIP3    H173319   0.890   3.160   0.383 -1.3986 -2.0779 -0.9111
17276TIP3    H273320   0.945   3.128   0.246  1.8904 -2.5169  0.4106
17277TIP3   OH273321   5.032   4.206  16.953 -0.2883 -0.5017 -0.4859
17277TIP3    H173322   5.066   4.234  17.038 -1.1482  2.2635 -0.9648
17277TIP3    H273323   5.110   4.190  16.900  0.3460  2.1158 -0.4603
17278TIP3   OH273324   0.131   2.421   4.297 -0.0540  0.4654  0.0702
17278TIP3    H173325   0.187   2.361   4.345  0.4737  0.8698 -0.0302
17278TIP3    H273326   0.187   2.496   4.277 -0.7785  1.1223  0.4469
17279TIP3   OH273327   3.683   1.243   1.811 -0.0267  0.2279  0.2015
17279TIP3    H173328   3.749   1.182   1.778 -0.2429  0.1083 -0.0230
17279TIP3    H273329   3.626   1.259   1.736 -0.2441  0.3382  0.3876
17280TIP3   OH273330   4.716   0.740  12.414  0.4920  0.9391 -1.2153
17280TIP3    H173331   4.743   0.787  12.493  0.2166 -2.0695  0.8145
17280TIP3    H273332   4.620   0.750  12.412  0.3483 -0.1087 -0.3369
17281TIP3   OH273333   5.820   5.507  12.719  0.3222  0.3960 -0.0569
17281TIP3    H173334   5.862   5.439  12.665 -0.1139  0.1839 -0.1307
17281TIP3    H273335   5.881   5.520  12.792 -0.6116 -1.6943  1.1921
17282TIP3   OH273336   2.275   5.773   5.747  0.0433 -0.3531 -0.1421
17282TIP3    H173337   2.220   5.788   5.824 -0.5448  0.2396 -0.6674
17282TIP3    H273338   2.334   5.848   5.745 -0.8840  0.3797 -1.0562
17283TIP3   OH273339   3.277   5.159  13.473 -0.5892 -0.3574  0.0559
17283TIP3    H173340   3.365   5.127  13.493 -0.5137  0.1817  0.6356
17283TIP3    H273341   3.269   5.150  13.378  0.6791  0.9948 -0.2189
17284TIP3   OH273342   4.848   1.354  16.038 -0.3461 -0.0104  0.0045
17284TIP3    H173343   4.854   1.371  16.132 -3.8742  1.0506  0.1740
17284TIP3    H273344   4.852   1.259  16.030  2.5109 -0.0501  0.8754
17285TIP3   OH273345   2.570   1.126   2.794 -0.4910 -0.2064 -0.5317
17285TIP3    H173346   2.642   1.106   2.854 -1.3151 -0.9176  0.2668
17285TIP3    H273347   2.538   1.212   2.822  0.4369  0.4076 -1.3046
17286TIP3   OH273348   3.543   0.109  16.242 -0.2973 -0.8334  0.5646
17286TIP3    H173349   3.605   0.176  16.213  0.3444 -0.9371  1.6405
17286TIP3    H273350   3.541   0.046  16.170 -1.9493  0.9578 -1.1011
17287TIP3   OH273351   2.801   3.903  11.333 -0.0305  0.1153 -0.6960
17287TIP3    H173352   2.882   3.862  11.364 -0.0883 -0.4929 -1.3013
17287TIP3    H273353   2.743   3.828  11.313 -0.5567  0.5293 -0.7405
17288TIP3   OH273354   3.054   3.996   5.768  0.0231  0.3670 -0.0579
17288TIP3    H173355   2.986   3.932   5.791  1.2645 -0.4328  1.5557
17288TIP3    H273356   3.133   3.944   5.758  0.4221  1.2870 -1.9681
17289TIP3   OH273357   2.515   6.712   5.395  0.4922  0.1282 -0.1870
17289TIP3    H173358   2.555   6.634   5.355  0.6565  0.1838 -0.1314
17289TIP3    H273359   2.469   6.678   5.472  1.0686  0.1618  0.1843
17290TIP3   OH273360   2.256   4.457  11.216 -0.4278  0.4950 -0.0181
17290TIP3    H173361   2.227   4.436  11.127 -0.7253 -0.6683  0.3387
17290TIP3    H273362   2.175   4.463  11.266 -0.2748  1.3788  0.1450
17291TIP3   OH273363   2.141   2.189   5.432  0.1438  0.0198 -0.2694
17291TIP3    H173364   2.224   2.225   5.464  0.2897  0.2052 -0.8464
17291TIP3    H273365   2.100   2.262   5.385 -0.3785 -0.0513  0.0722
17292TIP3   OH273366   0.559   5.918   5.683  0.2901  0.0323 -0.1921
17292TIP3    H173367   0.565   5.900   5.589  0.5717  0.1842 -0.2021
17292TIP3    H273368   0.646   5.901   5.717 -0.3249 -2.2196  0.4346
17293TIP3   OH273369   2.794   2.858  16.702  0.2853 -0.5321 -0.3474
17293TIP3    H173370   2.879   2.896  16.723 -0.1028  0.5358 -0.6722
17293TIP3    H273371   2.738   2.882  16.776  0.0725 -0.6102 -0.4800
17294TIP3   OH273372   1.236   5.220   0.247 -0.5028 -0.2229 -0.1160
17294TIP3    H173373   1.301   5.240   0.315 -0.4226  1.4500 -0.6210
17294TIP3    H273374   1.221   5.126   0.255  0.5682 -0.3212  1.2641
17295TIP3   OH273375   2.164   6.170  12.153 -0.3983 -0.5579 -0.0821
17295TIP3    H173376   2.225   6.114  12.199 -1.0474 -2.1624 -1.0733
17295TIP3    H273377   2.124   6.113  12.087 -2.0880  0.7221 -0.2455
17296TIP3   OH273378   3.054   0.743   1.243  0.1243 -0.3196  0.3157
17296TIP3    H173379   2.978   0.800   1.248  0.5847  0.2621  0.9871
17296TIP3    H273380   3.019   0.654   1.249 -0.6138 -0.1332 -0.8989
17297TIP3   OH273381   5.741   3.815  15.760 -0.2285 -0.2028  0.0436
17297TIP3    H173382   5.667   3.780  15.711 -0.4287  0.6433 -0.2848
17297TIP3    H273383   5.742   3.908  15.737  1.2746 -0.3095 -0.3829
17298TIP3   OH273384   1.204   5.426  12.137  0.3943  0.0368 -0.2569
17298TIP3    H173385   1.170   5.503  12.093 -0.2030 -0.7075 -1.1364
17298TIP3    H273386   1.285   5.404  12.090  0.7508  0.3087  0.2099
17299TIP3   OH273387   0.451   3.711   2.734  0.1122 -0.0204 -0.0998
17299TIP3    H173388   0.431   3.630   2.687  1.1201 -0.2377 -0.1656
17299TIP3    H273389   0.494   3.682   2.814 -1.9685  0.3115  1.2343
17300TIP3   OH273390   4.287   6.522   2.800 -0.1209  0.5502 -0.1567
17300TIP3    H173391   4.213   6.504   2.742  1.1435  0.6238 -1.8940
17300TIP3    H273392   4.362   6.529   2.740  0.7802  3.7446  1.1426
17301TIP3   OH273393   3.832   6.075  15.544  0.2474 -0.6125 -0.1682
17301TIP3    H173394   3.795   6.103  15.460  0.9399  1.2674  0.0917
17301TIP3    H273395   3.909   6.023  15.521  0.7347  0.3290 -0.7190
17302TIP3   OH273396   1.332   6.356   1.251 -0.4856  0.8332  0.6578
17302TIP3    H173397   1.418   6.320   1.230  0.0812  1.7871  1.2997
17302TIP3    H273398   1.306   6.313   1.333 -2.8492 -3.1479 -1.7960
17303TIP3   OH273399   2.681   6.367  16.789 -0.1965 -0.3415  0.2512
17303TIP3    H173400   2.769   6.392  16.760 -0.4031 -0.4233 -0.4627
17303TIP3    H273401   2.642   6.449  16.820  0.6508 -0.5557  2.0122
17304TIP3   OH273402   4.821   5.986   2.280 -0.0485 -0.1746 -0.6168
17304TIP3    H173403   4.734   5.963   2.315  0.3612 -0.1134  0.4868
17304TIP3    H273404   4.860   5.903   2.257  1.9230 -1.0586  4.5159
17305TIP3   OH273405   3.688   2.897  12.700  0.3221  0.4124  0.4986
17305TIP3    H173406   3.763   2.894  12.760 -0.1764  0.8511  1.1536
17305TIP3    H273407   3.715   2.959  12.632  0.6812  0.3252  0.5592
17306TIP3   OH273408   0.107   4.516   2.292 -0.0993  0.0943  0.6604
17306TIP3    H173409   0.146   4.470   2.366 -0.1924 -2.3324 -0.6670
17306TIP3    H273410   0.161   4.490   2.217 -0.7825  1.4067 -0.3273
17307TIP3   OH273411   1.557   5.640   2.981  0.3956  0.0210  0.0926
17307TIP3    H173412   1.512   5.639   2.896  0.6948  0.2033 -0.0680
17307TIP3    H273413   1.637   5.689   2.966  0.2989  0.3304  0.5613
17308TIP3   OH273414   0.113   5.766  13.317 -0.1755  0.1828  0.0135
17308TIP3    H173415   0.092   5.753  13.409  0.0249 -1.9802 -0.2018
17308TIP3    H273416   0.207   5.787  13.317 -0.2988  0.7639  0.3168
17309TIP3   OH273417   0.411   2.849  10.384 -0.2042  0.2005 -0.4932
17309TIP3    H173418   0.346   2.907  10.424  0.3780  0.4809  0.0647
17309TIP3    H273419   0.487   2.855  10.442 -0.2362 -1.3609 -0.2333
17310TIP3   OH273420   1.847   5.084   4.719  0.2752 -0.0943 -0.1178
17310TIP3    H173421   1.934   5.047   4.704 -0.0351 -1.0465  0.3491
17310TIP3    H273422   1.847   5.109   4.812 -0.4495 -1.5380  0.3011
17311TIP3   OH273423   3.753   2.347  13.568  0.0238  0.3023  0.6415
17311TIP3    H173424   3.846   2.353  13.545  0.3919  1.9435  2.3220
17311TIP3    H273425   3.708   2.347  13.483  1.5551 -1.4363 -0.2349
17312TIP3   OH273426   5.374   2.096  15.091  0.7849  0.0626  0.0618
17312TIP3    H173427   5.285   2.092  15.126  1.4799 -0.9962  1.8895
17312TIP3    H273428   5.397   2.189  15.095 -0.2533  0.3599 -0.5142
17313TIP3   OH273429   3.541   3.375  14.661  0.3692 -0.2347 -0.2689
17313TIP3    H173430   3.539   3.314  14.587 -1.4048 -1.2514  0.5676
17313TIP3    H273431   3.480   3.445  14.637 -0.7852 -0.9433  0.4949
17314TIP3   OH273432   2.143   6.793  14.248  0.1370  0.1096 -0.0416
17314TIP3    H173433   2.084   6.728  14.209 -1.1574  0.5332  1.1148
17314TIP3    H273434   2.205   6.815  14.179 -1.3558 -0.0064 -1.4658
17315TIP3   OH273435   4.162   0.884  11.931 -0.3758  0.2684 -0.1064
17315TIP3    H173436   4.094   0.950  11.943 -0.5142  0.2646 -0.8264
17315TIP3    H273437   4.221   0.922  11.865 -0.3472 -0.2331 -0.3739
17316TIP3   OH273438   0.089   2.338   3.723 -1.0082  0.1412  0.5363
17316TIP3    H173439   0.131   2.398   3.661  1.2709 -1.0455  0.8572
17316TIP3    H273440   0.053   2.394   3.791 -1.1160  1.2710 -0.4177
17317TIP3   OH273441   0.312   0.878   2.523  0.4324 -0.4136 -0.3555
17317TIP3    H173442   0.346   0.860   2.611 -0.7897  0.3775  0.2942
17317TIP3    H273443   0.222   0.846   2.524  0.6705 -1.2164 -1.6232
17318TIP3   OH273444   3.013   1.917   6.413  0.4259  0.1681  0.3899
17318TIP3    H173445   3.040   1.981   6.479 -0.0229  0.8100 -0.0369
17318TIP3    H273446   3.082   1.850   6.414  0.1370 -0.1339  1.9006
17319TIP3   OH273447   5.936   2.751   6.151 -0.0646 -0.0554  0.3952
17319TIP3    H173448   6.003   2.713   6.207 -0.1477  1.4844  1.5983
17319TIP3    H273449   5.974   2.833   6.121 -1.4620  0.9276  1.2461
17320TIP3   OH273450   2.501   0.114   0.746 -0.1374 -0.2151  0.1973
17320TIP3    H173451   2.486   0.098   0.653 -0.0976 -0.2960  0.2047
17320TIP3    H273452   2.517   0.027   0.783  0.4360 -0.1245  0.1756
17321TIP3   OH273453   0.609   2.277  13.807  0.3986  0.3106 -0.7644
17321TIP3    H173454   0.535   2.264  13.747  0.8289 -2.3556 -0.8291
17321TIP3    H273455   0.676   2.216  13.776  1.2524  0.0426  1.4536
17322TIP3   OH273456   4.092   0.224   3.303  0.2624 -0.1020 -0.0540
17322TIP3    H173457   4.039   0.221   3.223 -1.3479 -0.5311  0.9825
17322TIP3    H273458   4.107   0.132   3.326  0.7665  0.0172  0.1215
17323TIP3   OH273459   6.083   4.448   1.587  0.5815 -0.2274  0.1945
17323TIP3    H173460   6.089   4.411   1.675  3.0011 -0.9908 -0.2181
17323TIP3    H273461   5.998   4.419   1.555 -0.9076  1.0841  2.6667
17324TIP3   OH273462   4.804   0.067   2.610 -0.3922 -0.2186 -0.0938
17324TIP3    H173463   4.731   0.110   2.654  0.2909  0.7655  0.1054
17324TIP3    H273464   4.762   0.008   2.548 -1.3618  0.4090 -0.0667
17325TIP3   OH273465   1.694   5.943   4.232 -0.5427 -0.6410  0.4501
17325TIP3    H173466   1.711   5.848   4.234  0.8181 -0.4247 -0.1091
17325TIP3    H273467   1.728   5.972   4.147 -1.8879  0.1928  0.1742
17326TIP3   OH273468   1.456   6.192   2.461 -0.1238  0.0378 -0.5795
17326TIP3    H173469   1.501   6.270   2.427  0.4272  0.2992  0.6965
17326TIP3    H273470   1.369   6.196   2.421 -0.2321  1.5104 -0.2874
17327TIP3   OH273471   6.088   6.023   4.362 -0.0410  0.6065  0.0801
17327TIP3    H173472   6.113   6.011   4.454 -2.5512 -3.5493  0.4550
17327TIP3    H273473   6.034   6.102   4.362  1.8567  2.0257  1.5986
17328TIP3   OH273474   5.468   3.926  10.764 -0.0643 -0.2451 -1.3137
17328TIP3    H173475   5.550   3.951  10.722  0.7274 -0.9485 -0.2526
17328TIP3    H273476   5.483   3.835  10.792 -0.0775  0.5303  1.5173
17329TIP3   OH273477   0.416   5.740  12.300 -0.3473 -0.4028 -0.4847
17329TIP3    H173478   0.423   5.646  12.319  1.5250 -0.1679  0.1970
17329TIP3    H273479   0.435   5.782  12.384  2.0181  0.5848 -1.4337
17330TIP3   OH273480   2.500   5.060  12.581 -0.3361 -0.3588  0.1526
17330TIP3    H173481   2.531   5.063  12.672  1.9373  0.4711 -0.6060
17330TIP3    H273482   2.489   4.966  12.563  0.2658 -0.5948  0.9496
17331TIP3   OH273483   5.515   0.923   4.679 -0.2628  0.3417  0.4139
17331TIP3    H173484   5.604   0.950   4.700  0.3285  0.0547 -1.5617
17331TIP3    H273485   5.502   0.951   4.589 -1.5409 -1.2333  0.0718
17332TIP3   OH273486   0.499   2.089  16.275 -0.3222 -0.0573 -0.0072
17332TIP3    H173487   0.576   2.033  16.260  0.2931  0.7200  0.1666
17332TIP3    H273488   0.429   2.028  16.298  0.5143 -0.6971  0.9164
17333TIP3   OH273489   4.410   6.314   5.332  0.1517  0.0367  0.0113
17333TIP3    H173490   4.323   6.333   5.369 -0.5713 -0.5330 -1.3451
17333TIP3    H273491   4.407   6.353   5.245  1.0804 -0.4508 -0.2374
17334TIP3   OH273492   1.479   5.065   3.175 -0.8157 -0.3787 -0.6847
17334TIP3    H173493   1.499   5.065   3.081  0.8294  1.2017 -0.3994
17334TIP3    H273494   1.515   5.148   3.206 -2.3536 -0.3453  1.1535
17335TIP3   OH273495   0.346   4.367   2.217 -0.2909 -0.1983  0.0216
17335TIP3    H173496   0.372   4.323   2.298  0.3258  1.3926  0.7268
17335TIP3    H273497   0.344   4.297   2.151  4.7176 -0.7863  0.1187
17336TIP3   OH273498   4.937   3.012  13.585 -0.3626 -0.0061  0.0902
17336TIP3    H173499   4.928   2.954  13.661 -1.4741  1.8902  1.5146
17336TIP3    H273500   4.983   3.089  13.619  2.1530 -0.4704 -2.0282
17337TIP3   OH273501   5.630   2.778  11.676  0.5919 -0.3455 -0.0938
17337TIP3    H173502   5.673   2.790  11.761 -1.8072  2.7218  0.8535
17337TIP3    H273503   5.562   2.713  11.693  1.9830 -2.0081 -0.5412
17338TIP3   OH273504   0.866   3.143   3.370 -0.0419 -1.0380 -0.3037
17338TIP3    H173505   0.816   3.108   3.296 -2.3552  1.1264  0.0788
17338TIP3    H273506   0.918   3.214   3.332 -0.7550 -0.3358  0.0039
17339TIP3   OH273507   0.843   5.777  12.411 -0.1012 -0.2438 -0.0159
17339TIP3    H173508   0.814   5.827  12.334 -2.2605 -0.2165  0.7430
17339TIP3    H273509   0.889   5.701  12.374  0.1206  0.4751 -1.2834
17340TIP3   OH273510   0.671   1.867   5.801 -0.4047  0.4187  0.0628
17340TIP3    H173511   0.739   1.933   5.790 -0.1255  0.0775 -0.2984
17340TIP3    H273512   0.719   1.785   5.815 -0.7438  0.3649  1.0035
17341TIP3   OH273513   4.154   3.687   3.134  0.0287  0.5879 -0.4842
17341TIP3    H173514   4.108   3.724   3.209  0.2618 -1.2965  0.6634
17341TIP3    H273515   4.106   3.718   3.058 -1.1532  1.2971  0.5200
17342TIP3   OH273516   5.111   1.955  13.332 -0.1477 -0.2560 -0.4274
17342TIP3    H173517   5.038   1.964  13.392 -1.1722 -0.7090 -1.5693
17342TIP3    H273518   5.109   1.863  13.304 -0.4279  0.2056 -2.0281
17343TIP3   OH273519   2.744   0.252  16.973  0.1368  0.0006 -0.4141
17343TIP3    H173520   2.764   0.345  16.977  0.4736 -0.1195  1.1120
17343TIP3    H273521   2.828   0.209  16.988 -0.0408 -0.5579 -0.9820
17344TIP3   OH273522   2.081   3.346  13.645  0.3312 -0.0102 -0.0004
17344TIP3    H173523   2.170   3.333  13.677  0.5825 -0.6995 -0.9477
17344TIP3    H273524   2.063   3.269  13.592 -2.4280 -2.1569  3.5696
17345TIP3   OH273525   2.677   0.451  11.493  0.1031 -0.0227  0.9030
17345TIP3    H173526   2.747   0.513  11.472  1.2791 -2.2149 -2.4198
17345TIP3    H273527   2.721   0.367  11.503 -1.8615 -1.1667  0.4787
17346TIP3   OH273528   6.036   0.223  13.227 -0.1225  0.0496  0.2150
17346TIP3    H173529   6.101   0.226  13.156  0.0498 -0.0874  0.3670
17346TIP3    H273530   6.010   0.131  13.231 -0.8090  0.2102 -0.2772
17347TIP3   OH273531   0.586   4.467   4.288  0.0884 -0.1250 -0.3509
17347TIP3    H173532   0.512   4.502   4.337 -0.7415 -2.1784 -0.0561
17347TIP3    H273533   0.641   4.544   4.270 -1.1811  1.1676  0.9970
17348TIP3   OH273534   5.240   5.813  14.410 -0.0537  0.2605 -0.3930
17348TIP3    H173535   5.225   5.859  14.328  0.5804 -2.0215 -1.8747
17348TIP3    H273536   5.299   5.870  14.459 -0.2011  1.5327 -1.6317
17349TIP3   OH273537   1.931   4.403  11.286  0.4422 -0.0331  0.3835
17349TIP3    H173538   1.913   4.496  11.296 -3.5135 -0.7566  1.8704
17349TIP3    H273539   1.928   4.388  11.192 -2.0426  0.9650  0.2148
17350TIP3   OH273540   2.163   3.447   1.558 -0.5658 -0.0062 -0.3476
17350TIP3    H173541   2.103   3.510   1.517  1.3688  1.2651 -1.3954
17350TIP3    H273542   2.113   3.365   1.562 -2.1422  0.8227 -1.7468
17351TIP3   OH273543   4.852   5.052   5.077  0.3342 -0.5849 -0.5533
17351TIP3    H173544   4.893   5.061   4.991  0.0801  0.4377 -0.5743
17351TIP3    H273545   4.908   5.103   5.136 -0.0026 -0.5283 -0.2805
17352TIP3   OH273546   1.502   1.008   5.981 -0.2059  0.1364 -0.2769
17352TIP3    H173547   1.596   1.003   5.994 -0.0636 -0.4210 -1.4692
17352TIP3    H273548   1.491   1.040   5.892 -1.1557  0.5526 -0.0258
17353TIP3   OH273549   4.571   0.319  12.167  0.6736 -0.0647 -0.6589
17353TIP3    H173550   4.526   0.365  12.238  1.7409 -1.4435  1.0068
17353TIP3    H273551   4.567   0.227  12.192  0.1743 -0.7511 -2.9735
17354TIP3   OH273552   1.994   5.791  16.924  0.4658 -0.4795 -0.1580
17354TIP3    H173553   1.952   5.705  16.924  0.4596 -0.4931  1.0148
17354TIP3    H273554   2.019   5.805  17.015  0.7975  0.6069 -0.4055
17355TIP3   OH273555   1.708   2.296  13.911 -0.2177 -0.0599 -0.0811
17355TIP3    H173556   1.748   2.261  13.831 -0.7394  0.9349 -0.8055
17355TIP3    H273557   1.654   2.224  13.944 -1.7933  0.1979 -1.8912
17356TIP3   OH273558   5.542   3.477   0.842  0.0082 -0.2976  0.9067
17356TIP3    H173559   5.484   3.497   0.916  1.2650  2.3173  1.3355
17356TIP3    H273560   5.484   3.471   0.767 -1.5047 -4.5399  2.1330
17357TIP3   OH273561   4.932   5.594  11.355 -0.2397 -0.2598  0.2798
17357TIP3    H173562   4.975   5.619  11.273 -0.7873  0.3559  0.1744
17357TIP3    H273563   4.879   5.517  11.332 -0.9031  0.3024 -0.1059
17358TIP3   OH273564   5.680   1.231   3.448 -0.6150  0.0392 -0.0649
17358TIP3    H173565   5.718   1.173   3.382 -2.1214 -0.3172 -0.6530
17358TIP3    H273566   5.755   1.257   3.502  0.5067 -0.3925 -1.3399
17359TIP3   OH273567   0.544   5.994   3.996 -0.0480 -0.9041 -0.0727
17359TIP3    H173568   0.469   6.046   3.967 -1.3077 -1.6317  1.6721
17359TIP3    H273569   0.619   6.034   3.953 -1.3401  0.3258 -1.3032
17360TIP3   OH273570   6.234   5.431  16.645  0.1679  0.1805  0.6179
17360TIP3    H173571   6.300   5.374  16.606  0.1325  1.0363 -0.7602
17360TIP3    H273572   6.150   5.392  16.618  0.0903 -0.5472  1.8386
17361TIP3   OH273573   4.925   1.732   4.292  0.3850 -0.8568 -0.1814
17361TIP3    H173574   4.886   1.749   4.206  1.1783 -0.4095 -0.4700
17361TIP3    H273575   5.016   1.709   4.272  0.3783 -1.5148  0.4960
17362TIP3   OH273576   2.053   6.553   2.104 -0.4988  0.1208 -0.5513
17362TIP3    H173577   2.144   6.584   2.103 -0.9032  1.4484  0.3158
17362TIP3    H273578   2.033   6.533   2.013  0.2734  1.0692 -0.9445
17363TIP3   OH273579   1.158   3.845  11.649 -0.4033  0.7659 -0.0590
17363TIP3    H173580   1.242   3.825  11.608 -0.3488  2.2780 -0.7363
17363TIP3    H273581   1.178   3.853  11.742 -0.1111 -0.4441  0.0009
17364TIP3   OH273582   1.567   4.915   0.405 -0.6419  0.0151 -0.1404
17364TIP3    H173583   1.569   4.997   0.453 -1.6467  1.0114 -1.7227
17364TIP3    H273584   1.478   4.881   0.421 -1.5943  1.1834 -2.5087
17365TIP3   OH273585   2.991   6.392  13.623  0.9584 -0.0087 -0.2137
17365TIP3    H173586   3.038   6.309  13.617 -0.3864 -0.8267  0.0251
17365TIP3    H273587   3.049   6.449  13.675  1.3120 -1.2487  0.8016
17366TIP3   OH273588   2.863   5.027   0.434  0.3963  0.4614  0.1985
17366TIP3    H173589   2.818   5.090   0.377  0.3911  1.3914  1.1976
17366TIP3    H273590   2.799   4.957   0.448  0.7789 -0.3411 -1.8005
17367TIP3   OH273591   1.206   4.072  11.429 -0.3130 -0.0911 -0.0640
17367TIP3    H173592   1.183   3.979  11.430  0.3840 -0.2619  0.5619
17367TIP3    H273593   1.124   4.116  11.406 -0.2120 -0.9636 -2.3934
17368TIP3   OH273594   1.620   2.958  13.732  0.3027 -0.0124  0.2886
17368TIP3    H173595   1.566   2.935  13.808  0.1339 -0.3929  0.0543
17368TIP3    H273596   1.558   2.998  13.670 -0.2170 -2.5485 -0.9530
17369TIP3   OH273597   2.188   0.264   5.724  0.1487  0.0605  0.4146
17369TIP3    H173598   2.106   0.246   5.769 -1.1582  1.0036 -1.4747
17369TIP3    H273599   2.231   0.178   5.718 -0.9097 -0.5306  0.9870
17370TIP3   OH273600   2.144   1.523   4.360  0.0787 -0.3553  0.3366
17370TIP3    H173601   2.188   1.519   4.445 -1.5212  1.4189  1.3145
17370TIP3    H273602   2.159   1.612   4.328 -1.4310 -0.2011 -0.0363
17371TIP3   OH273603   4.764   5.975   5.701 -0.3841 -0.0057 -1.1089
17371TIP3    H173604   4.795   5.888   5.725 -0.6991  0.5047  1.4528
17371TIP3    H273605   4.841   6.032   5.708 -0.7563  0.3755  0.0257
17372TIP3   OH273606   1.970   1.038  13.154  0.7537 -0.1791  0.3151
17372TIP3    H173607   1.935   0.972  13.214  1.6446 -0.8779  0.0937
17372TIP3    H273608   1.980   1.117  13.207  0.6272 -0.5199  0.8478
17373TIP3   OH273609   5.611   0.974   2.493 -0.7142  0.4198 -0.0775
17373TIP3    H173610   5.663   0.911   2.443  0.2446 -0.5251  2.0096
17373TIP3    H273611   5.577   1.035   2.427 -0.0010 -1.0947 -1.9214
17374TIP3   OH273612   2.074   2.862   5.308  0.6495 -0.0292  0.5869
17374TIP3    H173613   2.097   2.869   5.215  0.5344  0.6673  0.6127
17374TIP3    H273614   2.131   2.792   5.341  0.2805 -0.6900 -0.1327
17375TIP3   OH273615   3.585   1.900  14.631 -0.2398 -0.1350  0.2429
17375TIP3    H173616   3.539   1.924  14.711 -1.4185 -2.5252  0.3653
17375TIP3    H273617   3.578   1.805  14.626  2.3481 -0.3459 -1.2169
17376TIP3   OH273618   3.934   3.615  13.890 -0.1854 -0.1829  0.2877
17376TIP3    H173619   3.947   3.523  13.911  0.9942  0.4208  2.5526
17376TIP3    H273620   3.840   3.629  13.899 -0.2180 -0.9064  1.2176
17377TIP3   OH273621   0.715   5.330   5.786 -0.5308  0.3018  0.1286
17377TIP3    H173622   0.762   5.313   5.867 -0.1031  0.2847 -0.1226
17377TIP3    H273623   0.782   5.329   5.718 -0.8271  0.7125 -0.1769
17378TIP3   OH273624   3.448   1.182  14.437 -0.0422 -0.1266  0.4229
17378TIP3    H173625   3.369   1.134  14.411  0.2475  0.0531 -0.8353
17378TIP3    H273626   3.517   1.117  14.437  0.2009  0.1170 -0.5241
17379TIP3   OH273627   4.106   5.372  14.428 -0.3120  0.0262 -0.3436
17379TIP3    H173628   4.100   5.311  14.354 -0.6200  0.5532 -0.7646
17379TIP3    H273629   4.165   5.441  14.397  0.0986 -0.0962  0.1569
17380TIP3   OH273630   5.610   4.265   0.998  0.7996  0.4224 -0.4011
17380TIP3    H173631   5.563   4.202   0.943  1.9271 -0.4017 -0.4504
17380TIP3    H273632   5.700   4.262   0.966  0.8209  2.3257 -0.6327
17381TIP3   OH273633   0.407   4.714  13.865  0.2480 -0.4352 -0.2335
17381TIP3    H173634   0.400   4.774  13.790  0.4055 -0.0007  0.0991
17381TIP3    H273635   0.360   4.758  13.935 -2.3879 -2.0836 -0.8218
17382TIP3   OH273636   0.697   6.278  15.615 -0.0422 -0.7568  0.7827
17382TIP3    H173637   0.710   6.194  15.571  2.5836 -0.7159  1.2783
17382TIP3    H273638   0.663   6.336  15.547  0.5525 -1.5899 -0.2558
17383TIP3   OH273639   1.971   2.501  14.282 -0.0061  0.2847 -0.4800
17383TIP3    H173640   2.058   2.474  14.311  0.2142  2.2156  0.8471
17383TIP3    H273641   1.972   2.489  14.187  1.0346 -1.4544 -0.2959
17384TIP3   OH273642   3.789   4.067  14.823  0.1529  0.2667 -0.0367
17384TIP3    H173643   3.739   4.021  14.890  1.6326  0.2065  1.0768
17384TIP3    H273644   3.727   4.078  14.750 -0.9299 -1.3411  0.5821
17385TIP3   OH273645   2.321   6.262  11.342  0.1631  0.2930 -0.1722
17385TIP3    H173646   2.304   6.215  11.423 -1.6525 -0.3183 -0.8529
17385TIP3    H273647   2.245   6.318  11.330  1.0898  1.4742 -0.7263
17386TIP3   OH273648   2.071   3.612  12.253  0.3462  0.4438 -0.3107
17386TIP3    H173649   2.082   3.593  12.346  0.4402 -0.6942 -0.5361
17386TIP3    H273650   2.050   3.705  12.249  0.6616  0.5735  0.8218
17387TIP3   OH273651   1.801   5.902  16.772 -0.1797  0.3910  0.8700
17387TIP3    H173652   1.733   5.842  16.803  0.1035 -0.2374  0.3112
17387TIP3    H273653   1.880   5.875  16.820  0.5265 -1.3189 -1.1208
17388TIP3   OH273654   5.340   4.124   2.685 -0.1052  0.0438 -0.0460
17388TIP3    H173655   5.291   4.121   2.603 -1.6989 -1.5047  0.8800
17388TIP3    H273656   5.281   4.167   2.747  0.9848  0.9858  0.3773
17389TIP3   OH273657   1.190   6.154   2.370  0.3811 -0.1714  0.2866
17389TIP3    H173658   1.131   6.083   2.395 -1.1124  1.4515  1.6207
17389TIP3    H273659   1.166   6.176   2.280  0.1644 -0.6776  0.2223
17390TIP3   OH273660   0.747   4.133  16.534 -0.0044  0.7035 -0.9605
17390TIP3    H173661   0.666   4.090  16.508  1.1164 -0.4191 -2.8266
17390TIP3    H273662   0.771   4.186  16.458  0.6148  1.6715 -0.1249
17391TIP3   OH273663   2.178   1.327  16.031  0.0962 -0.0648  0.2456
17391TIP3    H173664   2.257   1.279  16.008 -0.6765 -1.0561 -0.4281
17391TIP3    H273665   2.207   1.418  16.040  1.2361 -0.3519 -0.3726
17392TIP3   OH273666   3.531   0.969  15.969 -0.1278 -0.0751  0.4397
17392TIP3    H173667   3.460   0.923  15.924 -1.4197  1.3399  0.9060
17392TIP3    H273668   3.610   0.949  15.919 -0.8794 -1.6009 -0.1799
17393TIP3   OH273669   0.205   3.520  11.554  0.2994 -0.2375  0.3769
17393TIP3    H173670   0.141   3.545  11.620  0.6198 -0.2427  0.6933
17393TIP3    H273671   0.155   3.470  11.489 -0.5490  1.9651 -0.7587
17394TIP3   OH273672   5.616   3.820   4.093  0.0800 -0.0865 -0.4090
17394TIP3    H173673   5.523   3.799   4.099  0.3967 -0.9952  3.1055
17394TIP3    H273674   5.657   3.740   4.061 -0.0240 -0.8565  1.3173
17395TIP3   OH273675   1.780   6.002   2.875  0.3023  0.3128 -0.0061
17395TIP3    H173676   1.767   6.073   2.939  0.7406 -0.0593  0.5037
17395TIP3    H273677   1.834   6.042   2.807  0.4688  0.5017  0.2315
17396TIP3   OH273678   2.120   4.231   5.493  0.1055  0.0417  0.0638
17396TIP3    H173679   2.087   4.320   5.507 -0.6653 -0.1837 -0.2534
17396TIP3    H273680   2.128   4.195   5.581  0.5059  0.4531  0.1991
17397TIP3   OH273681   6.274   6.387   0.614  0.4530 -0.1338  0.0619
17397TIP3    H173682   6.191   6.344   0.635  0.7954 -0.8774 -0.0849
17397TIP3    H273683   6.249   6.464   0.562 -0.1280 -0.4523 -0.1329
17398TIP3   OH273684   4.666   5.610   0.536  0.0618  0.4777  0.1300
17398TIP3    H173685   4.620   5.667   0.598 -0.9627 -0.2529  0.0599
17398TIP3    H273686   4.756   5.608   0.569 -0.8292 -1.4775  2.8698
17399TIP3   OH273687   3.678   6.403  14.816  0.2815  0.0741  0.6160
17399TIP3    H173688   3.615   6.458  14.863 -1.0655  0.1335 -1.1596
17399TIP3    H273689   3.737   6.371  14.884  0.7540  3.1666  1.8289
17400TIP3   OH273690   3.569   3.667   3.349 -0.3478  0.4491 -0.7776
17400TIP3    H173691   3.604   3.703   3.430  0.5216 -0.6258 -0.6522
17400TIP3    H273692   3.627   3.702   3.280 -0.5578  0.6716 -0.8415
17401TIP3   OH273693   2.516   2.316  11.105 -0.1559 -0.1730 -0.2294
17401TIP3    H173694   2.607   2.326  11.078 -0.0200 -1.7133 -0.4100
17401TIP3    H273695   2.488   2.234  11.065 -1.7512  0.4599 -0.4893
17402TIP3   OH273696   4.853   3.693   2.019 -0.5130  0.1674 -0.1443
17402TIP3    H173697   4.924   3.755   2.035  1.5796 -2.0562 -0.2114
17402TIP3    H273698   4.883   3.641   1.944 -0.7370 -2.7607  1.6423
17403TIP3   OH273699   4.051   5.428  12.263  0.2143 -0.2107 -0.1218
17403TIP3    H173700   4.113   5.485  12.307 -0.1146  2.0029 -2.3032
17403TIP3    H273701   3.968   5.444  12.307  0.2960  0.3268 -0.1591
17404TIP3   OH273702   6.123   3.236   3.240  0.4443 -0.1857 -0.1940
17404TIP3    H173703   6.037   3.203   3.263  1.4775 -0.8828  3.1383
17404TIP3    H273704   6.170   3.159   3.206  1.0234 -0.9262  2.0985
17405TIP3   OH273705   5.776   3.079   6.018  0.0373 -0.0855 -0.6180
17405TIP3    H173706   5.810   3.057   6.105 -0.0284 -1.1577 -0.8545
17405TIP3    H273707   5.688   3.041   6.017  0.2839 -0.6364 -1.3879
17406TIP3   OH273708   4.193   3.210   5.014  0.6994 -0.0491  0.0567
17406TIP3    H173709   4.244   3.147   5.065  1.3985 -0.5642 -1.2193
17406TIP3    H273710   4.254   3.282   4.999  0.6165 -0.0610 -0.3358
17407TIP3   OH273711   4.757   0.656  11.974  0.3664 -0.1059 -0.7079
17407TIP3    H173712   4.819   0.689  11.909  0.2109 -0.7169 -1.1758
17407TIP3    H273713   4.691   0.610  11.923 -0.1168 -0.0302 -0.1611
17408TIP3   OH273714   1.032   3.120  15.579  0.2220  0.2180  0.7762
17408TIP3    H173715   0.951   3.072  15.563 -0.2136 -0.3845  4.0092
17408TIP3    H273716   1.101   3.059  15.558 -0.2929 -0.8062  1.9006
17409TIP3   OH273717   3.033   4.457  16.357  0.5088  0.8767 -0.3441
17409TIP3    H173718   3.053   4.483  16.267 -2.1572 -1.2652 -1.7171
17409TIP3    H273719   3.087   4.380  16.372 -0.1857  0.2830 -0.7787
17410TIP3   OH273720   5.459   4.715   3.224 -0.0682  0.5539 -0.8074
17410TIP3    H173721   5.525   4.656   3.186 -1.0288 -0.9507 -0.2330
17410TIP3    H273722   5.469   4.704   3.318 -0.6028  0.9186 -0.7050
17411TIP3   OH273723   4.949   0.701  14.643  0.8643 -0.2502 -0.1618
17411TIP3    H173724   4.927   0.670  14.731  0.3913 -2.5470 -1.0052
17411TIP3    H273725   4.908   0.787  14.637 -0.4938 -0.7286  1.3321
17412TIP3   OH273726   0.252   6.610  14.758 -0.1545 -0.1705 -0.7813
17412TIP3    H173727   0.286   6.533  14.805  0.8031  0.3606 -0.5861
17412TIP3    H273728   0.160   6.615  14.785  0.2135 -0.2456  0.5588
17413TIP3   OH273729   0.491   2.911  14.250 -0.6362  0.3891  0.0768
17413TIP3    H173730   0.396   2.909  14.257 -0.6511  0.9156  0.0735
17413TIP3    H273731   0.519   2.822  14.274 -1.1797 -0.0140 -0.7616
17414TIP3   OH273732   3.175   3.104   6.121 -0.4660  0.2265  0.4703
17414TIP3    H173733   3.147   3.016   6.145  2.6492 -0.8527  0.5844
17414TIP3    H273734   3.223   3.136   6.197  0.1516  1.2133 -0.2977
17415TIP3   OH273735   2.319   3.393   3.910 -0.4184 -0.2118 -0.6215
17415TIP3    H173736   2.355   3.346   3.985 -0.1600 -0.1264 -0.6886
17415TIP3    H273737   2.265   3.462   3.948  1.4459  1.2332 -0.4308
17416TIP3   OH273738   3.089   5.681  15.145 -0.3703 -0.7050 -0.6442
17416TIP3    H173739   3.146   5.738  15.197 -1.7712  0.3014 -0.1329
17416TIP3    H273740   3.092   5.597  15.190 -1.2036  0.0214  0.8623
17417TIP3   OH273741   1.726   3.666  15.742 -0.2930 -0.1017  0.0453
17417TIP3    H173742   1.770   3.727  15.682  0.8094 -1.6504 -0.8019
17417TIP3    H273743   1.797   3.618  15.784 -1.1273 -0.7214  0.7830
17418TIP3   OH273744   0.695   1.574  14.660 -0.1567 -0.2029  0.6831
17418TIP3    H173745   0.623   1.528  14.617  0.7351 -1.4929  0.5282
17418TIP3    H273746   0.706   1.528  14.743  0.8407 -0.3805  0.4620
17419TIP3   OH273747   6.738   0.820  12.027  0.1689 -0.0590 -0.5042
17419TIP3    H173748   6.648   0.805  11.995  0.4798 -1.5990 -0.7695
17419TIP3    H273749   6.791   0.821  11.947  0.5232 -0.3123 -0.2719
17420TIP3   OH273750   1.269   6.116   0.416  0.1362  0.4807  0.0373
17420TIP3    H173751   1.336   6.052   0.393 -0.2748 -0.1489  0.5704
17420TIP3    H273752   1.277   6.127   0.510 -0.1557  0.8112  0.0261
17421TIP3   OH273753   6.497   4.538   4.780 -0.4678  0.0586  0.7440
17421TIP3    H173754   6.547   4.560   4.858  0.0039  1.0192  0.1873
17421TIP3    H273755   6.510   4.444   4.768  3.8670  0.6554 -1.1373
17422TIP3   OH273756   3.057   2.980   5.758  0.6048  0.2589 -0.7017
17422TIP3    H173757   3.088   2.913   5.820  1.3404 -1.0781 -2.4200
17422TIP3    H273758   3.064   3.062   5.806 -0.5496 -0.8936  1.5789
17423TIP3   OH273759   2.134   4.258  13.970 -0.2384 -0.0862 -0.3086
17423TIP3    H173760   2.090   4.182  13.932  2.3864 -1.6647 -0.4834
17423TIP3    H273761   2.136   4.322  13.899  0.0257 -1.0005 -1.1499
17424TIP3   OH273762   2.255   1.734   1.984 -0.4587  0.0742 -0.1583
17424TIP3    H173763   2.196   1.810   1.986 -1.1922 -0.4130 -1.6710
17424TIP3    H273764   2.205   1.666   1.938  0.9035 -0.6890 -0.5766
17425TIP3   OH273765   3.609   4.523  13.358 -0.4693 -0.0157  0.0242
17425TIP3    H173766   3.668   4.483  13.295  0.2387  2.7403 -1.2046
17425TIP3    H273767   3.667   4.560  13.425 -1.1361 -1.5577  1.5176
17426TIP3   OH273768   4.992   6.206   4.706  0.1289  0.9422  0.0783
17426TIP3    H173769   5.049   6.138   4.671 -0.2052  1.1286 -0.8714
17426TIP3    H273770   4.918   6.159   4.743  0.1716  0.7641 -0.0610
17427TIP3   OH273771   4.705   2.519   0.324 -0.1414 -0.3653 -0.2828
17427TIP3    H173772   4.772   2.553   0.383  1.1440 -1.4713 -1.0611
17427TIP3    H273773   4.691   2.429   0.353 -1.7993  0.0264  0.2742
17428TIP3   OH273774   6.582   4.619  12.235  0.8050 -0.4266  0.2119
17428TIP3    H173775   6.676   4.599  12.232  1.4116  1.8955  1.1648
17428TIP3    H273776   6.553   4.612  12.144  2.2625  0.2410 -0.3398
17429TIP3   OH273777   3.794   3.828   2.291  0.0915 -0.3606 -0.4737
17429TIP3    H173778   3.810   3.762   2.223  1.4842 -0.0083 -0.5224
17429TIP3    H273779   3.881   3.845   2.328 -0.5292  0.0778  0.8227
17430TIP3   OH273780   1.147   2.142  14.941 -0.1769 -0.0874  0.0185
17430TIP3    H173781   1.163   2.211  15.005  0.3270  0.5640 -0.7926
17430TIP3    H273782   1.066   2.100  14.971 -0.6094  0.9908  0.4018
17431TIP3   OH273783   1.263   4.853   2.674 -0.1826  0.1277  0.2661
17431TIP3    H173784   1.346   4.876   2.631 -0.5054  0.8352  0.0148
17431TIP3    H273785   1.199   4.914   2.638 -0.6082  0.2701  1.2323
17432TIP3   OH273786   2.148   5.488  12.991 -0.5051 -0.7764 -0.0712
17432TIP3    H173787   2.202   5.562  12.967  0.5216 -1.7647 -0.9266
17432TIP3    H273788   2.113   5.455  12.908  0.1592 -2.0589  0.1264
17433TIP3   OH273789   2.867   0.532  16.349 -0.2354  0.1852  0.2817
17433TIP3    H173790   2.880   0.438  16.349 -1.5182 -0.2238 -4.1811
17433TIP3    H273791   2.776   0.544  16.324  0.3989  2.5414 -1.2394
17434TIP3   OH273792   3.502   0.828  16.185  0.4256  0.6362  0.0652
17434TIP3    H173793   3.533   0.893  16.122 -0.3416  0.9162 -0.0400
17434TIP3    H273794   3.440   0.877  16.240 -1.9963 -0.4941 -1.4732
17435TIP3   OH273795   5.092   0.641  12.076  0.6734  0.2436 -0.1694
17435TIP3    H173796   5.122   0.732  12.075 -1.3256  0.9792  0.5145
17435TIP3    H273797   5.043   0.631  11.994 -1.8637  0.8739  1.1677
17436TIP3   OH273798   5.344   0.846   3.730 -0.0811  0.0764 -0.3010
17436TIP3    H173799   5.280   0.851   3.801  1.0080  0.3762  0.7051
17436TIP3    H273800   5.415   0.905   3.758  0.3511  0.2364 -1.6717
17437TIP3   OH273801   4.727   3.852  11.219 -0.1679  0.6194 -0.1504
17437TIP3    H173802   4.676   3.928  11.191 -1.0109  0.7122  1.5452
17437TIP3    H273803   4.690   3.827  11.304  0.7691 -1.0609 -0.1846
17438TIP3   OH273804   5.093   4.174   3.832  0.0530  0.0400 -0.8108
17438TIP3    H173805   5.121   4.140   3.747  1.3947  0.9988 -0.7887
17438TIP3    H273806   5.050   4.257   3.812 -1.0408 -0.4713 -0.6616
17439TIP3   OH273807   4.509   0.438   0.833 -0.7067  0.1604  0.1153
17439TIP3    H173808   4.499   0.502   0.763  1.5678 -1.4843 -1.8940
17439TIP3    H273809   4.560   0.484   0.900 -1.1585  1.1500 -0.1998
17440TIP3   OH273810   0.633   5.985  12.948  0.0870  0.1169 -0.0872
17440TIP3    H173811   0.688   5.988  13.027  1.1534  1.6736 -0.8405
17440TIP3    H273812   0.627   5.892  12.927  1.3999 -0.1918  0.7477
17441TIP3   OH273813   1.500   1.009   2.865  0.1835 -0.4058  0.0110
17441TIP3    H173814   1.503   0.914   2.871  0.0048 -0.4516 -0.5999
17441TIP3    H273815   1.422   1.033   2.914  0.2907 -0.5628  0.2624
17442TIP3   OH273816   0.482   2.702  13.768 -0.7954 -0.6724 -0.2838
17442TIP3    H173817   0.518   2.632  13.823 -1.9423 -1.5455 -0.5923
17442TIP3    H273818   0.463   2.659  13.684 -0.6759  0.2327 -0.7919
17443TIP3   OH273819   5.383   2.858   2.229 -0.2625 -0.3886 -0.1035
17443TIP3    H173820   5.370   2.764   2.243  1.5320 -0.5309  0.9450
17443TIP3    H273821   5.426   2.864   2.143 -0.1929 -0.5516 -0.0805
17444TIP3   OH273822   2.859   2.738   0.105  0.0524  0.7425  0.2220
17444TIP3    H173823   2.895   2.704   0.187 -1.4250  0.8938  0.9697
17444TIP3    H273824   2.862   2.833   0.115 -1.8956  0.7821  0.9805
17445TIP3   OH273825   3.991   3.129   0.079 -0.1467 -0.3659  0.8863
17445TIP3    H173826   3.949   3.132  -0.007 -1.0163 -0.2849  1.3021
17445TIP3    H273827   4.020   3.219   0.094 -0.1858 -0.3335  0.7682
17446TIP3   OH273828   0.294   3.655   5.599 -0.2600 -0.3671  0.4109
17446TIP3    H173829   0.339   3.571   5.607  0.1093 -0.0882  1.3642
17446TIP3    H273830   0.218   3.636   5.544  0.3625 -1.1015 -0.2118
17447TIP3   OH273831   2.871   1.742   3.078  0.0595  0.6044 -0.6212
17447TIP3    H173832   2.821   1.700   3.148 -1.2566  2.3837 -0.4059
17447TIP3    H273833   2.927   1.673   3.043 -0.3251 -0.7077  1.1907
17448TIP3   OH273834   4.025   1.887   4.095  0.0772 -0.1439  0.5204
17448TIP3    H173835   3.943   1.915   4.136  0.5430  0.0026  1.3673
17448TIP3    H273836   3.999   1.860   4.007 -0.6710  1.2311  0.2766
17449TIP3   OH273837   6.402   1.483   3.209 -0.5290 -0.3317  0.1498
17449TIP3    H173838   6.401   1.423   3.284  1.5238  0.1679  0.6423
17449TIP3    H273839   6.416   1.569   3.248  0.5908 -0.0668 -0.7860
17450TIP3   OH273840   1.767   6.336  13.108  0.0959 -0.2721  0.3191
17450TIP3    H173841   1.746   6.410  13.052 -3.1997  0.8862  2.7471
17450TIP3    H273842   1.770   6.260  13.049  1.5310  1.4248 -1.9465
17451TIP3   OH273843   4.687   4.033   0.822 -0.3035  0.1868 -0.1385
17451TIP3    H173844   4.729   4.103   0.873  1.3951 -0.6340 -0.3478
17451TIP3    H273845   4.669   4.073   0.737 -1.4212  0.9995  0.4399
17452TIP3   OH273846   3.188   5.853   3.186  0.1084 -0.2346 -0.3538
17452TIP3    H173847   3.243   5.932   3.185 -2.9997  2.1165 -0.2942
17452TIP3    H273848   3.145   5.855   3.272 -0.4622 -1.6886 -0.5896
17453TIP3   OH273849   5.402   3.208   0.096  0.0262  0.2305 -0.2980
17453TIP3    H173850   5.367   3.119   0.103  0.9110 -0.1700 -0.7274
17453TIP3    H273851   5.459   3.205   0.019 -0.2487  1.2817 -0.5487
17454TIP3   OH273852   3.351   6.312  16.347 -0.1995 -0.0498  0.3465
17454TIP3    H173853   3.427   6.369  16.359  0.0159 -0.4224  0.7554
17454TIP3    H273854   3.371   6.234  16.398 -0.3060 -0.6802 -0.5663
17455TIP3   OH273855   3.010   0.452   3.727 -0.3427  0.1018  0.1335
17455TIP3    H173856   2.998   0.426   3.636 -0.3838  0.0643  0.1496
17455TIP3    H273857   2.924   0.484   3.755 -0.1860  0.6628 -0.0157
17456TIP3   OH273858   1.933   5.116  16.648 -0.2435  0.1558  0.7514
17456TIP3    H173859   2.009   5.144  16.598 -0.6492 -0.6157 -0.3301
17456TIP3    H273860   1.949   5.024  16.669 -0.7362  0.0677  0.7742
17457TIP3   OH273861   2.552   4.241   2.308  0.9935  0.1462  0.1420
17457TIP3    H173862   2.519   4.232   2.397  0.7221  0.9768  0.1387
17457TIP3    H273863   2.494   4.186   2.255  0.8486  0.0365  0.4153
17458TIP3   OH273864   0.682   0.258   5.862  0.0924  0.1237  0.1653
17458TIP3    H173865   0.646   0.183   5.910  0.6698 -0.4366 -0.2733
17458TIP3    H273866   0.620   0.272   5.791 -0.6789  0.8523  0.9608
17459TIP3   OH273867   2.036   5.805   2.287  0.6089  0.5591  1.1305
17459TIP3    H173868   2.055   5.819   2.380 -0.3353  0.7016  1.3189
17459TIP3    H273869   1.941   5.788   2.285  0.8460 -0.7733  0.3315
17460TIP3   OH273870   2.444   6.776  12.556  0.1477  0.1864  0.0801
17460TIP3    H173871   2.447   6.864  12.594 -0.9113  0.1981  0.1583
17460TIP3    H273872   2.395   6.787  12.475 -2.2646 -0.7361  1.3164
17461TIP3   OH273873   6.582   1.855  12.776 -0.4072  0.1937  0.2041
17461TIP3    H173874   6.666   1.888  12.806 -0.2479 -1.8269  2.2264
17461TIP3    H273875   6.598   1.763  12.758 -1.7592  0.2137 -1.3243
17462TIP3   OH273876   4.512   6.637   1.248 -0.6328  0.4721  0.6660
17462TIP3    H173877   4.591   6.690   1.240  0.1728 -0.8036 -0.0897
17462TIP3    H273878   4.445   6.685   1.199  0.2431  0.4927 -0.5504
17463TIP3   OH273879   4.721   3.921   0.234  0.2963  0.7542  0.5071
17463TIP3    H173880   4.799   3.870   0.255  0.1927  0.8806  1.2243
17463TIP3    H273881   4.649   3.860   0.247  0.2608  0.6663 -0.0618
17464TIP3   OH273882   0.459   4.679  10.644 -0.3518  0.7941  0.1378
17464TIP3    H173883   0.552   4.694  10.627 -0.3002 -0.3420 -0.7325
17464TIP3    H273884   0.442   4.592  10.607 -2.0383  1.4852 -0.8212
17465TIP3   OH273885   2.280   6.186   3.291  0.1255 -0.1617 -0.1570
17465TIP3    H173886   2.353   6.203   3.350  1.4787  0.4421 -1.9023
17465TIP3    H273887   2.219   6.258   3.306  0.7468  0.3218  0.0843
17466TIP3   OH273888   6.742   5.526   3.630  0.1340 -0.6929  0.0142
17466TIP3    H173889   6.704   5.445   3.666 -1.2979 -0.4080 -0.7660
17466TIP3    H273890   6.683   5.595   3.661  0.5682 -0.1034 -0.4630
17467TIP3   OH273891   3.557   5.845   3.741  0.3309 -0.3375 -0.0615
17467TIP3    H173892   3.535   5.765   3.789  0.6756 -0.5874 -0.3149
17467TIP3    H273893   3.544   5.916   3.804 -0.7244 -0.5200 -0.0627
17468TIP3   OH273894   0.995   6.338   4.555  0.6500 -0.4927  0.1175
17468TIP3    H173895   0.910   6.332   4.512  0.8532  2.3151 -0.8835
17468TIP3    H273896   0.975   6.338   4.649 -1.1141  4.4189  0.0378
17469TIP3   OH273897   6.478   4.201  14.120 -0.5086 -0.2474 -0.7239
17469TIP3    H173898   6.496   4.132  14.184  0.7479  1.2972  0.6729
17469TIP3    H273899   6.525   4.173  14.041  1.4955 -0.1824  0.3768
17470TIP3   OH273900   1.098   6.000   5.369  0.0686 -0.2126  0.3738
17470TIP3    H173901   1.194   5.998   5.371  0.1064 -1.8405 -0.9737
17470TIP3    H273902   1.071   5.909   5.381 -1.1662 -0.2465 -1.9049
17471TIP3   OH273903   5.259   1.320   5.858 -0.7313  0.0185  0.5633
17471TIP3    H173904   5.198   1.291   5.926  0.9096 -0.7328  1.7817
17471TIP3    H273905   5.315   1.244   5.841 -1.0567  0.2155 -1.6170
17472TIP3   OH273906   6.386   2.899   4.966 -0.4052  1.0880  0.4779
17472TIP3    H173907   6.303   2.852   4.958  0.2493  0.0263 -0.4457
17472TIP3    H273908   6.421   2.899   4.877  0.5909  1.5003  0.8651
17473TIP3   OH273909   4.020   5.728  14.158 -0.6266 -0.0948 -0.3532
17473TIP3    H173910   3.974   5.704  14.078 -3.6135 -0.0252  1.1908
17473TIP3    H273911   3.996   5.819  14.173  0.9329  0.2837 -0.0016
17474TIP3   OH273912   3.541   3.502   4.372  0.4451 -0.0927  0.0142
17474TIP3    H173913   3.548   3.569   4.440  1.2891 -0.1339 -0.0230
17474TIP3    H273914   3.447   3.482   4.368  0.2095  0.8998  0.1988
17475TIP3   OH273915   5.526   1.923  15.455 -0.3961  0.8875 -0.2574
17475TIP3    H173916   5.434   1.938  15.474 -0.4594 -0.1265  0.3496
17475TIP3    H273917   5.526   1.874  15.373 -0.5956 -1.4043  1.0210
17476TIP3   OH273918   2.948   1.219   0.778  0.0062 -0.3514 -0.4041
17476TIP3    H173919   2.976   1.296   0.728  2.4259 -0.7798  0.1607
17476TIP3    H273920   3.009   1.150   0.752 -0.9582 -1.5779  0.4639
17477TIP3   OH273921   0.834   1.053  13.066 -0.2004  0.6187  0.1053
17477TIP3    H173922   0.905   1.081  13.009 -1.3159  0.5729 -1.3637
17477TIP3    H273923   0.792   1.134  13.094 -0.0537  0.6130  0.3483
17478TIP3   OH273924   3.276   1.361  12.849 -0.2201 -0.4109 -0.2292
17478TIP3    H173925   3.289   1.447  12.810  0.0945 -1.3884 -2.3926
17478TIP3    H273926   3.358   1.342  12.896 -0.3607  0.5069  0.4054
17479TIP3   OH273927   0.350   6.419   3.361 -0.3617 -0.3998 -0.1811
17479TIP3    H173928   0.329   6.492   3.303  3.7499 -0.3377 -1.9230
17479TIP3    H273929   0.367   6.459   3.446  2.2468  0.8988 -1.2034
17480TIP3   OH273930   0.904   3.097   3.006 -0.0445 -0.3777  0.7053
17480TIP3    H173931   0.880   3.034   3.074 -0.1740 -2.2907 -1.0119
17480TIP3    H273932   0.862   3.064   2.926 -1.2149  2.6072 -0.0832
17481TIP3   OH273933   2.626   2.810  12.262 -0.1953  0.0393 -0.4330
17481TIP3    H173934   2.572   2.818  12.341  0.8572 -0.2000  0.3277
17481TIP3    H273935   2.657   2.899  12.245 -1.5982  0.3641 -1.4538
17482TIP3   OH273936   2.819   5.140  14.734 -0.9422 -0.4893 -0.0804
17482TIP3    H173937   2.824   5.233  14.712 -1.8307 -0.3907  0.1147
17482TIP3    H273938   2.758   5.103  14.670 -1.1670 -0.7974  0.3083
17483TIP3   OH273939   1.549   4.598  15.142 -0.5529 -0.0747  0.0791
17483TIP3    H173940   1.539   4.570  15.051 -1.8810  1.1646 -0.2032
17483TIP3    H273941   1.591   4.525  15.186 -1.2205 -1.2823 -1.2266
17484TIP3   OH273942   0.188   3.608   4.814 -0.4770 -0.4560  0.3778
17484TIP3    H173943   0.177   3.692   4.769 -1.6429 -1.0744 -0.5636
17484TIP3    H273944   0.105   3.596   4.861 -0.0389 -0.7487  1.0833
17485TIP3   OH273945   2.511   4.110  14.240  0.5180 -0.2183 -0.9972
17485TIP3    H173946   2.469   4.034  14.280  0.2503  0.9973  1.1847
17485TIP3    H273947   2.458   4.128  14.163 -2.9002  0.9764  1.3807
17486TIP3   OH273948   6.781   5.740   0.134  0.0966  0.5601 -0.4353
17486TIP3    H173949   6.824   5.817   0.171  0.7081  0.4976 -1.0132
17486TIP3    H273950   6.795   5.747   0.040 -1.1894  0.5590 -0.6480
17487TIP3   OH273951   0.350   4.301  14.488 -0.6111  0.0966 -0.1579
17487TIP3    H173952   0.262   4.298  14.451 -0.1649 -1.5070 -1.2380
17487TIP3    H273953   0.356   4.386  14.531 -1.7293  1.4238 -2.4460
17488TIP3   OH273954   1.510   6.249   4.849  0.6234  0.7430  0.5410
17488TIP3    H173955   1.510   6.162   4.887  1.6044  0.2096 -0.6103
17488TIP3    H273956   1.534   6.307   4.922  1.1910 -0.0891  1.0318
17489TIP3   OH273957   0.196   5.087   4.627  0.1777  0.0115 -0.6283
17489TIP3    H173958   0.115   5.115   4.586  0.7533  1.3069 -0.9465
17489TIP3    H273959   0.244   5.169   4.642  0.9989 -0.6420  0.4441
17490TIP3   OH273960   0.807   1.914   2.767 -0.0958 -0.0592 -0.4962
17490TIP3    H173961   0.804   1.928   2.672  1.0260  1.2072 -0.3904
17490TIP3    H273962   0.823   1.821   2.777 -0.5168 -0.2643 -1.5455
17491TIP3   OH273963   3.106   2.865   4.861  0.3265 -0.1216  0.0118
17491TIP3    H173964   3.135   2.955   4.846 -1.6886  0.5323 -0.2459
17491TIP3    H273965   3.026   2.874   4.912 -0.0974 -1.7587 -0.3138
17492TIP3   OH273966   5.158   5.191   3.765  0.0702  0.3954  0.7530
17492TIP3    H173967   5.119   5.279   3.772 -0.9901 -0.1466  2.3446
17492TIP3    H273968   5.225   5.189   3.834  1.0690  0.3891 -0.1843
17493TIP3   OH273969   4.453   5.936   1.102 -0.2011  0.1790  0.1077
17493TIP3    H173970   4.368   5.914   1.141 -0.3703  1.3765  0.4665
17493TIP3    H273971   4.435   6.010   1.044  0.4909  0.0251 -0.3161
17494TIP3   OH273972   3.933   2.516  13.940  0.1881 -0.0997  0.0265
17494TIP3    H173973   3.904   2.567  13.864 -1.5367 -2.5965 -1.1597
17494TIP3    H273974   4.023   2.492  13.920  0.1356  0.2613 -0.6604
17495TIP3   OH273975   4.106   3.884   4.599 -0.6218  0.6250  0.6374
17495TIP3    H173976   4.089   3.928   4.517  1.0119  0.9125  0.4218
17495TIP3    H273977   4.153   3.804   4.574 -0.0547  0.7475  1.2845
17496TIP3   OH273978   6.590   4.518   1.372 -0.6690 -0.6391  0.5352
17496TIP3    H173979   6.663   4.458   1.385 -1.1954 -1.3945  0.0966
17496TIP3    H273980   6.609   4.593   1.429 -0.3826 -1.5575  1.6720
17497TIP3   OH273981   6.232   5.939   3.540 -0.2031 -0.3121 -0.2704
17497TIP3    H173982   6.149   5.978   3.513  0.2622  0.3108 -0.8470
17497TIP3    H273983   6.212   5.847   3.554 -0.7249 -0.4372 -1.6769
17498TIP3   OH273984   2.650   2.256   4.953  0.1889  0.1350  0.2013
17498TIP3    H173985   2.704   2.181   4.928  0.3716  0.7907 -1.5281
17498TIP3    H273986   2.705   2.306   5.014  0.6096 -0.3993  0.2642
17499TIP3   OH273987   1.185   4.034  15.048  0.1947 -0.1458  0.2199
17499TIP3    H173988   1.100   4.079  15.043  0.4567  0.5033  1.2754
17499TIP3    H273989   1.206   4.032  15.141  0.2681 -2.3831  0.2074
17500TIP3   OH273990   2.018   5.796   5.258  0.1518 -0.2457  0.1316
17500TIP3    H173991   1.959   5.869   5.237  0.8181  0.0598 -0.7295
17500TIP3    H273992   2.055   5.820   5.343 -0.6609 -0.2548  0.5039
17501TIP3   OH273993   2.133   6.186   1.090  0.2454  0.3223  0.3641
17501TIP3    H173994   2.194   6.195   1.017  0.9401 -0.7790  0.7837
17501TIP3    H273995   2.180   6.134   1.155 -1.1706 -0.6800  0.6387
17502TIP3   OH273996   4.128   4.878   0.295  0.2691  0.1652 -0.5817
17502TIP3    H173997   4.075   4.850   0.370 -1.2353 -0.8359 -1.9638
17502TIP3    H273998   4.217   4.883   0.329 -0.0107 -2.4564  0.7427
17503TIP3   OH273999   5.238   2.909   5.549  0.5083  0.1162 -0.0647
17503TIP3    H174000   5.202   2.836   5.600 -0.5458  1.3791  1.0872
17503TIP3    H274001   5.292   2.957   5.611  0.2435  0.9610 -0.4758
17504TIP3   OH274002   2.751   1.897  17.114 -0.2066 -0.4537  0.1746
17504TIP3    H174003   2.777   1.917  17.204 -0.0075 -3.1016  0.7952
17504TIP3    H274004   2.664   1.858  17.123 -0.9885  0.9228 -1.0279
17505TIP3   OH274005   3.024   3.678  15.002 -0.4388  0.5017 -0.1440
17505TIP3    H174006   2.929   3.670  14.992 -0.7497  0.1050  2.4985
17505TIP3    H274007   3.048   3.610  15.065  1.9084 -0.5075 -1.9323
17506TIP3   OH274008   2.787   3.970  14.087  0.0125 -0.2823  0.2658
17506TIP3    H174009   2.718   3.913  14.120  0.2935 -0.8170 -0.0568
17506TIP3    H274010   2.745   4.020  14.016 -0.4696  0.5539  1.1161
17507TIP3   OH274011   3.341   5.246  10.198 -0.1479  0.2263 -0.0178
17507TIP3    H174012   3.376   5.330  10.229  0.5290 -0.1048  0.1454
17507TIP3    H274013   3.284   5.269  10.125 -1.7166  1.0193  1.4013
17508TIP3   OH274014   3.594   0.205   4.911  0.0622  0.4187 -0.0878
17508TIP3    H174015   3.582   0.111   4.894  1.7677 -0.5442  3.0888
17508TIP3    H274016   3.671   0.229   4.860 -0.4310  0.1216 -0.9848
17509TIP3   OH274017   3.096   2.794   0.224  0.2355  0.1088 -0.8703
17509TIP3    H174018   3.153   2.721   0.248  1.5434  1.4427  0.3443
17509TIP3    H274019   3.040   2.807   0.300 -0.2408  0.1482 -1.2218
17510TIP3   OH274020   4.651   3.501  12.519  0.1230 -0.1442  0.1279
17510TIP3    H174021   4.647   3.406  12.504 -1.0244  0.1371 -1.7744
17510TIP3    H274022   4.675   3.537  12.433  1.7448  1.2411  1.1156
17511TIP3   OH274023   0.502   0.574   1.800  0.6284 -0.3126 -0.0392
17511TIP3    H174024   0.453   0.506   1.753  1.8059 -0.2048 -1.4939
17511TIP3    H274025   0.508   0.542   1.890 -0.5262 -1.1839 -0.2540
17512TIP3   OH274026   3.644   3.766  13.939 -0.2107 -0.0815 -0.0956
17512TIP3    H174027   3.574   3.715  13.981  0.1666  0.1543  0.8418
17512TIP3    H274028   3.659   3.721  13.856 -0.4964 -0.9807  0.3209
17513TIP3   OH274029   6.076   0.652  17.209  0.3282  0.1902  0.3372
17513TIP3    H174030   6.053   0.633  17.118 -0.7354 -1.4173  0.8940
17513TIP3    H274031   6.068   0.747  17.217  1.7958  0.5369 -1.5671
17514TIP3   OH274032   0.259   6.331  11.642 -0.6868  0.2985 -0.0587
17514TIP3    H174033   0.184   6.367  11.595 -0.1811  1.2372 -0.1758
17514TIP3    H274034   0.312   6.289  11.574 -1.2134 -0.5925  0.0603
17515TIP3   OH274035   3.713   3.938  11.943  0.4244  0.7328 -0.4886
17515TIP3    H174036   3.721   4.033  11.931  0.0999  0.5809 -2.1441
17515TIP3    H274037   3.647   3.911  11.879  0.7138 -0.6566 -0.2354
17516TIP3   OH274038   0.450   3.567   4.850  0.1178 -0.1501 -0.4029
17516TIP3    H174039   0.356   3.586   4.853 -0.4609 -2.5703 -1.2854
17516TIP3    H274040   0.471   3.539   4.939  0.3567  1.6637  0.1541
17517TIP3   OH274041   4.686   2.589  15.992 -0.1076  0.5543  0.7385
17517TIP3    H174042   4.741   2.566  16.067 -1.2759  1.8179  2.0336
17517TIP3    H274043   4.637   2.509  15.974  0.7628 -0.0073  0.7711
17518TIP3   OH274044   6.343   3.547  13.326  0.0009 -0.7425 -0.4637
17518TIP3    H174045   6.398   3.611  13.281 -1.2273 -0.6994 -1.9678
17518TIP3    H274046   6.355   3.568  13.419  0.9393  0.5598 -0.8357
17519TIP3   OH274047   3.303   6.028   5.585  0.3243  0.0166  0.4657
17519TIP3    H174048   3.298   6.120   5.559  1.1642 -0.1033 -0.1272
17519TIP3    H274049   3.262   6.027   5.672 -0.1584  0.8555  0.2702
17520TIP3   OH274050   3.375   5.327   2.045  0.3468  0.6230  0.0770
17520TIP3    H174051   3.301   5.274   2.016  0.2804  0.6959  0.1119
17520TIP3    H274052   3.395   5.295   2.133  0.9904 -0.0663 -0.3075
17521TIP3   OH274053   5.138   4.062   3.586  0.4472 -0.5780 -0.7147
17521TIP3    H174054   5.094   3.984   3.554  1.9907 -1.6481 -0.3029
17521TIP3    H274055   5.147   4.118   3.509  1.2255 -1.7385 -1.4983
17522TIP3   OH274056   2.102   4.349   0.330 -0.0557 -0.3297 -0.1519
17522TIP3    H174057   2.124   4.270   0.378 -0.4842 -1.0974 -1.1712
17522TIP3    H274058   2.155   4.345   0.250 -0.1151  0.3900 -0.2377
17523TIP3   OH274059   1.439   1.436   4.156  0.3986  0.1041 -0.0604
17523TIP3    H174060   1.482   1.379   4.092 -0.0306 -2.7738  1.9938
17523TIP3    H274061   1.501   1.442   4.228 -0.9353 -0.7293  1.2197
17524TIP3   OH274062   6.350   2.607  15.336 -0.3417  0.0011  0.1105
17524TIP3    H174063   6.304   2.535  15.380 -0.4503  1.2766  2.2177
17524TIP3    H274064   6.390   2.656  15.407 -1.3940  2.8128 -1.1130
17525TIP3   OH274065   0.803   4.481   3.158  0.0757 -0.7386  0.0541
17525TIP3    H174066   0.876   4.438   3.201  0.4732  0.7201  0.9093
17525TIP3    H274067   0.731   4.476   3.220  0.6567  1.3885  0.9864
17526TIP3   OH274068   6.679   5.168  13.640 -0.1633  0.2340  0.6975
17526TIP3    H174069   6.706   5.078  13.626 -0.7997  0.0030  0.9420
17526TIP3    H274070   6.590   5.162  13.673 -0.0060  0.9265  1.2768
17527TIP3   OH274071   3.491   3.397   3.359 -0.0686 -0.0041  0.3225
17527TIP3    H174072   3.553   3.332   3.391  0.9267  0.3702 -0.7907
17527TIP3    H274073   3.524   3.480   3.392  0.1273  0.2169 -0.4262
17528TIP3   OH274074   6.376   5.888   3.061 -0.0340 -0.6607 -0.2509
17528TIP3    H174075   6.300   5.934   3.025  0.2713 -0.6761 -0.9232
17528TIP3    H274076   6.356   5.795   3.050  0.5130 -0.6627 -1.3721
17529TIP3   OH274077   2.122   6.551  13.580 -0.1617 -0.6841 -0.4356
17529TIP3    H174078   2.164   6.467  13.601 -0.5113 -0.9652 -0.8483
17529TIP3    H274079   2.030   6.537  13.600 -0.2775 -0.5173 -0.8566
17530TIP3   OH274080   4.692   4.691  11.086  0.0081  0.3696 -0.1812
17530TIP3    H174081   4.754   4.697  11.013  0.8316 -3.1000  0.0628
17530TIP3    H274082   4.746   4.703  11.164 -0.0053 -0.5507 -0.0255
17531TIP3   OH274083   4.752   0.864   1.646 -0.4886  0.0072  0.5687
17531TIP3    H174084   4.771   0.772   1.660 -0.2935 -0.1310 -0.5504
17531TIP3    H274085   4.665   0.876   1.684 -0.4479 -0.5860  0.8706
17532TIP3   OH274086   1.240   5.471  16.157 -0.4392 -0.3574 -0.0085
17532TIP3    H174087   1.175   5.510  16.216 -1.2579 -1.3449 -0.2337
17532TIP3    H274088   1.204   5.487  16.069  0.6493  0.8891 -0.2507
17533TIP3   OH274089   5.674   1.630   6.063 -0.0676 -0.0779  0.3383
17533TIP3    H174090   5.631   1.555   6.021  0.5134  0.2429 -0.9039
17533TIP3    H274091   5.725   1.591   6.134 -0.5914 -0.7313  0.3720
17534TIP3   OH274092   6.593   6.007   5.178 -0.7589 -0.5112  0.3622
17534TIP3    H174093   6.661   5.945   5.152 -0.0399 -0.5602  2.1792
17534TIP3    H274094   6.637   6.092   5.181 -0.3421 -0.7179  2.7416
17535TIP3   OH274095   1.710   6.071   6.164  0.8900 -0.3011 -0.4090
17535TIP3    H174096   1.764   6.011   6.112 -1.1240 -0.8774 -1.9729
17535TIP3    H274097   1.645   6.014   6.205  0.1421  0.5781 -0.3397
17536TIP3   OH274098   2.994   1.701   3.721 -0.3471  0.2575 -0.1602
17536TIP3    H174099   2.977   1.663   3.807  0.1970  0.3999  0.0177
17536TIP3    H274100   2.916   1.752   3.700 -0.1879  0.8099  0.5699
17537TIP3   OH274101   2.139   5.865   5.518 -0.3914 -0.1737 -0.1452
17537TIP3    H174102   2.186   5.839   5.597 -1.2283  0.9998  0.7793
17537TIP3    H274103   2.049   5.836   5.533 -0.4144 -0.5655 -0.9889
17538TIP3   OH274104   4.540   4.611   1.465  0.1912  0.2964  0.1883
17538TIP3    H174105   4.446   4.593   1.455 -0.0988  0.9098  1.5669
17538TIP3    H274106   4.563   4.571   1.548  1.3132 -0.3521 -0.4153
17539TIP3   OH274107   4.432   6.667  15.320 -0.6545  0.8793 -0.1165
17539TIP3    H174108   4.523   6.677  15.291  0.1868 -0.0569  1.9888
17539TIP3    H274109   4.411   6.750  15.363 -0.0530  0.3508  1.2244
17540TIP3   OH274110   2.409   4.719   5.690 -0.4583  0.3744 -0.9061
17540TIP3    H174111   2.469   4.755   5.756  1.1991 -0.3475 -1.9698
17540TIP3    H274112   2.368   4.644   5.734 -1.0225  1.1944  0.0135
17541TIP3   OH274113   1.604   4.388  15.365  0.6039 -0.1918  0.2546
17541TIP3    H174114   1.681   4.337  15.391  0.8826 -0.0261 -0.2507
17541TIP3    H274115   1.607   4.466  15.420  1.3653  0.3065 -0.4741
17542TIP3   OH274116   6.503   0.751  16.316  0.5476  0.8685  0.2101
17542TIP3    H174117   6.429   0.751  16.255 -0.5884 -2.4268  1.4179
17542TIP3    H274118   6.572   0.703  16.270 -0.6928 -2.6442  1.7251
17543TIP3   OH274119   3.809   1.916   4.732  0.1742  0.1392  0.2460
17543TIP3    H174120   3.861   1.838   4.751 -2.5005 -1.7074  0.5210
17543TIP3    H274121   3.825   1.974   4.806  0.4049 -1.1674  1.2504
17544TIP3   OH274122   6.600   3.284   0.034 -0.4253  0.2705  0.0121
17544TIP3    H174123   6.605   3.231   0.114 -0.3711  0.7393  0.3205
17544TIP3    H274124   6.513   3.264  -0.002 -0.8832  0.8689  0.7602
17545TIP3   OH274125   6.549   1.354   6.264 -0.8451 -0.1349  0.0094
17545TIP3    H174126   6.574   1.282   6.320  1.9907 -0.0605 -1.0235
17545TIP3    H274127   6.593   1.431   6.301  0.9174 -0.0506 -2.0922
17546TIP3   OH274128   6.392   3.206   1.188  0.7612  0.0782 -0.0646
17546TIP3    H174129   6.298   3.197   1.206  0.6054  0.9556 -0.3847
17546TIP3    H274130   6.429   3.120   1.210 -0.4014 -0.9169 -1.7714
17547TIP3   OH274131   1.409   0.004   6.388  0.1399  0.3878  0.2767
17547TIP3    H174132   1.376   0.009   6.478 -1.1532 -2.3064  0.0647
17547TIP3    H274133   1.471  -0.069   6.389  1.2713  1.3029 -0.7179
17548TIP3   OH274134   6.325   1.189   4.693  0.0215  0.5163 -0.4294
17548TIP3    H174135   6.261   1.230   4.634 -1.5979 -0.8938  0.2510
17548TIP3    H274136   6.342   1.255   4.759  2.2676  2.3380 -2.6329
17549TIP3   OH274137   0.238   4.965   2.784  0.0249 -0.1602  0.0273
17549TIP3    H174138   0.160   4.994   2.737 -0.7176 -0.3479  1.1087
17549TIP3    H274139   0.269   4.889   2.735 -0.8271 -0.4528 -0.0616
17550TIP3   OH274140   5.076   4.767  14.610  0.4620  0.1438 -0.1893
17550TIP3    H174141   5.102   4.750  14.519  3.2857 -3.0164  0.9937
17550TIP3    H274142   5.022   4.691  14.633  1.6821 -0.3056  1.3477
17551TIP3   OH274143   4.994   5.796   1.733  0.3789  0.2566 -0.7649
17551TIP3    H174144   4.993   5.836   1.646 -0.9188 -1.7222 -1.7171
17551TIP3    H274145   5.070   5.737   1.732  0.2383  0.0731 -0.6307
17552TIP3   OH274146   5.905   4.749   3.853  0.1728  0.4018  0.3489
17552TIP3    H174147   5.880   4.819   3.915 -1.6283  0.2935 -0.1878
17552TIP3    H274148   5.855   4.673   3.882 -0.1582  0.1601 -0.8198
17553TIP3   OH274149   1.751   6.210   4.689 -0.0228  0.0247  0.0879
17553TIP3    H174150   1.718   6.140   4.633  1.5455 -0.5956 -0.0954
17553TIP3    H274151   1.674   6.239   4.738 -0.6098 -2.2887  0.6574
17554TIP3   OH274152   3.145   5.970  13.314  0.4972  0.0104 -0.2826
17554TIP3    H174153   3.222   5.916  13.303  1.0027  0.3694  1.2770
17554TIP3    H274154   3.163   6.049  13.263  0.3936 -0.6348 -1.3369
17555TIP3   OH274155   0.701   3.439  11.985 -0.1547  0.1863  0.2711
17555TIP3    H174156   0.792   3.465  11.999  0.1863 -0.0607 -1.3344
17555TIP3    H274157   0.663   3.435  12.074  1.0221  1.5756  0.8747
17556TIP3   OH274158   1.516   1.172   2.478  0.3115  0.4747  0.0315
17556TIP3    H174159   1.593   1.182   2.422 -0.7393  2.3772 -1.1929
17556TIP3    H274160   1.527   1.237   2.546  0.2623  0.0403  0.4593
17557TIP3   OH274161   4.679   2.796  14.292 -0.0779  0.2153  0.6668
17557TIP3    H174162   4.623   2.802  14.215  0.3345  3.0801  0.4703
17557TIP3    H274163   4.739   2.724  14.272 -0.0642  0.7912 -1.6665
17558TIP3   OH274164   6.099   3.977   1.296  0.0754  0.2637  0.5006
17558TIP3    H174165   6.161   4.050   1.295  1.4056 -0.8226  0.6920
17558TIP3    H274166   6.034   4.003   1.361 -0.3350  1.9279 -0.5172
17559TIP3   OH274167   4.017   1.594   6.185 -0.1299  0.1628  0.0419
17559TIP3    H174168   4.104   1.577   6.220  0.1797  0.1255 -0.7228
17559TIP3    H274169   4.007   1.689   6.192  0.1244  0.2092 -0.2076
17560TIP3   OH274170   6.421   5.378  10.442 -0.3229  0.1506  0.7685
17560TIP3    H174171   6.470   5.375  10.524 -2.2327  1.0662  2.0063
17560TIP3    H274172   6.352   5.313  10.452 -0.1992 -0.1761 -0.3881
17561TIP3   OH274173   5.803   4.240  11.176 -0.1959  1.1393  0.8218
17561TIP3    H174174   5.866   4.276  11.238  1.0448  1.3775 -0.5186
17561TIP3    H274175   5.795   4.148  11.201  0.9205  1.0342  0.8498
17562TIP3   OH274176   5.805   4.062  12.690 -0.1272  0.0617  0.0248
17562TIP3    H174177   5.847   4.060  12.604  1.5998  1.0472  0.7836
17562TIP3    H274178   5.757   3.980  12.696 -0.4569  0.0740 -1.9594
17563TIP3   OH274179   6.644   1.500  16.516  0.3398 -0.1209 -0.2105
17563TIP3    H174180   6.571   1.514  16.577  0.2917 -0.5843 -0.1578
17563TIP3    H274181   6.716   1.470  16.572  0.5189  0.1636 -0.2858
17564TIP3   OH274182   2.761   3.360   4.489 -0.1860 -0.0741  0.2095
17564TIP3    H174183   2.783   3.449   4.517  0.5875 -0.1531 -0.1367
17564TIP3    H274184   2.704   3.327   4.558 -1.1145  0.9575 -0.0358
17565TIP3   OH274185   0.554   4.170  11.374 -0.3828  0.1575  0.2529
17565TIP3    H174186   0.573   4.087  11.330  0.8641 -0.5489  2.0505
17565TIP3    H274187   0.463   4.161  11.402 -1.3363  0.7477 -2.3008
17566TIP3   OH274188   0.923   2.973  10.625 -0.0167 -0.2005  0.4329
17566TIP3    H174189   1.011   2.988  10.658  1.2056 -0.1022 -2.5469
17566TIP3    H274190   0.906   2.880  10.642  1.5604 -0.7525 -0.7904
17567TIP3   OH274191   4.145   1.888   0.780  0.0934  0.3184  0.5491
17567TIP3    H174192   4.227   1.921   0.741  0.5713 -1.2447  0.1679
17567TIP3    H274193   4.156   1.903   0.874  1.5421 -1.2708  0.6917
17568TIP3   OH274194   1.436   3.761   5.793 -0.6193  0.4914 -0.1765
17568TIP3    H174195   1.510   3.732   5.739 -1.4700 -1.3846 -0.4135
17568TIP3    H274196   1.474   3.776   5.880  0.1793  0.2712 -0.4781
17569TIP3   OH274197   2.492   6.699  15.414  0.6090  0.3901 -0.5566
17569TIP3    H174198   2.404   6.708  15.379  0.0427  0.0160  0.7312
17569TIP3    H274199   2.486   6.733  15.503  1.6353 -0.1491 -0.2666
17570TIP3   OH274200   2.086   3.695   4.951 -0.6485 -0.2133  0.1092
17570TIP3    H174201   2.030   3.757   4.904  0.3618  0.8084  0.2181
17570TIP3    H274202   2.100   3.736   5.037  3.6730  1.7334 -1.2843
17571TIP3   OH274203   0.031   1.274   1.034 -0.3557  0.0597  0.3143
17571TIP3    H174204   0.073   1.311   0.956  2.1160  1.4499  2.1541
17571TIP3    H274205  -0.016   1.348   1.073 -2.0479 -0.7607 -0.0731
17572TIP3   OH274206   0.696   5.745  13.280 -0.1647  0.1117 -0.1034
17572TIP3    H174207   0.737   5.728  13.365  0.2445 -0.5935 -0.4319
17572TIP3    H274208   0.602   5.745  13.299 -0.0511  1.4463  0.6036
17573TIP3   OH274209   1.958   0.594   2.842  0.0504 -0.7904 -0.2611
17573TIP3    H174210   1.887   0.540   2.807 -0.2735 -0.6293  0.1350
17573TIP3    H274211   2.029   0.532   2.860 -0.7574 -1.2943  1.3668
17574TIP3   OH274212   2.330   6.094  12.803 -0.3957 -0.4224  0.2369
17574TIP3    H174213   2.424   6.078  12.807 -0.0265  1.4431 -0.1876
17574TIP3    H274214   2.315   6.126  12.714 -1.5042 -1.0345  0.1821
17575TIP3   OH274215   4.703   0.050   4.030 -0.5638  0.0568 -0.3265
17575TIP3    H174216   4.667   0.136   4.012 -1.5099 -0.3419 -0.3882
17575TIP3    H274217   4.645  -0.011   3.985  1.7507 -0.4895 -2.8351
17576TIP3   OH274218   4.479   3.290   1.733 -0.5176 -0.2623  0.4468
17576TIP3    H174219   4.428   3.255   1.806 -0.2560  0.9401  1.2366
17576TIP3    H274220   4.428   3.270   1.655 -1.8811  0.3541  1.1585
17577TIP3   OH274221   0.157   5.006   2.061 -0.1865  0.1227  0.2921
17577TIP3    H174222   0.147   5.076   1.997  1.8149  0.0279 -0.1903
17577TIP3    H274223   0.180   5.052   2.142  0.6619  0.0812  0.0878
17578TIP3   OH274224   0.775   1.713   4.991  0.4733 -0.4540  0.2928
17578TIP3    H174225   0.774   1.774   5.065  0.0975 -0.6281  0.4372
17578TIP3    H274226   0.865   1.681   4.986  0.4188 -0.6963  0.8847
17579TIP3   OH274227   6.093   1.881   6.208  0.2582 -0.1093 -0.0487
17579TIP3    H174228   6.176   1.928   6.211 -0.0473  0.4663 -0.4704
17579TIP3    H274229   6.064   1.888   6.117 -0.2213 -0.3659  0.0785
17580TIP3   OH274230   5.627   5.594   5.965  0.5227 -0.1274  0.0754
17580TIP3    H174231   5.544   5.589   5.919  0.4687  1.1981  0.0027
17580TIP3    H274232   5.656   5.684   5.954  0.9480 -0.0029  1.8825
17581TIP3   OH274233   0.431   0.622  12.156  0.3315 -0.5471  0.3708
17581TIP3    H174234   0.351   0.667  12.128  0.2628 -1.2980 -0.6752
17581TIP3    H274235   0.402   0.536  12.185  0.5331 -0.1392  1.8712
17582TIP3   OH274236   5.727   6.554   4.444 -0.2868  0.1662 -0.1279
17582TIP3    H174237   5.692   6.497   4.375  0.3512 -1.9510  1.2047
17582TIP3    H274238   5.711   6.642   4.411 -3.3122 -0.6781 -1.3230
17583TIP3   OH274239   2.672   6.662  16.606 -0.2474 -0.2386  0.3521
17583TIP3    H174240   2.671   6.654  16.701  1.5356 -1.0081  0.3623
17583TIP3    H274241   2.739   6.728  16.588  0.5427 -1.2106 -0.3876
17584TIP3   OH274242   2.846   2.138  12.951  0.0428 -0.5188  0.1200
17584TIP3    H174243   2.777   2.097  13.003 -1.3928 -1.9613 -2.6908
17584TIP3    H274244   2.883   2.066  12.900  2.5074  0.5331  0.2989
17585TIP3   OH274245   3.711   6.116  12.459  0.0674  0.2602  0.5780
17585TIP3    H174246   3.623   6.146  12.438 -0.1252 -0.6584  0.0035
17585TIP3    H274247   3.757   6.194  12.487 -1.0090  0.7096  1.1551
17586TIP3   OH274248   4.959   2.206  16.058  0.0540 -0.2999  0.1311
17586TIP3    H174249   5.020   2.132  16.063  1.3626  0.6520 -0.9087
17586TIP3    H274250   5.004   2.278  16.103  0.0342  0.5984 -1.1971
17587TIP3   OH274251   6.240   4.330   3.459  0.1998  0.3779 -0.4328
17587TIP3    H174252   6.240   4.370   3.547  0.9565  1.1542 -0.7692
17587TIP3    H274253   6.311   4.374   3.413 -0.2768  0.0687 -1.4907
17588TIP3   OH274254   5.451   2.253   0.176 -0.1840  0.0244 -0.0870
17588TIP3    H174255   5.357   2.243   0.163 -0.1577  0.6906 -0.8422
17588TIP3    H274256   5.488   2.171   0.145 -0.6005 -0.7121  1.3111
17589TIP3   OH274257   0.370   5.281   4.743  0.0879  0.3740  0.6420
17589TIP3    H174258   0.333   5.368   4.753 -0.1276  0.5228 -1.2021
17589TIP3    H274259   0.460   5.296   4.714 -1.0207  0.1498 -3.6622
17590TIP3   OH274260   5.787   0.929  14.646  0.1134 -0.4517 -0.6817
17590TIP3    H174261   5.771   0.910  14.553 -1.2742 -0.5984 -0.4314
17590TIP3    H274262   5.814   1.020  14.647  0.7840 -0.6285 -1.2859
17591TIP3   OH274263   5.562   3.523  14.919  0.4503 -0.2052  0.0503
17591TIP3    H174264   5.642   3.539  14.969  0.2899 -0.8664  0.5435
17591TIP3    H274265   5.592   3.499  14.832  0.8416 -1.2526  0.4552
17592TIP3   OH274266   6.664   0.451   0.303  0.3582  0.0663  0.0576
17592TIP3    H174267   6.588   0.393   0.306  0.8160 -0.5184  0.7713
17592TIP3    H274268   6.727   0.406   0.247 -0.1094  0.9313 -1.1970
17593TIP3   OH274269   4.946   1.863   1.443  0.1945 -0.6921 -0.3369
17593TIP3    H174270   4.864   1.837   1.399 -0.8962  0.2182  1.0612
17593TIP3    H274271   4.938   1.825   1.530  0.9311  0.0364  0.0543
17594TIP3   OH274272   6.727   4.698   1.523  0.1173 -0.5064  0.6838
17594TIP3    H174273   6.669   4.696   1.599  1.0954 -0.8001  1.4442
17594TIP3    H274274   6.810   4.731   1.557  0.5159 -0.4723 -0.2968
17595TIP3   OH274275   1.437   5.348  12.857  0.1012  0.1502 -0.7214
17595TIP3    H174276   1.409   5.437  12.836  3.1885  0.9584 -1.9898
17595TIP3    H274277   1.527   5.343  12.824  1.2530 -2.3487  2.3277
17596TIP3   OH274278   5.128   0.561  16.564 -0.3567  0.0279 -0.5428
17596TIP3    H174279   5.150   0.598  16.478  1.0810 -1.0415 -0.6680
17596TIP3    H274280   5.042   0.520  16.551 -0.8451  1.1735 -1.0459
17597TIP3   OH274281   3.048   6.523  14.912  0.2398 -0.0353  0.1671
17597TIP3    H174282   3.077   6.445  14.959 -2.2376 -1.6115 -0.7501
17597TIP3    H274283   3.014   6.580  14.980  1.0809 -0.1998  0.7416
17598TIP3   OH274284   4.484   1.945  14.010 -0.6185 -0.4356 -0.5941
17598TIP3    H174285   4.404   1.891  14.012 -0.7336 -0.2554  0.1537
17598TIP3    H274286   4.550   1.888  13.970 -0.8335 -1.0151 -0.1489
17599TIP3   OH274287   6.563   0.927   0.539 -0.0759  0.2094  0.4195
17599TIP3    H174288   6.492   0.912   0.477 -1.0270  0.8738  1.3218
17599TIP3    H274289   6.617   0.848   0.534 -0.4594  0.0082 -0.8147
17600TIP3   OH274290   4.966   2.757  16.784  0.0294  0.2999  0.5086
17600TIP3    H174291   5.026   2.813  16.833 -1.4886  1.6551  0.8961
17600TIP3    H274292   4.925   2.816  16.721  1.1064 -1.1730 -1.7097
17601TIP3   OH274293   5.848   1.920   3.263  0.3922 -0.3612  0.8466
17601TIP3    H174294   5.868   2.012   3.249 -1.6793  0.1434  0.8513
17601TIP3    H274295   5.867   1.878   3.179 -0.9072  0.5306  0.0739
17602TIP3   OH274296   2.970   1.271   5.866  0.4187 -0.8326  0.3539
17602TIP3    H174297   3.014   1.301   5.946  0.6736 -0.5534  0.1095
17602TIP3    H274298   2.879   1.300   5.877  0.2329 -1.5818  0.9477
17603TIP3   OH274299   2.647   1.709  14.241 -0.3099 -0.1057  0.9622
17603TIP3    H174300   2.661   1.802  14.227 -0.1021 -0.3873 -1.0687
17603TIP3    H274301   2.734   1.675  14.262  1.1587 -0.7104 -4.5314
17604TIP3   OH274302   2.556   4.785   5.460 -0.2229 -0.5738 -0.3854
17604TIP3    H174303   2.496   4.754   5.528 -2.4522  2.0825 -0.9706
17604TIP3    H274304   2.510   4.768   5.377  1.1967 -1.2033 -1.0792
17605TIP3   OH274305   1.539   4.963  14.566  0.2591  0.1934 -0.7775
17605TIP3    H174306   1.554   5.011  14.647 -3.7342  0.6791 -0.1259
17605TIP3    H274307   1.526   4.873  14.593  1.5429 -0.1429 -1.2379
17606TIP3   OH274308   2.759   4.507  11.956 -0.1886 -0.4418 -0.0024
17606TIP3    H174309   2.786   4.595  11.929  0.4136 -0.7055 -0.2830
17606TIP3    H274310   2.669   4.517  11.985  0.0928  0.4056  0.6151
17607TIP3   OH274311   4.509   6.616  13.058  0.2740 -0.4356  0.3620
17607TIP3    H174312   4.417   6.643  13.067 -0.3962 -1.8963 -1.4624
17607TIP3    H274313   4.511   6.527  13.092  0.7480 -0.8010 -0.5861
17608TIP3   OH274314   4.066   0.733   5.686  0.1337 -0.2108 -0.1089
17608TIP3    H174315   4.042   0.789   5.759  1.3938  0.6041 -0.2818
17608TIP3    H274316   4.022   0.650   5.703 -3.8682  1.4725 -1.1000
17609TIP3   OH274317   2.139   4.819  15.349 -0.3578  0.0504  0.1478
17609TIP3    H174318   2.182   4.808  15.265 -1.6447 -0.7711 -0.4316
17609TIP3    H274319   2.174   4.749  15.404  0.0460  0.2264  0.1171
17610TIP3   OH274320   3.825   5.947  13.529 -0.3428 -0.3663 -0.0206
17610TIP3    H174321   3.867   5.957  13.443 -0.8740 -1.0549 -0.3759
17610TIP3    H274322   3.732   5.934  13.508 -0.8018  1.4871  0.7708
17611TIP3   OH274323   4.593   1.132  16.213  0.4156 -0.2746  0.5631
17611TIP3    H174324   4.620   1.050  16.171  0.6914  0.3159 -0.4284
17611TIP3    H274325   4.674   1.166  16.252  0.3424 -0.3500  0.7890
17612TIP3   OH274326   2.394   6.183   2.861 -0.6701  0.8142 -0.4991
17612TIP3    H174327   2.315   6.131   2.846  0.2015 -0.9870  0.8314
17612TIP3    H274328   2.461   6.142   2.807 -0.1070  0.9491  0.0888
17613TIP3   OH274329   4.790   2.367   0.943 -0.6639 -0.0362  0.0753
17613TIP3    H174330   4.808   2.446   0.892  0.1447 -0.4595 -0.3152
17613TIP3    H274331   4.746   2.309   0.882 -0.1790 -0.3388  0.0109
17614TIP3   OH274332   5.306   1.090  15.369 -0.4075  0.2389  0.1456
17614TIP3    H174333   5.296   1.042  15.288 -0.1799  1.0864 -0.3973
17614TIP3    H274334   5.392   1.063  15.403 -0.6388 -0.3472  0.2718
17615TIP3   OH274335   5.727   1.228   1.815 -0.5635  0.5215 -0.2861
17615TIP3    H174336   5.814   1.245   1.849 -0.5171  1.2693 -0.7536
17615TIP3    H274337   5.674   1.210   1.892 -0.1891  0.9326  0.0699
17616TIP3   OH274338   3.860   6.214   3.481 -0.1896  0.3647 -0.3271
17616TIP3    H174339   3.887   6.201   3.572 -0.7182 -1.2039 -0.3743
17616TIP3    H274340   3.923   6.278   3.447 -0.2038  1.2528  1.2277
17617TIP3   OH274341   1.612   5.518   1.680  0.3416  0.2608  0.0359
17617TIP3    H174342   1.656   5.511   1.765 -0.0794  0.6561  0.2888
17617TIP3    H274343   1.684   5.524   1.617  0.6568 -0.0850  0.3571
17618TIP3   OH274344   1.549   3.082   0.433  0.3122  0.3905 -0.2170
17618TIP3    H174345   1.471   3.100   0.381  0.8446  3.2891 -0.1821
17618TIP3    H274346   1.621   3.082   0.369  0.5758  0.4869  0.0772
17619TIP3   OH274347   5.137   5.471   5.837  0.5656  0.2549 -0.3152
17619TIP3    H174348   5.107   5.427   5.917 -0.1917 -0.6053 -1.0539
17619TIP3    H274349   5.058   5.479   5.783  1.3848 -0.7610 -1.7167
17620TIP3   OH274350   6.781   0.359  15.738  0.4214  0.8521  0.7547
17620TIP3    H174351   6.729   0.429  15.778 -1.1185 -0.4689  1.1970
17620TIP3    H274352   6.836   0.403  15.674 -1.2299  2.3563  0.2895
17621TIP3   OH274353   4.552   2.597  15.396  0.1099  0.2577 -0.2613
17621TIP3    H174354   4.635   2.598  15.444  0.7422 -1.4130 -1.2448
17621TIP3    H274355   4.487   2.571  15.461  1.1941 -3.6100 -0.5274
17622TIP3   OH274356   2.118   3.620   6.029 -0.6032  0.2425 -0.2578
17622TIP3    H174357   2.062   3.581   5.963 -1.8299  0.3315  0.6778
17622TIP3    H274358   2.148   3.702   5.990  0.8888 -0.9317 -1.7022
17623TIP3   OH274359   4.261   6.093  14.955  0.1485 -0.3419 -0.2592
17623TIP3    H174360   4.333   6.144  14.993  0.8825 -1.5702  0.0670
17623TIP3    H274361   4.305   6.024  14.904 -0.8024 -0.7855 -0.5091
17624TIP3   OH274362   1.603   1.532   2.495 -0.2743  0.4827 -0.1896
17624TIP3    H174363   1.651   1.570   2.421  0.7802 -1.9759 -0.8679
17624TIP3    H274364   1.668   1.521   2.563 -0.2403 -1.1632 -0.4471
17625TIP3   OH274365   4.152   4.601   4.378  0.4427  0.2889  0.7003
17625TIP3    H174366   4.123   4.517   4.342 -1.9810  1.4453 -0.2959
17625TIP3    H274367   4.221   4.578   4.441 -0.3956 -2.4465  0.7519
17626TIP3   OH274368   1.931   1.900  17.084 -0.1133  0.5602  0.2376
17626TIP3    H174369   1.956   1.990  17.063  0.1690  0.5345  0.4536
17626TIP3    H274370   1.843   1.907  17.120 -0.5127  0.6321 -0.7281
17627TIP3   OH274371   5.085   5.250   6.018  0.2080  0.2308  0.0594
17627TIP3    H174372   5.116   5.170   5.976 -0.1594 -0.1485  0.5024
17627TIP3    H274373   5.080   5.229   6.111  1.8118  1.3118  0.4427
17628TIP3   OH274374   3.694   4.361  14.941 -0.2263  0.3126 -0.3171
17628TIP3    H174375   3.738   4.277  14.928  1.1466  1.0193 -0.4506
17628TIP3    H274376   3.602   4.343  14.924  0.1616 -0.9731 -1.2027
17629TIP3   OH274377   3.994   6.492  13.062 -0.2057 -0.0607  0.3112
17629TIP3    H174378   4.010   6.503  12.968 -0.3611  2.5947  0.5222
17629TIP3    H274379   3.916   6.544  13.079  0.3434  0.2483  2.0606
17630TIP3   OH274380   2.458   2.381   1.465 -0.1626  0.0485  0.5910
17630TIP3    H174381   2.443   2.473   1.443 -1.3945 -0.6677 -1.9947
17630TIP3    H274382   2.370   2.344   1.472  0.3236 -0.9287  1.6954
17631TIP3   OH274383   2.217   2.084   0.020 -0.1565  0.3127 -0.0106
17631TIP3    H174384   2.249   2.174   0.031 -1.3812  0.8513 -0.6789
17631TIP3    H274385   2.139   2.080   0.075  0.3638 -0.6229  0.6856
17632TIP3   OH274386   3.064   5.806  10.186  0.7355  0.2105 -0.3310
17632TIP3    H174387   2.970   5.811  10.203  0.2832  0.3901 -2.5480
17632TIP3    H274388   3.103   5.870  10.245 -0.7382  1.3669 -0.5563
17633TIP3   OH274389   1.831   1.766  16.102 -0.1888 -1.0356 -0.3326
17633TIP3    H174390   1.841   1.740  16.193  0.7162 -1.2110 -0.4718
17633TIP3    H274391   1.756   1.826  16.102  0.1715 -0.5722  0.6193
17634TIP3   OH274392   2.419   0.875  16.747 -0.7511 -0.7455  0.2547
17634TIP3    H174393   2.478   0.799  16.738  2.8416  1.7280  0.5200
17634TIP3    H274394   2.407   0.884  16.841 -1.6242 -1.2254  0.2021
17635TIP3   OH274395   4.973   1.637   0.247  0.2307 -0.2789  0.3564
17635TIP3    H174396   5.068   1.647   0.237  0.4464 -2.5187 -0.3611
17635TIP3    H274397   4.962   1.550   0.285 -1.5596 -0.2666 -0.0477
17636TIP3   OH274398   4.283   1.244  13.006  0.5065 -0.4693 -0.2510
17636TIP3    H174399   4.336   1.324  13.009 -0.1837 -0.0276  2.3465
17636TIP3    H274400   4.278   1.222  12.913  0.4263  2.6881 -1.1003
17637TIP3   OH274401   4.469   4.495   5.806 -0.9372  0.2093  0.2736
17637TIP3    H174402   4.476   4.401   5.791  0.4408  0.3994 -0.4483
17637TIP3    H274403   4.496   4.507   5.897 -0.2821 -0.0010  0.1061
17638TIP3   OH274404   4.255   3.111   6.679 -0.2565 -0.2021  0.5381
17638TIP3    H174405   4.228   3.150   6.762  1.9426 -0.6137  1.5111
17638TIP3    H274406   4.347   3.089   6.692  0.7877  1.6344 -2.7194
17639TIP3   OH274407   4.020   6.763  14.916  0.7205  0.4349 -0.5082
17639TIP3    H174408   4.014   6.726  14.828  1.7652  0.6491 -0.6845
17639TIP3    H274409   4.001   6.690  14.974  1.0523  0.0334 -0.8945
17640TIP3   OH274410   0.928   4.444   4.981 -0.3281 -0.7162  0.7420
17640TIP3    H174411   0.918   4.435   5.075 -1.4404 -2.0194  0.5256
17640TIP3    H274412   0.881   4.370   4.944 -2.1411  1.1437 -0.9556
17641TIP3   OH274413   3.287   2.885  10.487 -0.2082  0.3366 -0.9384
17641TIP3    H174414   3.245   2.970  10.504 -0.3134 -0.0085  0.6763
17641TIP3    H274415   3.215   2.823  10.485 -0.0274  0.1282 -0.9847
17642TIP3   OH274416   3.096   0.430  15.368  0.6911  0.6013 -0.0354
17642TIP3    H174417   3.026   0.432  15.434  0.9635  0.5545  0.2606
17642TIP3    H274418   3.061   0.378  15.297  0.1309  1.2164 -0.2224
17643TIP3   OH274419   2.879   5.237   3.100  0.0634  0.6018  0.1389
17643TIP3    H174420   2.943   5.308   3.088 -0.9443  1.2973 -1.3871
17643TIP3    H274421   2.815   5.273   3.161 -0.8349  1.3170 -1.1848
17644TIP3   OH274422   6.275   6.396  13.530 -0.1396  0.2217  0.0665
17644TIP3    H174423   6.194   6.444  13.514  0.0011  0.9612  1.4062
17644TIP3    H274424   6.247   6.309  13.557 -0.3846 -0.9357 -3.4760
17645TIP3   OH274425   1.529   5.255  16.478  0.0489 -0.0131  0.7437
17645TIP3    H174426   1.559   5.262  16.387  0.4983 -0.2385  0.8722
17645TIP3    H274427   1.462   5.323  16.486  1.1374  1.1092  0.6979
17646TIP3   OH274428   0.830   2.391  17.046  0.1870 -0.0893 -0.7956
17646TIP3    H174429   0.917   2.350  17.050 -0.0747 -0.7887 -1.8919
17646TIP3    H274430   0.789   2.368  17.130  1.2239  0.6728 -0.0475
17647TIP3   OH274431   3.177   6.147   2.445 -0.2301  0.4784 -0.0238
17647TIP3    H174432   3.118   6.206   2.398 -0.1856  0.6622  0.1525
17647TIP3    H274433   3.262   6.159   2.402 -0.2793  0.3560 -0.1531
17648TIP3   OH274434   6.583   1.639   5.429 -0.0063  0.0489  0.3638
17648TIP3    H174435   6.648   1.588   5.478  1.1277  0.9368 -0.1583
17648TIP3    H274436   6.610   1.630   5.337 -0.6024  0.4530  0.1434
17649TIP3   OH274437   5.718   0.462   4.642 -0.3802  0.0310 -0.4649
17649TIP3    H174438   5.640   0.434   4.689 -0.0751 -1.1684 -0.6327
17649TIP3    H274439   5.785   0.469   4.710  0.0585 -1.6938 -0.6612
17650TIP3   OH274440   2.753   5.290  15.850  0.2599 -0.2383 -0.2135
17650TIP3    H174441   2.748   5.375  15.807  2.3556 -0.0815 -0.2863
17650TIP3    H274442   2.703   5.301  15.931  0.3088  0.9989 -0.3343
17651TIP3   OH274443   5.517   1.939   5.647  0.0103 -0.3157  0.5167
17651TIP3    H174444   5.427   1.918   5.672 -0.5492 -0.1822 -1.2771
17651TIP3    H274445   5.538   2.017   5.698 -1.5372  0.7053 -0.3306
17652TIP3   OH274446   6.076   5.906  16.312 -0.0875  0.2463 -0.3185
17652TIP3    H174447   6.042   5.872  16.395 -0.2377  1.5530  0.1841
17652TIP3    H274448   6.139   5.841  16.284  0.2240 -0.0603  1.0057
17653TIP3   OH274449   6.569   0.707  12.761 -0.4220  0.0973 -0.0803
17653TIP3    H174450   6.561   0.625  12.808 -0.3215  1.3609  2.3052
17653TIP3    H274451   6.648   0.748  12.795 -0.4272  1.1707 -1.2500
17654TIP3   OH274452   1.916   6.677   4.644 -0.4021 -0.0712 -0.2688
17654TIP3    H174453   1.923   6.583   4.624 -0.0517 -0.3017  0.8511
17654TIP3    H274454   1.920   6.720   4.559 -1.2577 -1.1120 -0.8589
17655TIP3   OH274455   6.796   0.332  16.924 -0.3528 -0.0138  0.1645
17655TIP3    H174456   6.758   0.353  16.839  1.2173 -0.5594 -0.7018
17655TIP3    H274457   6.729   0.360  16.987 -2.0245 -0.6029 -1.2592
17656TIP3   OH274458   0.182   3.927  12.316  0.2464 -0.2672 -0.5175
17656TIP3    H174459   0.092   3.923  12.282 -0.5435 -0.1387  1.4458
17656TIP3    H274460   0.179   3.877  12.397  2.7181 -2.9749 -1.8882
17657TIP3   OH274461   4.863   2.410  10.902  0.6419  0.2375  0.5879
17657TIP3    H174462   4.882   2.324  10.862  0.4895 -0.1395  1.3077
17657TIP3    H274463   4.911   2.472  10.848 -1.6360  0.0749 -1.8635
17658TIP3   OH274464   3.595   0.295  16.900 -0.8494  0.2470  0.4970
17658TIP3    H174465   3.689   0.300  16.919 -1.0718  0.0452  1.7973
17658TIP3    H274466   3.553   0.299  16.986 -2.0022 -0.4124 -0.0025
17659TIP3   OH274467   4.043   0.362  15.958 -0.3711 -0.5434  0.3599
17659TIP3    H174468   4.071   0.271  15.961  1.2041 -0.0741  0.6357
17659TIP3    H274469   3.960   0.360  15.910  0.0151 -2.0326 -0.2967
17660TIP3   OH274470   0.015   2.451  15.784 -0.1202 -0.8855 -0.3796
17660TIP3    H174471   0.094   2.444  15.838 -0.0240  1.3574 -0.1338
17660TIP3    H274472   0.036   2.404  15.704  1.2766 -0.7913 -0.0891
17661TIP3   OH274473   5.022   1.573   0.570 -0.4539 -0.3655 -0.1022
17661TIP3    H174474   5.052   1.604   0.485 -1.1155 -1.3040 -0.7010
17661TIP3    H274475   4.943   1.522   0.551 -0.0053 -1.5158  0.9378
17662TIP3   OH274476   4.421   5.892   0.036  0.1984 -0.3077 -0.2006
17662TIP3    H174477   4.407   5.846  -0.047  2.3587 -0.3116 -0.6263
17662TIP3    H274478   4.441   5.982   0.011 -1.3857  0.2851  0.4954
17663TIP3   OH274479   4.017   4.366   4.323 -0.2019 -0.6066 -0.1384
17663TIP3    H174480   3.934   4.384   4.279  0.3122  0.6737 -0.6196
17663TIP3    H274481   3.991   4.321   4.404 -1.3121 -0.8369 -0.5968
17664TIP3   OH274482   0.854   2.419   2.230  0.0824  0.3774 -0.2320
17664TIP3    H174483   0.916   2.388   2.296  2.1698  1.7818 -1.4124
17664TIP3    H274484   0.801   2.343   2.209  0.5711 -0.5622  1.7230
17665TIP3   OH274485   1.343   1.716  10.318  0.4204  0.2514 -0.2338
17665TIP3    H174486   1.331   1.786  10.254 -1.8692  0.7365  0.6344
17665TIP3    H274487   1.371   1.761  10.397  2.9667 -0.3206 -0.7124
17666TIP3   OH274488   1.551   2.798  11.412  1.1221  0.4246 -0.4563
17666TIP3    H174489   1.579   2.885  11.381 -1.4570  1.3677 -0.4228
17666TIP3    H274490   1.522   2.813  11.502 -0.8706 -0.0691 -0.9692
17667TIP3   OH274491   3.207   0.553  15.599  0.3147  0.2296 -0.4951
17667TIP3    H174492   3.148   0.568  15.673 -0.1713  1.5133 -1.1177
17667TIP3    H274493   3.169   0.478  15.553  0.4259 -0.3582  0.3498
17668TIP3   OH274494   2.936   4.788  13.292  0.3384 -0.0225 -0.2401
17668TIP3    H174495   2.866   4.769  13.355  0.0611 -1.3625 -0.9206
17668TIP3    H274496   2.976   4.868  13.326 -1.2116  0.5294  0.4232
17669TIP3   OH274497   4.203   1.761  14.815  0.2529 -0.5213  0.0100
17669TIP3    H174498   4.185   1.810  14.735  0.1889  1.1787  1.0050
17669TIP3    H274499   4.118   1.754  14.859  0.2493 -1.6239 -0.1516
17670TIP3   OH274500   6.709   3.012   6.282  0.0576 -0.8621  0.2759
17670TIP3    H174501   6.762   3.034   6.358  0.5029  0.1329 -0.3081
17670TIP3    H274502   6.729   2.919   6.266  0.9465 -0.7428  0.6070
17671TIP3   OH274503   1.435   3.116  13.646 -0.2003 -0.0076  0.6801
17671TIP3    H174504   1.419   3.180  13.577  0.9801  0.2135  0.5870
17671TIP3    H274505   1.450   3.168  13.725 -1.8328 -0.2682  1.1853
17672TIP3   OH274506   3.741   1.531   3.953 -0.1630 -0.2587 -0.8193
17672TIP3    H174507   3.727   1.446   3.995  2.6324 -0.2801  0.2277
17672TIP3    H274508   3.778   1.586   4.021 -2.6733  2.1693 -1.2413
17673TIP3   OH274509   3.072   5.170   3.598  0.3073 -0.3771 -0.2619
17673TIP3    H174510   3.142   5.221   3.639  0.8187 -1.4641  0.2659
17673TIP3    H274511   3.010   5.153   3.669  0.4415 -0.9913 -0.2880
17674TIP3   OH274512   0.533   0.369  16.611  0.7179  0.7458  0.0245
17674TIP3    H174513   0.460   0.373  16.549 -0.5727 -0.5227  1.3659
17674TIP3    H274514   0.523   0.283  16.654  0.6799  2.1006  2.9454
17675TIP3   OH274515   2.422   3.986  11.749  0.0444  0.4023 -0.0036
17675TIP3    H174516   2.470   4.005  11.668 -1.2575  0.8742 -0.6996
17675TIP3    H274517   2.352   4.052  11.751 -1.6761 -1.3243  0.0138
17676TIP3   OH274518   3.367   6.358   4.347 -0.3379  0.1783 -0.5127
17676TIP3    H174519   3.369   6.271   4.306 -2.6597  0.0588 -0.4666
17676TIP3    H274520   3.406   6.344   4.433 -0.5873 -0.8089 -0.5442
17677TIP3   OH274521   4.751   3.627  14.422 -0.1998  0.6441 -0.8726
17677TIP3    H174522   4.743   3.668  14.335 -1.1349  2.9267  0.1974
17677TIP3    H274523   4.661   3.617  14.451  0.1185  2.0073  0.7132
17678TIP3   OH274524   1.599   0.383  14.500  0.4602  0.2473  0.4792
17678TIP3    H174525   1.562   0.301  14.534 -0.4727  0.1732 -0.6403
17678TIP3    H274526   1.539   0.451  14.532  0.6112  0.3732  0.4964
17679TIP3   OH274527   0.079   6.441  16.904 -0.3899  0.7009 -0.2829
17679TIP3    H174528   0.029   6.391  16.968  0.4375 -0.4375 -0.4950
17679TIP3    H274529   0.151   6.479  16.953 -1.0849  1.8162 -0.0999
17680TIP3   OH274530   5.885   3.715   1.399  0.1355  0.3529  0.1365
17680TIP3    H174531   5.926   3.787   1.446  0.0867  0.8805 -0.6001
17680TIP3    H274532   5.950   3.645   1.400 -0.6938 -0.4715  2.8681
17681TIP3   OH274533   6.161   0.735   2.155 -0.5952 -0.0382 -0.1054
17681TIP3    H174534   6.072   0.703   2.168 -1.1385  1.4583  0.1108
17681TIP3    H274535   6.185   0.774   2.239 -0.6547  1.6267 -0.8199
17682TIP3   OH274536   3.648   3.285   0.465 -0.2453 -0.0845 -0.0816
17682TIP3    H174537   3.624   3.237   0.386  0.3925 -0.7455  0.1078
17682TIP3    H274538   3.740   3.308   0.452  0.0559 -0.7818  0.7407
17683TIP3   OH274539   1.280   6.691   2.625  0.0190 -0.0914  0.3662
17683TIP3    H174540   1.220   6.631   2.669  0.3917 -0.1228  0.8423
17683TIP3    H274541   1.363   6.643   2.620  0.1729  0.1837  0.2702
17684TIP3   OH274542   6.037   1.717   4.000 -0.2585  0.2684  0.6004
17684TIP3    H174543   6.106   1.784   3.998 -0.0758  0.0571 -0.2388
17684TIP3    H274544   6.024   1.700   4.093  0.4009  0.7454  0.7884
17685TIP3   OH274545   0.943   5.837   4.445  0.5166  0.2731 -0.5852
17685TIP3    H174546   0.863   5.885   4.423  0.9066  0.3026 -2.0573
17685TIP3    H274547   1.014   5.894   4.418  1.1138  0.6965  1.6625
17686TIP3   OH274548   2.447   1.112   0.570 -0.1708 -0.2356  0.0401
17686TIP3    H174549   2.364   1.075   0.540  0.2167 -0.9608 -0.1503
17686TIP3    H274550   2.498   1.037   0.600  0.2533  0.2550  0.5704
17687TIP3   OH274551   6.520   5.750  15.837 -0.0102 -0.0627  0.1935
17687TIP3    H174552   6.549   5.747  15.929 -1.5892 -0.9290  0.6981
17687TIP3    H274553   6.463   5.826  15.833  0.9321  0.6328 -0.3723
17688TIP3   OH274554   6.414   1.774  13.821  0.5996 -0.5857  0.1137
17688TIP3    H174555   6.437   1.694  13.772  0.1445  0.1849 -1.4111
17688TIP3    H274556   6.321   1.787  13.803  0.7655  0.5125  0.0225
17689TIP3   OH274557   1.276   2.373   5.310 -0.1913 -0.0969  0.1863
17689TIP3    H174558   1.298   2.451   5.360  0.5827  0.3783 -0.8413
17689TIP3    H274559   1.236   2.314   5.373 -1.2413  1.3120  0.8796
17690TIP3   OH274560   3.049   0.134   1.255 -0.0548  0.5366 -0.7456
17690TIP3    H174561   3.022   0.161   1.343  1.4178 -1.3226  0.3563
17690TIP3    H274562   3.133   0.178   1.241  0.1959  0.0455 -0.7971
17691TIP3   OH274563   5.546   6.340  14.502  0.2209 -0.5813 -0.3308
17691TIP3    H174564   5.464   6.353  14.455  0.8117  1.9015 -0.8072
17691TIP3    H274565   5.582   6.428  14.513  2.4816 -1.5287  0.5135
17692TIP3   OH274566   4.929   3.160   5.561 -0.7137  0.1235  0.1717
17692TIP3    H174567   5.005   3.146   5.617 -2.2377 -0.3040  2.2343
17692TIP3    H274568   4.914   3.255   5.564 -1.0033  0.0614  0.8105
17693TIP3   OH274569   3.770   3.110  16.604  0.0378  0.1790 -0.3736
17693TIP3    H174570   3.773   3.040  16.669  0.7286  0.6138  0.0835
17693TIP3    H274571   3.804   3.070  16.524  0.7309  0.0713 -0.0339
17694TIP3   OH274572   3.128   3.222   5.866 -0.0606 -0.5799  0.3575
17694TIP3    H174573   3.214   3.238   5.829 -1.0016  0.4371 -1.5135
17694TIP3    H274574   3.145   3.199   5.958  2.5083 -4.6688 -0.8640
17695TIP3   OH274575   1.876   4.748   2.560 -0.4547  0.4731  0.2685
17695TIP3    H174576   1.970   4.760   2.544 -0.6248  0.6203 -0.7024
17695TIP3    H274577   1.872   4.685   2.632  0.3918 -0.3202 -0.3450
17696TIP3   OH274578   2.465   2.359   2.291 -0.4847 -0.4589  0.7091
17696TIP3    H174579   2.504   2.394   2.371  1.1953 -1.4852  0.3859
17696TIP3    H274580   2.463   2.434   2.231  0.6876 -0.2865  0.8595
17697TIP3   OH274581   5.157   0.036   4.863  0.0976 -0.5763 -0.1204
17697TIP3    H174582   5.061   0.035   4.851  0.0583  2.5181 -1.0052
17697TIP3    H274583   5.188  -0.036   4.808 -1.7785 -3.2856  2.1095
17698TIP3   OH274584   1.820   5.170   3.787 -0.1435 -0.2135 -0.2905
17698TIP3    H174585   1.909   5.194   3.760  0.1721  0.5791  1.3444
17698TIP3    H274586   1.766   5.193   3.711  0.7730  1.3678 -0.5203
17699TIP3   OH274587   2.317   3.547   4.279 -1.0216  0.3216  0.0180
17699TIP3    H174588   2.386   3.496   4.238  0.5784  1.6045  0.9994
17699TIP3    H274589   2.326   3.532   4.373 -2.3724  0.1713  0.1514
17700TIP3   OH274590   2.583   1.014  12.269 -0.1322  0.1131 -0.4306
17700TIP3    H174591   2.556   0.981  12.183  0.4468 -1.2906 -0.1015
17700TIP3    H274592   2.571   0.939  12.328  3.0403 -0.2127  0.0063
17701TIP3   OH274593   0.762   0.955  16.398 -0.1523  0.2431 -0.6417
17701TIP3    H174594   0.792   0.967  16.489  2.9119 -2.6401 -1.0650
17701TIP3    H274595   0.668   0.944  16.405  0.0214 -0.2963  2.2548
17702TIP3   OH274596   0.331   5.147   4.982 -0.1486  0.2261  0.0855
17702TIP3    H174597   0.330   5.230   5.031 -0.4598 -0.2457  0.9099
17702TIP3    H274598   0.319   5.173   4.891  0.2151  1.1215  0.2739
17703TIP3   OH274599   5.373   2.617  12.542 -0.3021 -0.1572  0.5556
17703TIP3    H174600   5.320   2.687  12.505  0.9066  0.4254 -0.1582
17703TIP3    H274601   5.366   2.545  12.480  1.8317  0.8638 -1.0305
17704TIP3   OH274602   6.394   6.293   4.732  0.0890  0.5729  0.2745
17704TIP3    H174603   6.452   6.217   4.737  1.1039  1.3001 -0.1547
17704TIP3    H274604   6.410   6.330   4.646 -0.9513  0.8566  0.1863
17705TIP3   OH274605   2.081   4.093  12.208 -0.3827 -0.2678  0.1358
17705TIP3    H174606   2.091   4.169  12.265  0.3406 -0.1958 -0.0773
17705TIP3    H274607   2.086   4.128  12.119  2.2364 -0.7852 -0.0034
17706TIP3   OH274608   2.475   4.543  11.933 -0.4302 -0.1063  0.6658
17706TIP3    H174609   2.434   4.456  11.923 -0.2145 -0.4276  2.2196
17706TIP3    H274610   2.423   4.600  11.877 -1.4142 -0.9950  0.6228
17707TIP3   OH274611   0.792   1.487  13.902  0.3609 -0.4584  0.1554
17707TIP3    H174612   0.752   1.487  13.989 -0.7384 -1.0505 -0.3283
17707TIP3    H274613   0.800   1.580  13.879 -0.8148 -0.3186  0.2528
17708TIP3   OH274614   3.094   2.529  12.608 -0.3131 -0.2693  0.5030
17708TIP3    H174615   3.017   2.476  12.628 -2.0098  2.0677  0.6445
17708TIP3    H274616   3.105   2.521  12.513 -0.4288 -1.0065  0.5517
17709TIP3   OH274617   0.238   5.778  12.743 -0.1653 -0.4442 -0.1310
17709TIP3    H174618   0.207   5.696  12.782 -2.0030 -0.7754 -2.1063
17709TIP3    H274619   0.271   5.829  12.817  0.9039 -2.8682  1.1885
17710TIP3   OH274620   3.323   6.627   4.607 -0.3138 -0.3034 -0.3065
17710TIP3    H174621   3.300   6.583   4.688  0.0748 -0.4761 -0.2871
17710TIP3    H274622   3.242   6.671   4.579 -0.2306  0.4705  0.6226
17711TIP3   OH274623   0.448   5.339   1.065  0.0012 -0.0871  0.6259
17711TIP3    H174624   0.388   5.277   1.024  0.4131  1.4611 -2.7101
17711TIP3    H274625   0.530   5.291   1.076  0.4425 -0.1684 -2.2804
17712TIP3   OH274626   2.525   1.641   0.492  0.6648  0.4060  0.5714
17712TIP3    H174627   2.538   1.564   0.437  0.5940  0.8672 -0.1086
17712TIP3    H274628   2.440   1.629   0.532  0.6934  0.0878  0.5342
17713TIP3   OH274629   5.916   0.022   4.545  0.5279  0.3927 -0.3509
17713TIP3    H174630   5.984  -0.044   4.559  0.7080  0.2996 -1.5681
17713TIP3    H274631   5.906   0.026   4.450 -0.2139  1.3835 -0.2430
17714TIP3   OH274632   1.589   1.675  13.242 -0.0324 -0.2567 -0.0457
17714TIP3    H174633   1.526   1.741  13.267 -0.3958 -1.3668  2.1851
17714TIP3    H274634   1.546   1.592  13.261  1.5705 -1.0671  0.2172
17715TIP3   OH274635   6.511   6.788   0.631 -0.1001 -0.0244  0.1558
17715TIP3    H174636   6.484   6.815   0.719  0.2302  0.2789  0.1672
17715TIP3    H274637   6.464   6.847   0.572 -0.8548 -0.6691  0.0886
17716TIP3   OH274638   3.127   4.427   1.887  0.7757 -0.0181  0.4450
17716TIP3    H174639   3.206   4.444   1.939 -0.0266  0.6801  1.4661
17716TIP3    H274640   3.094   4.514   1.865  0.7640 -0.3010 -0.7638
17717TIP3   OH274641   5.613   0.525  12.611 -0.1258 -0.1910  0.1722
17717TIP3    H174642   5.575   0.446  12.572 -0.3583 -0.1161  0.2426
17717TIP3    H274643   5.552   0.548  12.682 -1.0273  1.0617 -0.9619
17718TIP3   OH274644   3.668   5.339   3.870  0.7828 -1.2453  0.2161
17718TIP3    H174645   3.634   5.253   3.894  0.0482 -1.1357 -0.3964
17718TIP3    H274646   3.671   5.338   3.774  2.2583 -1.1390  0.2341
17719TIP3   OH274647   4.223   1.828  13.976  0.2320  0.3472  0.4376
17719TIP3    H174648   4.156   1.892  13.999 -0.2204  0.0339  0.0233
17719TIP3    H274649   4.184   1.777  13.905  0.3380 -0.7662  1.1519
17720TIP3   OH274650   4.280   5.842   0.789  0.1137  0.2029  0.0602
17720TIP3    H174651   4.330   5.918   0.760  0.5838  0.0578  0.4919
17720TIP3    H274652   4.239   5.808   0.709  0.0550  0.7951 -0.1622
17721TIP3   OH274653   3.223   3.727  14.772 -0.7759  0.5491  0.3779
17721TIP3    H174654   3.161   3.711  14.844 -1.5089  1.7706  0.0420
17721TIP3    H274655   3.225   3.822  14.763  3.7209  0.9573  2.5887
17722TIP3   OH274656   0.419   0.401   0.781 -0.4999 -0.1788  0.1906
17722TIP3    H174657   0.468   0.321   0.797  0.0529  0.4419  1.7694
17722TIP3    H274658   0.464   0.443   0.708 -0.7552 -1.2572 -0.6037
17723TIP3   OH274659   1.676   5.772   5.000  0.6071  0.1071  0.1347
17723TIP3    H174660   1.699   5.697   4.945  0.3972 -0.4929  0.8552
17723TIP3    H274661   1.759   5.796   5.042  0.3450 -0.8281  1.2334
17724TIP3   OH274662   3.949   0.138  16.273 -0.3863  0.3341  0.3572
17724TIP3    H174663   3.969   0.044  16.275 -1.4286  0.0622 -0.8045
17724TIP3    H274664   3.926   0.160  16.363 -1.5770 -0.8654  0.3780
17725TIP3   OH274665   6.462   4.291   2.389  0.2802 -0.0061 -0.0190
17725TIP3    H174666   6.479   4.238   2.312 -2.1245  1.0417 -1.3816
17725TIP3    H274667   6.380   4.336   2.370  0.2911  1.3446  2.6083
17726TIP3   OH274668   5.981   3.323  10.614 -0.1593  0.2115  0.1755
17726TIP3    H174669   6.050   3.382  10.584  1.6211 -2.4339 -1.3996
17726TIP3    H274670   5.981   3.333  10.709  0.6820  2.0568  0.0212
17727TIP3   OH274671   0.962   5.537  12.370 -0.1392  0.0672 -0.2467
17727TIP3    H174672   0.893   5.477  12.401  0.2128 -0.5583 -0.6550
17727TIP3    H274673   1.043   5.498  12.401  0.0639  0.6078 -0.0862
17728TIP3   OH274674   1.524   0.370  17.214  0.1653  0.3520  0.1239
17728TIP3    H174675   1.569   0.288  17.197  1.5665  0.9533  0.7684
17728TIP3    H274676   1.566   0.405  17.292 -1.3275  1.0352  0.6526
17729TIP3   OH274677   0.765   3.832  14.515 -0.4235 -0.1901  0.1216
17729TIP3    H174678   0.783   3.815  14.607  0.2725  1.0742  0.2432
17729TIP3    H274679   0.849   3.859  14.479 -0.0729 -3.0380 -1.5150
17730TIP3   OH274680   0.388   5.753  13.662  0.4691  0.1611  0.2262
17730TIP3    H174681   0.348   5.789  13.741  4.3258  0.6430  2.1865
17730TIP3    H274682   0.482   5.752  13.680  1.4543 -1.2411 -3.7868
17731TIP3   OH274683   1.654   1.975  16.074  0.1485  0.5176 -0.0592
17731TIP3    H174684   1.564   2.006  16.087 -0.9373 -2.5760  0.7204
17731TIP3    H274685   1.699   2.049  16.033 -3.0617  1.7496 -1.7208
17732TIP3   OH274686   2.248   0.089  13.065 -0.6012  0.1205  0.7274
17732TIP3    H174687   2.327   0.044  13.095 -1.3367 -2.2343 -0.6026
17732TIP3    H274688   2.180   0.023  13.068 -1.8475  1.2250 -1.0753
17733TIP3   OH274689   3.824   1.999  14.553  0.2815  0.5706  0.1847
17733TIP3    H174690   3.733   1.991  14.580  0.4110  0.4700  0.6048
17733TIP3    H274691   3.846   2.091  14.567 -0.4802  1.2105 -2.3003
17734TIP3   OH274692   1.950   2.369   2.530  0.3026  0.4285  0.3041
17734TIP3    H174693   2.031   2.417   2.546  1.2590 -0.6368 -1.0356
17734TIP3    H274694   1.890   2.433   2.493  0.9379  0.9773  0.2129
17735TIP3   OH274695   3.148   5.352  16.885  0.2642  0.2333 -0.2690
17735TIP3    H174696   3.150   5.287  16.815  0.2140  0.2839 -0.3177
17735TIP3    H274697   3.215   5.323  16.947 -0.9929 -0.8840  0.6335
17736TIP3   OH274698   1.054   1.767  12.764 -0.2919 -0.2533  0.0265
17736TIP3    H174699   0.959   1.774  12.757 -0.3848 -1.0707  0.3373
17736TIP3    H274700   1.072   1.674  12.752  0.5559  0.0146 -0.9280
17737TIP3   OH274701   5.589   5.256   0.730  0.5512  0.0708 -0.2053
17737TIP3    H174702   5.608   5.313   0.805  2.0509  1.9260 -1.8840
17737TIP3    H274703   5.515   5.298   0.687  1.0025  0.1898 -0.8792
17738TIP3   OH274704   4.205   1.450  12.662  0.3593 -0.3720  0.1960
17738TIP3    H174705   4.278   1.457  12.601  1.3786  1.5262  1.5257
17738TIP3    H274706   4.158   1.533  12.653 -1.0842 -1.1540  0.0884
17739TIP3   OH274707   3.927   5.584   2.100 -0.1736  0.7824  0.6822
17739TIP3    H174708   3.981   5.589   2.021 -1.6504  1.4548 -0.3476
17739TIP3    H274709   3.907   5.675   2.121 -0.6868  0.5593  1.1901
17740TIP3   OH274710   2.413   2.786  16.302  0.7973 -0.2760 -0.0623
17740TIP3    H174711   2.370   2.740  16.374  0.7576  1.0860  0.8147
17740TIP3    H274712   2.344   2.839  16.263  1.3072  0.6556  0.2890
17741TIP3   OH274713   5.355   2.107   3.442  0.2579  0.4573  0.0719
17741TIP3    H174714   5.325   2.121   3.352 -1.6799  1.1059  0.7802
17741TIP3    H274715   5.348   2.193   3.483  2.7609  0.5608  0.4424
17742TIP3   OH274716   4.711   4.101  14.426  0.2716  0.0907 -0.2369
17742TIP3    H174717   4.642   4.142  14.375 -0.1616  0.4947  0.6461
17742TIP3    H274718   4.768   4.173  14.453  0.6893 -0.1607 -0.4367
17743TIP3   OH274719   2.839   0.786   3.290  0.1618  0.1044 -0.1642
17743TIP3    H174720   2.751   0.760   3.261 -0.1312  0.6872  0.1820
17743TIP3    H274721   2.841   0.765   3.384  0.5038 -0.1778 -0.2289
17744TIP3   OH274722   6.259   0.518   2.930  0.7374 -0.4279 -0.1045
17744TIP3    H174723   6.313   0.442   2.908  0.4159 -0.5201 -0.6099
17744TIP3    H274724   6.175   0.501   2.887  0.3112 -0.2709  0.6438
17745TIP3   OH274725   6.437   0.505  13.238 -0.1443 -0.0042 -0.5602
17745TIP3    H174726   6.434   0.505  13.334 -0.8602  0.1320 -0.5757
17745TIP3    H274727   6.399   0.421  13.213  0.8927 -0.4442 -0.7162
17746TIP3   OH274728   5.708   6.176  15.639  0.5077 -0.2201 -0.2477
17746TIP3    H174729   5.776   6.190  15.573  0.3217  0.6035 -0.2770
17746TIP3    H274730   5.749   6.119  15.704  1.6302  1.1592  0.3054
17747TIP3   OH274731   1.443   2.134  12.901 -0.3236  0.2327  0.3506
17747TIP3    H174732   1.401   2.200  12.847 -2.8467 -1.4480  0.1222
17747TIP3    H274733   1.404   2.144  12.987 -0.0139 -0.3372  0.5672
17748TIP3   OH274734   3.989   3.774   3.837  0.1644  0.2310 -0.0165
17748TIP3    H174735   3.969   3.734   3.922  1.1558 -2.1807 -0.8309
17748TIP3    H274736   4.079   3.747   3.819  0.4557  1.8681 -1.2382
17749TIP3   OH274737   4.599   4.054  11.882  0.7028  0.4291  1.1232
17749TIP3    H174738   4.619   4.136  11.926  1.7416  0.2035  1.0980
17749TIP3    H274739   4.526   4.075  11.823  0.9797  1.3413  1.0885
17750TIP3   OH274740   0.888   2.938  13.420  0.2191  0.2212 -0.1882
17750TIP3    H174741   0.876   2.859  13.473 -0.9475 -0.0778 -0.8559
17750TIP3    H274742   0.978   2.965  13.437  0.9173 -1.7164 -0.5487
17751TIP3   OH274743   1.437   1.653  12.761 -0.4272  0.1245 -0.8594
17751TIP3    H174744   1.360   1.610  12.725  0.7806 -1.5815 -1.5484
17751TIP3    H274745   1.419   1.661  12.855 -0.4598 -2.6215 -0.5517
17752TIP3   OH274746   3.777   5.047  15.719  0.2268  0.3000 -0.1369
17752TIP3    H174747   3.831   4.972  15.693 -1.8816 -0.8196 -1.6181
17752TIP3    H274748   3.714   5.057  15.648 -0.8578  2.1818  1.0055
17753TIP3   OH274749   0.203   3.444   2.364  0.5065 -0.2187 -0.1205
17753TIP3    H174750   0.238   3.527   2.332  0.3562 -0.1483 -0.1033
17753TIP3    H274751   0.164   3.466   2.449 -0.3279 -0.1302 -0.5200
17754TIP3   OH274752   6.140   6.614   5.156 -0.2782 -0.0939  0.8311
17754TIP3    H174753   6.167   6.700   5.189 -0.4280  1.9108 -3.6373
17754TIP3    H274754   6.222   6.565   5.145 -0.0104  0.1747  1.5622
17755TIP3   OH274755   0.743   5.956   0.600  0.2570 -0.4650 -0.1869
17755TIP3    H174756   0.702   5.905   0.670  0.5002  1.2868  1.3181
17755TIP3    H274757   0.820   5.906   0.575  0.2501 -1.0584  0.9335
17756TIP3   OH274758   2.264   0.351  11.729 -0.0696  0.1548  0.7751
17756TIP3    H174759   2.217   0.413  11.673 -1.6685 -2.8815 -1.5259
17756TIP3    H274760   2.329   0.312  11.671  0.6345 -0.6023  2.0538
17757TIP3   OH274761   4.755   3.033   4.933  0.2207 -0.1134  0.1423
17757TIP3    H174762   4.748   2.938   4.924  0.6531 -0.1464  0.1541
17757TIP3    H274763   4.675   3.058   4.980 -0.3463 -0.3564 -0.6675
17758TIP3   OH274764   2.817   4.139  10.928 -0.2389  0.7103 -0.1417
17758TIP3    H174765   2.774   4.181  10.853  0.0065 -0.6744 -1.1222
17758TIP3    H274766   2.874   4.072  10.888  1.3533  1.1904  1.2106
17759TIP3   OH274767   2.883   5.686   0.259  0.3873  0.2798 -0.0430
17759TIP3    H174768   2.796   5.652   0.238  1.3743 -1.7680 -1.1251
17759TIP3    H274769   2.892   5.766   0.208 -0.8450  0.4964  0.0699
17760TIP3   OH274770   3.641   5.050  14.216  0.0829 -0.7138 -0.7045
17760TIP3    H174771   3.560   5.085  14.178  0.2269 -0.4992 -0.8154
17760TIP3    H274772   3.628   4.955  14.217 -0.2962 -0.6598 -0.4340
17761TIP3   OH274773   1.183   3.159   5.767  0.7994 -0.0327 -0.2949
17761TIP3    H174774   1.261   3.123   5.810 -0.8418 -0.1726  2.8766
17761TIP3    H274775   1.186   3.253   5.788 -0.4593 -0.2454  1.0211
17762TIP3   OH274776   6.137   0.613  13.147  0.1572  0.0293 -0.7635
17762TIP3    H174777   6.223   0.632  13.109 -0.0670  0.3136 -1.1421
17762TIP3    H274778   6.145   0.637  13.240  0.2038  1.0036 -1.0048
17763TIP3   OH274779   1.409   5.626   0.270  0.5728 -0.1308  0.4618
17763TIP3    H174780   1.404   5.720   0.255  1.3805 -0.3372 -1.4729
17763TIP3    H274781   1.342   5.607   0.335 -0.7642  1.5396 -0.3735
17764TIP3   OH274782   5.742   5.444  13.840 -0.1785  0.7417  0.4216
17764TIP3    H174783   5.690   5.450  13.921  0.4390 -0.1751  0.8990
17764TIP3    H274784   5.821   5.495  13.858  1.0108 -1.2693  1.2708
17765TIP3   OH274785   2.532   4.999  16.292 -0.1030 -0.7391  0.2289
17765TIP3    H174786   2.550   5.025  16.202 -2.1740 -0.7257 -0.2445
17765TIP3    H274787   2.513   4.905  16.287  1.0193 -1.0166  0.8772
17766TIP3   OH274788   5.294   5.620  16.443  0.6276  0.6412 -0.2230
17766TIP3    H174789   5.228   5.662  16.389  1.8483  0.2091 -2.1445
17766TIP3    H274790   5.348   5.693  16.476 -1.5967  1.1560  2.6622
17767TIP3   OH274791   4.399   4.711   5.427 -0.1890  0.5961  0.2859
17767TIP3    H174792   4.377   4.781   5.366  1.4707  1.2825  0.4358
17767TIP3    H274793   4.394   4.751   5.514 -1.5967 -0.1297  0.5734
17768TIP3   OH274794   3.652   6.698  14.252  0.2865  0.5203  0.3223
17768TIP3    H174795   3.731   6.648  14.273 -0.1316  0.2386  1.2982
17768TIP3    H274796   3.670   6.786  14.287  0.7587  0.8862 -0.8053
17769TIP3   OH274797   3.339   1.207  13.194  0.0137 -0.2408 -0.2713
17769TIP3    H174798   3.342   1.170  13.106 -2.1813 -2.2220  0.3733
17769TIP3    H274799   3.263   1.166  13.235 -0.3802  2.2771  1.8432
17770TIP3   OH274800   0.364   1.215  15.872 -0.1778 -0.1194  0.5251
17770TIP3    H174801   0.431   1.271  15.910 -1.6859  1.4819  0.9539
17770TIP3    H274802   0.282   1.244  15.912 -1.8619  1.3074 -3.3900
17771TIP3   OH274803   0.257   0.121   1.577  0.4583  0.0681 -0.1706
17771TIP3    H174804   0.231   0.058   1.509  0.5644  0.7658 -0.8699
17771TIP3    H274805   0.269   0.067   1.655  0.0100 -0.7089 -0.6154
17772TIP3   OH274806   3.788   5.921  14.786  0.5006 -0.3881 -0.3958
17772TIP3    H174807   3.769   5.923  14.880 -1.9460  0.8474 -0.8321
17772TIP3    H274808   3.775   5.830  14.761  0.5626 -0.6072  0.3491
17773TIP3   OH274809   4.034   1.965   2.013 -0.0698 -0.0177  0.3364
17773TIP3    H174810   4.087   1.897   1.972  0.1303 -0.6096  1.5296
17773TIP3    H274811   4.097   2.032   2.040 -0.1612  0.2027  0.0123
17774TIP3   OH274812   5.340   2.087  13.383  0.2836  0.0980  0.7200
17774TIP3    H174813   5.331   2.168  13.334  2.3229 -0.6973 -1.1436
17774TIP3    H274814   5.258   2.040  13.367  0.1978  0.6150 -0.4762
17775TIP3   OH274815   4.517   3.631  16.893  0.0888 -0.0807  0.5052
17775TIP3    H174816   4.596   3.671  16.856  0.8302 -1.7704  0.1763
17775TIP3    H274817   4.546   3.591  16.975 -0.3333 -0.9972  0.2243
17776TIP3   OH274818   3.671   2.548  13.748 -0.0670  0.3401 -0.1765
17776TIP3    H174819   3.611   2.484  13.784 -0.0089  1.3167  1.7751
17776TIP3    H274820   3.691   2.516  13.660 -0.2946 -2.1174  0.5997
17777TIP3   OH274821   4.486   3.062   1.338  0.4485  0.3470  0.8406
17777TIP3    H174822   4.432   3.078   1.415 -1.4046 -1.7079  0.0929
17777TIP3    H274823   4.475   3.140   1.284 -2.7407 -0.3616  0.2700
17778TIP3   OH274824   4.363   3.926  16.919  0.2456  0.1481  0.0412
17778TIP3    H174825   4.435   3.919  16.982 -0.3798 -2.1243  0.5957
17778TIP3    H274826   4.300   3.984  16.961  0.3988 -0.3424  0.9779
17779TIP3   OH274827   6.056   4.897   4.095 -0.3518 -0.6517 -0.0202
17779TIP3    H174828   6.135   4.896   4.041 -0.2180  1.9875 -0.0068
17779TIP3    H274829   6.040   4.805   4.115  2.6092 -1.3267 -0.1738
17780TIP3   OH274830   3.645   6.211  12.113  0.0195  0.2912  0.3166
17780TIP3    H174831   3.571   6.227  12.171  0.1108 -3.2770  1.6297
17780TIP3    H274832   3.615   6.145  12.052  1.6544 -0.1582 -0.0612
17781TIP3   OH274833   4.266   4.599   2.896  0.3077  0.5426 -0.1123
17781TIP3    H174834   4.283   4.527   2.957 -0.2480  0.3604 -0.1639
17781TIP3    H274835   4.194   4.648   2.936  0.5408  0.9477 -0.1832
17782TIP3   OH274836   3.325   6.043  12.112 -0.9434 -0.0438  0.1729
17782TIP3    H174837   3.338   6.105  12.184 -2.3741  1.7617 -1.0320
17782TIP3    H274838   3.340   6.095  12.033 -2.4908 -1.1315 -0.8907
17783TIP3   OH274839   5.980   3.157   0.962  0.4060  0.0134  0.7237
17783TIP3    H174840   5.901   3.185   0.915  0.9478  0.2097 -0.0902
17783TIP3    H274841   6.022   3.094   0.903  0.1925 -1.0790  1.7200
17784TIP3   OH274842   1.090   4.974  15.095  0.5421 -0.0060  0.1972
17784TIP3    H174843   1.068   5.066  15.113 -0.7357 -0.6753  2.4279
17784TIP3    H274844   1.013   4.939  15.051  0.6761 -0.2427  0.1496
17785TIP3   OH274845   5.299   2.132   3.995  0.0195  0.3526 -0.3000
17785TIP3    H174846   5.293   2.166   3.906 -0.6276 -1.3713 -0.9598
17785TIP3    H274847   5.313   2.038   3.984  0.3173  0.1639  1.4203
17786TIP3   OH274848   1.025   5.472  14.052 -0.3742  0.1879 -0.6915
17786TIP3    H174849   1.010   5.555  14.007 -0.1847 -0.6000 -2.2859
17786TIP3    H274850   0.975   5.408  14.002  0.1272 -0.8016  0.0258
17787TIP3   OH274851   3.789   0.631  11.310  0.5993 -0.2477 -0.1271
17787TIP3    H174852   3.812   0.558  11.368  0.0578 -0.7725 -0.5508
17787TIP3    H274853   3.867   0.686  11.308 -0.0370  1.0166  2.8671
17788TIP3   OH274854   4.476   0.303  13.823 -0.0407 -0.2745  0.3045
17788TIP3    H174855   4.550   0.257  13.784 -0.0677 -0.7380  0.7967
17788TIP3    H274856   4.446   0.245  13.893 -0.5678  0.1310  0.4160
17789TIP3   OH274857   5.424   5.710  12.163 -0.2228 -0.5795 -0.0109
17789TIP3    H174858   5.448   5.761  12.240  2.7529 -0.3848 -0.9581
17789TIP3    H274859   5.391   5.627  12.199 -1.4960  0.4823  1.4477
17790TIP3   OH274860   1.922   0.755   1.390  0.4245  0.2322 -0.1931
17790TIP3    H174861   1.922   0.742   1.485  1.9531  1.8327  0.0824
17790TIP3    H274862   1.912   0.667   1.354 -2.3142 -0.2406  1.3977
17791TIP3   OH274863   4.724   1.024   3.731 -0.6833  0.3397 -0.0751
17791TIP3    H174864   4.678   1.090   3.680 -0.4534  1.1854  0.7988
17791TIP3    H274865   4.655   0.972   3.772 -0.9420 -1.3987 -2.4456
17792TIP3   OH274866   3.961   1.699  15.415  0.3217 -0.7507 -0.0302
17792TIP3    H174867   3.881   1.717  15.365  0.3068 -0.7014  0.0111
17792TIP3    H274868   4.022   1.664  15.350  1.3980  2.2645 -0.7842
17793TIP3   OH274869   0.408   1.329  16.977 -0.4371 -0.1425 -0.0478
17793TIP3    H174870   0.499   1.315  17.002 -1.3171  0.6145  4.4221
17793TIP3    H274871   0.396   1.424  16.978 -0.7383 -0.0055 -3.5935
17794TIP3   OH274872   4.451   2.164  13.118  0.2928  0.1538 -0.0628
17794TIP3    H174873   4.500   2.086  13.143  0.5721 -0.0444 -1.2010
17794TIP3    H274874   4.499   2.236  13.160  0.9362 -0.1401 -0.2840
17795TIP3   OH274875   0.225   1.796  13.330  0.5108 -0.3217 -0.8406
17795TIP3    H174876   0.222   1.804  13.234  0.3508  1.4501 -0.7278
17795TIP3    H274877   0.138   1.821  13.358  1.3577  2.1482 -0.1207
17796TIP3   OH274878   5.551   0.573   0.696 -0.1897  0.0527 -0.5328
17796TIP3    H174879   5.618   0.541   0.636 -0.3658 -0.5775 -0.4062
17796TIP3    H274880   5.475   0.516   0.680  0.3792 -1.4567  1.6218
17797TIP3   OH274881   5.218   1.798  13.009 -0.0659  0.6165  0.8940
17797TIP3    H174882   5.169   1.771  13.087  1.0627  0.5133  1.6074
17797TIP3    H274883   5.291   1.735  13.004 -0.1068  0.6412 -0.2362
17798TIP3   OH274884   3.898   6.118  11.323  0.4512 -0.0275  0.4661
17798TIP3    H174885   3.901   6.196  11.378 -0.5967 -0.2502  0.8654
17798TIP3    H274886   3.819   6.128  11.271 -0.5296 -1.4746  1.5681
17799TIP3   OH274887   1.194   6.773  11.941  0.2051 -0.3147  0.3244
17799TIP3    H174888   1.268   6.816  11.899 -0.2092  1.4114  1.2870
17799TIP3    H274889   1.179   6.822  12.021 -4.5558  2.2233 -1.6922
17800TIP3   OH274890   1.324   2.680  16.410 -0.1606  0.4417 -0.4811
17800TIP3    H174891   1.345   2.696  16.318 -0.0703  0.0761 -0.5259
17800TIP3    H274892   1.328   2.766  16.451  0.0734  0.5685 -0.7662
17801TIP3   OH274893   5.315   2.251   5.100 -0.3016  0.3225  0.8958
17801TIP3    H174894   5.391   2.254   5.042 -0.5077  0.9599  0.6392
17801TIP3    H274895   5.262   2.179   5.067  0.5921 -0.6952  1.6125
17802TIP3   OH274896   0.190   3.757   1.368 -0.0102 -0.4988 -0.2972
17802TIP3    H174897   0.180   3.717   1.455  0.1935  0.5870  0.2463
17802TIP3    H274898   0.109   3.806   1.355 -0.3901 -1.3049 -1.0940
17803TIP3   OH274899   1.794   1.841   1.333  0.3220 -0.3715  0.0954
17803TIP3    H174900   1.808   1.890   1.414 -0.8258 -0.3214  0.2836
17803TIP3    H274901   1.793   1.750   1.360 -1.0177 -0.3122  0.3134
17804TIP3   OH274902   2.258   1.056   3.346  0.4129  0.4518  0.0603
17804TIP3    H174903   2.299   1.031   3.264  1.9820  0.5135  0.7825
17804TIP3    H274904   2.191   1.119   3.321  1.0274  0.6603 -1.1456
17805TIP3   OH274905   0.036   2.506   4.871  0.1719  0.0512 -0.4002
17805TIP3    H174906  -0.048   2.529   4.910  1.0974  3.5640 -0.2014
17805TIP3    H274907   0.014   2.444   4.801 -2.4783  0.4570 -0.0124
17806TIP3   OH274908   2.690   0.890   5.412  0.3415 -0.1346 -0.6228
17806TIP3    H174909   2.726   0.957   5.354 -0.4818 -0.3745 -1.4366
17806TIP3    H274910   2.638   0.940   5.476  1.3487  0.1374 -0.0022
17807TIP3   OH274911   4.626   4.014  13.816  0.3575  0.2027  0.1101
17807TIP3    H174912   4.708   4.038  13.860  0.1021 -1.8617  1.8625
17807TIP3    H274913   4.593   4.097  13.782  1.6669  1.5923  1.9914
17808TIP3   OH274914   0.453   1.299  10.459 -0.0029  0.1998  0.0335
17808TIP3    H174915   0.373   1.348  10.481 -0.0154 -0.9489  3.0186
17808TIP3    H274916   0.422   1.218  10.420 -0.4698 -0.8612  2.4564
17809TIP3   OH274917   6.021   2.226   5.578  0.2425 -0.0667 -0.4304
17809TIP3    H174918   5.965   2.249   5.503 -0.0048 -1.6705 -0.7743
17809TIP3    H274919   6.087   2.167   5.541  1.0457  0.3203  0.3432
17810TIP3   OH274920   4.279   2.442  11.463 -0.2052 -0.1446  0.0110
17810TIP3    H174921   4.297   2.348  11.471  0.5103  0.0511  0.7420
17810TIP3    H274922   4.364   2.484  11.472 -0.6037  0.6163  0.3009
17811TIP3   OH274923   4.724   3.909  15.604  0.4627 -0.6544 -0.7048
17811TIP3    H174924   4.701   3.978  15.542  2.4117 -0.9125 -1.8032
17811TIP3    H274925   4.765   3.842  15.550 -1.4010 -2.7612  0.3154
17812TIP3   OH274926   6.283   0.454   5.343  0.2014 -0.0849  0.2715
17812TIP3    H174927   6.262   0.391   5.274  1.6431 -1.0791  0.7067
17812TIP3    H274928   6.371   0.431   5.372 -0.9312 -0.8047  3.6283
17813TIP3   OH274929   0.163   2.680   6.516  0.1394 -0.2900  0.1533
17813TIP3    H174930   0.230   2.616   6.539 -0.9954 -1.9539 -0.9761
17813TIP3    H274931   0.200   2.728   6.441  0.9347  0.3183  0.9176
17814TIP3   OH274932   5.766   1.702   5.815  0.0113 -0.0169 -0.3774
17814TIP3    H174933   5.736   1.691   5.906  1.9962  0.4202  0.3772
17814TIP3    H274934   5.789   1.795   5.809  2.9052 -0.6421 -0.2887
17815TIP3   OH274935   2.498   1.206  11.512 -0.0470  0.1575 -0.5344
17815TIP3    H174936   2.489   1.300  11.532 -2.4967  0.0649 -0.9424
17815TIP3    H274937   2.558   1.203  11.438  1.2778  1.2620  0.4416
17816TIP3   OH274938   1.914   0.934  15.926 -0.2409  0.0467 -0.0370
17816TIP3    H174939   1.905   0.916  16.020  1.6252  1.8422  0.5594
17816TIP3    H274940   1.825   0.947  15.896 -0.8211  0.4859  1.7236
17817TIP3   OH274941   5.200   4.560   0.694 -0.0678  0.5983 -0.4213
17817TIP3    H174942   5.273   4.526   0.747  1.0119  1.9452 -0.9670
17817TIP3    H274943   5.159   4.625   0.751 -0.4168  0.3384 -0.3737
17818TIP3   OH274944   4.341   2.642  12.375  0.8176 -0.4434 -0.6699
17818TIP3    H174945   4.430   2.666  12.397  0.8353 -2.4437  2.0586
17818TIP3    H274946   4.338   2.641  12.279  3.3818  0.6754 -0.8216
17819TIP3   OH274947   4.310   2.290   2.372  0.0359 -0.2244 -0.2478
17819TIP3    H174948   4.224   2.250   2.382 -0.1208  0.2333  0.2699
17819TIP3    H274949   4.298   2.381   2.399  0.5528 -0.0074 -0.7163
17820TIP3   OH274950   6.440   2.968   6.340 -0.1654 -0.5601  0.5253
17820TIP3    H174951   6.422   3.042   6.398 -0.4977 -1.3803  1.5175
17820TIP3    H274952   6.534   2.974   6.321 -0.4296  0.8056 -0.4310
17821TIP3   OH274953   2.076   3.836  15.036 -0.7514  0.1294  0.4522
17821TIP3    H174954   2.025   3.904  14.993  0.5553  0.8793  0.0531
17821TIP3    H274955   2.159   3.878  15.059  1.0664 -1.8490 -1.8791
17822TIP3   OH274956   0.998   0.483   3.041 -0.2118  0.3850  0.2028
17822TIP3    H174957   0.915   0.531   3.046 -0.5517 -0.0664 -0.8997
17822TIP3    H274958   0.972   0.390   3.041  0.0950  0.2294 -2.5542
17823TIP3   OH274959   0.021   2.772  16.671 -0.0909  1.0797  0.2246
17823TIP3    H174960  -0.061   2.790  16.626  0.4514  1.9025 -0.4743
17823TIP3    H274961   0.087   2.820  16.621  0.5600  1.9317  1.8130
17824TIP3   OH274962   5.176   6.355  11.197  0.2052 -0.5864 -0.8037
17824TIP3    H174963   5.171   6.359  11.292 -0.8370  1.0682 -0.8898
17824TIP3    H274964   5.110   6.290  11.173  1.8772 -2.5583 -0.3534
17825TIP3   OH274965   4.606   1.696   2.040  0.0094 -0.3748  0.1095
17825TIP3    H174966   4.608   1.656   1.953 -0.8386 -1.6741  0.6663
17825TIP3    H274967   4.559   1.779   2.027  2.0219  0.6508 -1.1022
17826TIP3   OH274968   2.717   5.218   0.252 -0.7684 -0.0734 -0.3234
17826TIP3    H174969   2.774   5.281   0.207  0.5524 -1.0055 -0.0138
17826TIP3    H274970   2.679   5.267   0.325  1.0062  0.1613  0.5023
17827TIP3   OH274971   0.871   4.209  12.904  0.1694 -0.6801  0.1145
17827TIP3    H174972   0.848   4.159  12.983  1.8568  0.3946  1.3489
17827TIP3    H274973   0.948   4.164  12.869  0.1091 -0.4891 -0.2678
17828TIP3   OH274974   2.517   4.097   0.179 -0.1944 -0.2644  0.3800
17828TIP3    H174975   2.469   4.159   0.234 -2.2909 -0.3806 -1.2134
17828TIP3    H274976   2.485   4.011   0.206  0.5994 -0.4940  0.6273
17829TIP3   OH274977   1.041   1.032   2.829 -0.2162 -0.4426 -0.7709
17829TIP3    H174978   1.065   1.055   2.740  1.5706 -0.2492 -0.2799
17829TIP3    H274979   1.022   0.938   2.826  2.1800 -0.9836 -0.9489
17830TIP3   OH274980   0.170   4.764   1.613  0.2647  0.5570  0.0058
17830TIP3    H174981   0.261   4.763   1.584  0.2859  0.0620  0.0746
17830TIP3    H274982   0.157   4.852   1.649  0.9967  0.3423  0.8470
17831TIP3   OH274983   5.507   2.454  13.564  0.4423 -0.1943  0.2542
17831TIP3    H174984   5.558   2.530  13.534  0.6237 -1.0236 -1.7374
17831TIP3    H274985   5.565   2.407  13.623  0.7986  0.5483  0.5000
17832TIP3   OH274986   2.688   5.241   0.878  0.0818  0.6222 -0.4267
17832TIP3    H174987   2.760   5.233   0.816  0.9179  3.1591  0.0970
17832TIP3    H274988   2.704   5.324   0.923 -2.5537  0.7092  0.5216
17833TIP3   OH274989   4.487   6.011  16.911  0.7973 -0.8402 -0.1744
17833TIP3    H174990   4.448   5.964  16.985  0.4922 -0.6335 -0.2026
17833TIP3    H274991   4.527   6.088  16.951 -1.2403  0.4211 -0.4598
17834TIP3   OH274992   4.564   6.103   4.038 -0.3199 -0.0438  0.3873
17834TIP3    H174993   4.586   6.030   4.096  0.2696 -0.2798 -0.1160
17834TIP3    H274994   4.604   6.179   4.079 -2.0266  0.2466  1.5966
17835TIP3   OH274995   3.542   0.805   4.146  0.3126  0.3780 -0.1520
17835TIP3    H174996   3.522   0.744   4.075 -1.8573 -0.1777  0.8634
17835TIP3    H274997   3.525   0.755   4.226 -3.5311  2.7478  0.7705
17836TIP3   OH274998   4.232   4.183   1.534 -0.0973  0.5257  0.1320
17836TIP3    H174999   4.271   4.190   1.447 -1.6996 -1.3109 -0.8104
17836TIP3    H275000   4.303   4.148   1.589  0.9411  1.7560 -0.3641
17837TIP3   OH275001   6.784   4.846   5.114  0.0357 -1.1911 -0.1343
17837TIP3    H175002   6.860   4.849   5.056 -0.2156 -0.0435 -0.4358
17837TIP3    H275003   6.814   4.885   5.196  0.0321 -1.6163  0.0712
17838TIP3   OH275004   3.865   3.449  13.610  0.1166  0.0444  0.1312
17838TIP3    H175005   3.834   3.457  13.519  0.1815  1.9884  0.2435
17838TIP3    H275006   3.917   3.369  13.610 -1.8633 -1.3100 -0.9405
17839TIP3   OH275007   3.698   0.631   3.285 -0.4599  0.1195  0.3000
17839TIP3    H175008   3.626   0.595   3.336  0.1087  0.9078  1.7036
17839TIP3    H275009   3.674   0.723   3.271 -1.1970 -0.3426 -1.9773
17840TIP3   OH275010   1.127   5.552   2.784  0.4065  0.0761  0.5125
17840TIP3    H175011   1.208   5.533   2.736  0.2530 -1.5511  0.8460
17840TIP3    H275012   1.135   5.644   2.808  1.1916  0.5170 -1.2698
17841TIP3   OH275013   5.319   2.716   6.445 -0.0411  0.4525 -0.3369
17841TIP3    H175014   5.247   2.714   6.508  0.4999  1.3860  0.3358
17841TIP3    H275015   5.392   2.675   6.492 -0.2115 -0.8405 -1.1476
17842TIP3   OH275016   6.637   5.914  16.629 -0.2144  0.4168 -0.1266
17842TIP3    H175017   6.545   5.942  16.631  0.2642  2.0533  0.5467
17842TIP3    H275018   6.687   5.995  16.618  1.3005 -0.0057  2.6255
17843TIP3   OH275019   6.062   3.407  12.037  0.6337  0.7265 -0.1340
17843TIP3    H175020   6.082   3.361  11.955  1.0567  0.1382  0.2910
17843TIP3    H275021   5.984   3.363  12.070  0.7837  0.6014  0.0541
17844TIP3   OH275022   3.918   3.856  16.941 -0.6678 -0.3963  0.2766
17844TIP3    H175023   3.835   3.903  16.939 -1.1159 -1.1550  0.4144
17844TIP3    H275024   3.893   3.764  16.931  0.4495 -0.4523 -5.3402
17845TIP3   OH275025   0.053   6.153   2.415 -0.5891  0.4809 -0.2329
17845TIP3    H175026   0.108   6.219   2.373 -0.7412  0.4168 -0.5318
17845TIP3    H275027   0.105   6.123   2.489  0.3714 -0.5806 -1.3045
17846TIP3   OH275028   6.043   1.146  13.053 -0.6018 -0.3014 -0.2383
17846TIP3    H175029   6.096   1.141  12.973 -0.7209 -2.2878 -0.2494
17846TIP3    H275030   6.105   1.169  13.122 -0.4074  0.9333 -0.7943
17847TIP3   OH275031   4.204   6.698   6.471  0.1947 -0.2164  0.2191
17847TIP3    H175032   4.170   6.637   6.405 -1.2024  0.0637  0.6643
17847TIP3    H275033   4.270   6.749   6.424 -0.2261 -0.5471 -0.7604
17848TIP3   OH275034   5.879   0.827  12.863  0.7724  0.0269 -0.1306
17848TIP3    H175035   5.864   0.837  12.957  2.1141 -1.7591  0.3377
17848TIP3    H275036   5.958   0.878  12.845  2.1907 -1.8558  0.3664
17849TIP3   OH275037   2.293   3.205   5.740  0.0788  0.0810 -0.2891
17849TIP3    H175038   2.308   3.111   5.728  1.1362  0.1601  0.3331
17849TIP3    H275039   2.266   3.214   5.831 -2.1002  0.1640 -0.8947
17850TIP3   OH275040   5.547   6.412  11.089  0.0090  0.3230  0.2698
17850TIP3    H175041   5.528   6.409  10.996 -0.1003  0.0185  0.3027
17850TIP3    H275042   5.529   6.324  11.121  1.1655  0.1041  0.3647
17851TIP3   OH275043   2.140   3.092  14.807 -0.8411 -0.7153 -0.1612
17851TIP3    H175044   2.107   3.058  14.724 -0.7880 -0.7213 -0.1799
17851TIP3    H275045   2.068   3.145  14.841 -1.2829 -1.6164  0.3289
17852TIP3   OH275046   6.084   3.601   3.810 -0.3973  0.2588 -0.1624
17852TIP3    H175047   6.175   3.578   3.826 -0.8282 -1.3332  0.2047
17852TIP3    H275048   6.054   3.642   3.891 -0.6767 -1.5452  0.7016
17853TIP3   OH275049   3.442   3.160   4.231  0.4093 -0.0304  0.3061
17853TIP3    H175050   3.347   3.147   4.243  0.4575 -1.1066 -0.3638
17853TIP3    H275051   3.475   3.074   4.206  1.3407  0.6486 -0.9194
17854TIP3   OH275052   0.406   3.409  12.935 -0.0865 -0.3289  0.0480
17854TIP3    H175053   0.359   3.493  12.927  0.4166 -0.1361 -1.0488
17854TIP3    H275054   0.383   3.361  12.855 -1.1897 -1.6950  1.1281
17855TIP3   OH275055   4.091   6.150  13.692 -0.1989  0.1440  0.5840
17855TIP3    H175056   3.997   6.134  13.692 -0.4867  1.6109 -0.9787
17855TIP3    H275057   4.111   6.180  13.604  1.4411  1.4468  1.3415
17856TIP3   OH275058   4.429   3.956  11.270  0.3292  0.9897  0.8747
17856TIP3    H175059   4.429   4.051  11.280 -0.2340  1.0226  0.5990
17856TIP3    H275060   4.342   3.935  11.234  0.0138  0.2704  1.9893
17857TIP3   OH275061   2.522   5.012   4.988  0.2866  0.1474 -0.3801
17857TIP3    H175062   2.559   4.987   5.073  0.9955 -0.9750 -0.9929
17857TIP3    H275063   2.515   5.107   4.992  0.7781  0.1513  0.7504
17858TIP3   OH275064   3.244   4.566   3.948  0.2190 -0.1921  0.0089
17858TIP3    H175065   3.171   4.628   3.943  1.2143  0.9411 -3.8965
17858TIP3    H275066   3.308   4.608   4.005  0.0253  1.4510 -0.9348
17859TIP3   OH275067   0.697   3.686  12.586  0.3461 -0.3258  0.4711
17859TIP3    H175068   0.657   3.768  12.556 -2.1888 -1.3539  0.7866
17859TIP3    H275069   0.701   3.695  12.682  0.6797 -0.3254  0.4595
17860TIP3   OH275070   4.868   5.847  14.900  0.5258 -0.3591 -0.4704
17860TIP3    H175071   4.963   5.857  14.897  0.4148  1.4371  0.4568
17860TIP3    H275072   4.836   5.903  14.830  0.0855  1.1944  0.9030
17861TIP3   OH275073   3.744   2.588  13.060 -1.2821 -1.1408  0.1192
17861TIP3    H175074   3.678   2.541  13.111 -0.4436 -2.7479 -0.1887
17861TIP3    H275075   3.803   2.519  13.028  0.7257  0.2408  0.6272
17862TIP3   OH275076   4.137   4.018  16.582 -0.4701  0.3179  0.2928
17862TIP3    H175077   4.044   4.010  16.562 -0.9679 -1.1395  2.7459
17862TIP3    H275078   4.145   3.981  16.670  2.1637  1.9220  0.8257
17863TIP3   OH275079   4.299   6.014   5.417  0.3172 -0.2459  0.2822
17863TIP3    H175080   4.211   6.005   5.380  0.7637  0.7780 -1.1312
17863TIP3    H275081   4.285   6.040   5.508 -0.8928  1.7225 -0.3955
17864TIP3   OH275082   0.762   5.508   0.150  0.0642  0.4228 -0.3531
17864TIP3    H175083   0.690   5.480   0.093 -2.1128  3.5931  0.5500
17864TIP3    H275084   0.718   5.540   0.229  2.3597  3.1901 -0.0397
17865TIP3   OH275085   4.985   2.090  15.074 -0.2356 -0.4277 -0.5377
17865TIP3    H175086   4.926   2.016  15.089 -2.1829  0.4394 -3.0592
17865TIP3    H275087   5.011   2.081  14.982 -0.1475  1.7048 -0.7733
17866TIP3   OH275088   3.819   2.812   1.492  0.1284 -0.0801 -0.0668
17866TIP3    H175089   3.905   2.834   1.528 -0.0621  1.6935 -0.5890
17866TIP3    H275090   3.789   2.738   1.545  1.8748 -0.6059  0.2523
17867TIP3   OH275091   2.506   2.578   3.143 -0.1766  0.4582 -0.2023
17867TIP3    H175092   2.497   2.522   3.220 -1.0960  1.7991  0.7203
17867TIP3    H275093   2.600   2.598   3.139 -0.1938  0.8885  0.9893
17868TIP3   OH275094   0.752   4.083   1.118  0.1908  0.1378 -0.5191
17868TIP3    H175095   0.746   4.156   1.181  0.4225  1.1730 -1.6537
17868TIP3    H275096   0.792   4.012   1.168 -3.0849 -0.4230  1.6373
17869TIP3   OH275097   4.165   5.631  16.533  0.5488  0.0386  0.6380
17869TIP3    H175098   4.197   5.698  16.472 -0.4400 -0.6779 -0.7403
17869TIP3    H275099   4.241   5.607  16.585  1.3952  0.7918 -0.2255
17870TIP3   OH275100   4.666   3.640  16.295 -0.1098  0.0474 -0.3509
17870TIP3    H175101   4.638   3.642  16.203  2.9915  1.0359 -1.3688
17870TIP3    H275102   4.647   3.550  16.323 -0.8233 -0.3616 -2.0224
17871TIP3   OH275103   4.953   2.950   1.724  0.3191  0.2433 -0.7033
17871TIP3    H175104   4.944   2.928   1.816  0.2869 -0.3618 -0.8453
17871TIP3    H275105   4.936   2.868   1.678 -2.5024  1.1288 -1.4127
17872TIP3   OH275106   1.415   0.622   0.392  0.4108 -0.3692 -0.1328
17872TIP3    H175107   1.413   0.685   0.464 -2.9713  2.4907 -2.3687
17872TIP3    H275108   1.502   0.632   0.354  1.0138  0.6451  1.4047
17873TIP3   OH275109   1.829   3.438  16.822  0.4712 -0.9792  0.4778
17873TIP3    H175110   1.763   3.424  16.754  1.7994 -1.9524 -0.6857
17873TIP3    H275111   1.812   3.369  16.886 -0.3582 -0.4867  0.8041
17874TIP3   OH275112   6.754   1.412   1.476  0.4742  0.4047  0.1813
17874TIP3    H175113   6.711   1.353   1.414  1.4706 -0.5149  0.3295
17874TIP3    H275114   6.846   1.387   1.473  0.4973  0.0114  2.3636
17875TIP3   OH275115   3.742   1.803  16.822  0.1261 -0.0694  0.4763
17875TIP3    H175116   3.830   1.769  16.839 -0.3114 -2.0403 -0.8537
17875TIP3    H275117   3.697   1.731  16.778 -1.9780  1.1076  0.5878
17876TIP3   OH275118   3.888   4.284   0.090 -0.0992  0.7691 -0.4641
17876TIP3    H175119   3.902   4.282  -0.005  1.3977  1.6566 -0.3050
17876TIP3    H275120   3.836   4.206   0.108  1.3806 -0.6209 -1.7766
17877TIP3   OH275121   4.003   1.799  17.120  0.4614  0.4734 -0.5003
17877TIP3    H175122   4.057   1.870  17.084 -0.4591  1.4105 -0.1031
17877TIP3    H275123   4.034   1.720  17.076  1.8801  1.0389 -0.5700
17878TIP3   OH275124   0.366   0.720  13.851 -0.5898  0.3759 -0.5046
17878TIP3    H175125   0.348   0.655  13.918 -2.8104  1.2220 -0.1985
17878TIP3    H275126   0.391   0.668  13.774  0.7923 -0.6484  0.5681
17879TIP3   OH275127   2.376   6.347   1.491 -0.2793 -0.5713  0.3427
17879TIP3    H175128   2.380   6.319   1.583 -0.8917 -1.0344  0.2292
17879TIP3    H275129   2.302   6.300   1.455  0.3943 -0.9371 -0.5906
17880TIP3   OH275130   3.669   0.355  14.497  0.6155  0.1187  0.1338
17880TIP3    H175131   3.667   0.420  14.427  1.9983 -1.6750 -1.6759
17880TIP3    H275132   3.757   0.361  14.533  0.5308 -0.2832  0.4148
17881TIP3   OH275133   6.095   0.410   2.552  0.2957 -0.3390 -0.4801
17881TIP3    H175134   6.063   0.405   2.642 -3.3842  1.1074 -1.5161
17881TIP3    H275135   6.112   0.503   2.537  2.6172 -0.7514 -0.8482
17882TIP3   OH275136   0.109   5.143  16.427 -0.1197  0.1660  0.0999
17882TIP3    H175137   0.154   5.154  16.511 -0.0421  0.7702 -0.0191
17882TIP3    H275138   0.040   5.080  16.446 -1.8824  2.3248  1.3092
17883TIP3   OH275139   3.466   6.190   0.159 -0.0588  0.3971 -0.1565
17883TIP3    H175140   3.452   6.268   0.212 -1.1753  0.7024 -0.8632
17883TIP3    H275141   3.423   6.210   0.076 -0.5838 -1.0615 -0.2637
17884TIP3   OH275142   5.937   3.443  13.806 -0.1496 -0.2831 -0.5342
17884TIP3    H175143   5.856   3.486  13.777  0.5313  1.2399 -0.2842
17884TIP3    H275144   5.976   3.505  13.867  0.9663 -1.2255 -0.2611
17885TIP3   OH275145   5.720   1.861  16.351  0.2606  0.2629  0.0773
17885TIP3    H175146   5.746   1.799  16.419  0.6878 -0.0132 -0.3320
17885TIP3    H275147   5.682   1.935  16.400 -1.6118 -0.9144  0.5006
17886TIP3   OH275148   4.475   0.896   1.725 -0.2783  0.0112 -0.7858
17886TIP3    H175149   4.431   0.977   1.752  0.2976  1.3644 -3.5341
17886TIP3    H275150   4.445   0.881   1.635  3.4319  0.0574 -2.2012
17887TIP3   OH275151   4.304   3.534   4.558 -0.5063 -0.1681 -0.1732
17887TIP3    H175152   4.301   3.439   4.553  0.1163 -0.1197 -2.1991
17887TIP3    H275153   4.250   3.564   4.485  1.7585  0.9442 -1.5197
17888TIP3   OH275154   2.163   5.815  12.740  0.1746  0.2047  0.3452
17888TIP3    H175155   2.217   5.888  12.769  1.7308 -1.3032  1.4407
17888TIP3    H275156   2.214   5.737  12.761  0.0466 -1.1920 -3.6950
17889TIP3   OH275157   2.546   5.395  14.528  0.2177  0.1396  0.3495
17889TIP3    H175158   2.506   5.316  14.492  0.6798  0.5146 -1.0367
17889TIP3    H275159   2.635   5.369  14.551 -0.1976 -0.2037  1.6604
17890TIP3   OH275160   3.705   2.624  13.487 -0.3065 -0.5432 -0.4644
17890TIP3    H175161   3.757   2.563  13.435  1.0460  1.8732 -2.1683
17890TIP3    H275162   3.698   2.702  13.432 -1.1731  1.1823  1.9261
17891TIP3   OH275163   2.407   4.527   2.685  0.2258 -0.5893 -0.0561
17891TIP3    H175164   2.437   4.585   2.615 -0.1570  0.3091  0.4999
17891TIP3    H275165   2.371   4.587   2.751  0.1552 -1.4479  0.6943
17892TIP3   OH275166   1.401   4.144   1.222 -0.4680 -0.1383  0.0601
17892TIP3    H175167   1.356   4.226   1.202 -2.2919 -1.3321 -0.9505
17892TIP3    H275168   1.479   4.171   1.271 -0.7163  2.2272 -0.7325
17893TIP3   OH275169   4.283   5.227   0.143 -0.2202  0.1282 -0.1084
17893TIP3    H175170   4.272   5.302   0.084  0.6853 -0.1332 -0.6292
17893TIP3    H275171   4.194   5.205   0.170 -0.5232  1.2332 -0.1429
17894TIP3   OH275172   3.148   3.356   3.936  0.1955  0.3478 -0.2401
17894TIP3    H175173   3.223   3.386   3.886 -0.3630  0.6356 -0.9202
17894TIP3    H275174   3.089   3.432   3.939  0.5941  0.6431  1.6271
17895TIP3   OH275175   6.662   3.565  13.250 -0.7976  0.2195 -0.0505
17895TIP3    H175176   6.663   3.546  13.344 -0.1845 -1.5341 -0.3767
17895TIP3    H275177   6.630   3.655  13.244  1.7758  1.4092  2.0058
17896TIP3   OH275178   1.823   4.943  12.479 -0.2869 -0.6502  0.1393
17896TIP3    H175179   1.908   4.940  12.435 -1.0413 -0.7265 -1.3687
17896TIP3    H275180   1.822   4.864  12.533  0.2287 -1.1386 -0.5408
17897TIP3   OH275181   6.164   0.378  13.895  1.1314 -0.4924  0.4056
17897TIP3    H175182   6.185   0.324  13.972  0.0649 -2.5818 -0.6782
17897TIP3    H275183   6.203   0.330  13.822  1.5593  1.1143 -0.4523
17898TIP3   OH275184   3.415   2.009  13.763  0.4132 -0.1475 -0.0928
17898TIP3    H175185   3.328   2.019  13.724  0.3326 -1.3328 -0.2752
17898TIP3    H275186   3.412   2.063  13.842 -0.3540  0.1368 -0.3031
17899TIP3   OH275187   0.670   6.299   0.182  0.2180  0.0837 -0.1123
17899TIP3    H175188   0.683   6.265   0.270 -1.1043  1.0624  0.4875
17899TIP3    H275189   0.637   6.387   0.194 -1.0406 -0.1374 -1.5635
17900TIP3   OH275190   1.166   5.897  16.723 -0.3994 -0.3196  0.2900
17900TIP3    H175191   1.221   5.865  16.651 -1.5633 -0.4748 -0.5683
17900TIP3    H275192   1.213   5.972  16.758  1.3218 -1.6341  0.8997
17901TIP3   OH275193   3.186   6.649  12.241  0.3820  0.3551  0.0271
17901TIP3    H175194   3.223   6.686  12.161  0.5150 -2.0551 -1.1184
17901TIP3    H275195   3.258   6.650  12.304  0.4951  1.5366 -0.0845
17902TIP3   OH275196   2.545   2.740   4.792 -0.4223  0.1609 -0.3376
17902TIP3    H175197   2.623   2.771   4.745  0.7358  0.7341  1.8040
17902TIP3    H275198   2.473   2.754   4.731  0.4961  3.9617 -0.8200
17903TIP3   OH275199   3.182   0.938  15.046 -0.2707 -0.2964 -0.1038
17903TIP3    H175200   3.104   0.924  15.099 -0.0314  0.4181  0.4438
17903TIP3    H275201   3.236   0.997  15.098  0.6867 -0.8723 -0.4324
17904TIP3   OH275202   3.661   6.645   1.404 -0.4522  0.0180  0.0865
17904TIP3    H175203   3.711   6.669   1.482  1.3149 -0.7011 -0.7811
17904TIP3    H275204   3.727   6.627   1.337 -1.9135  1.1384 -1.7754
17905TIP3   OH275205   5.192   5.150   4.380  0.1628  0.5960 -0.1828
17905TIP3    H175206   5.248   5.173   4.306 -1.1218 -0.2605 -1.4806
17905TIP3    H275207   5.105   5.179   4.354 -0.1925  0.9595  1.3392
17906TIP3   OH275208   2.017   1.096  14.260  0.5370 -0.0271 -0.2462
17906TIP3    H175209   2.108   1.100  14.290  0.5803 -0.7285 -0.2556
17906TIP3    H275210   1.980   1.182  14.281  1.3859  0.5002 -0.8452
17907TIP3   OH275211   1.164   5.511  10.684 -0.9878  0.3106 -0.0399
17907TIP3    H175212   1.231   5.579  10.682 -2.8250  2.1916 -0.7291
17907TIP3    H275213   1.137   5.499  10.593 -1.6388 -0.3672  0.2231
17908TIP3   OH275214   2.775   0.130   5.317  0.1170 -0.2628  0.1659
17908TIP3    H175215   2.808   0.217   5.295  0.2908 -0.0888  1.0557
17908TIP3    H275216   2.810   0.113   5.405 -1.2105 -0.5565  0.6662
17909TIP3   OH275217   5.599   4.975   1.101  0.5037 -0.0633  0.4109
17909TIP3    H175218   5.589   4.996   1.008  1.3632 -1.1496  0.0484
17909TIP3    H275219   5.657   5.043   1.134 -0.3304  0.7080  0.3124
17910TIP3   OH275220   0.146   0.622   2.868  0.1881  0.1026  0.5138
17910TIP3    H175221   0.178   0.579   2.947  1.3311  0.7312  0.4087
17910TIP3    H275222   0.053   0.637   2.885  0.6259  1.2059  2.2039
17911TIP3   OH275223   1.143   2.072  14.439 -0.1986 -0.1926  0.1883
17911TIP3    H175224   1.127   2.128  14.515 -2.1563 -0.4202 -0.0002
17911TIP3    H275225   1.218   2.112  14.395  0.1047  0.7270  1.4926
17912TIP3   OH275226   5.704   4.281   5.119 -0.3483 -0.0358  0.0653
17912TIP3    H175227   5.773   4.233   5.166  0.2058 -1.1546 -1.8115
17912TIP3    H275228   5.625   4.266   5.170  0.3822 -0.5033  1.0931
17913TIP3   OH275229   6.160   2.160  15.661 -0.5973 -0.1084 -0.5416
17913TIP3    H175230   6.210   2.186  15.739  0.5022 -0.1113 -1.2191
17913TIP3    H275231   6.179   2.067  15.650 -1.3784 -0.2942 -0.3738
17914TIP3   OH275232   2.952   2.195   0.650 -0.0867  0.1608 -0.1912
17914TIP3    H175233   2.880   2.234   0.699 -0.0817 -1.6014  1.3370
17914TIP3    H275234   3.026   2.198   0.710 -0.2525 -2.6706  0.2743
17915TIP3   OH275235   1.408   6.287   2.802 -0.0405 -0.0888  0.4407
17915TIP3    H175236   1.469   6.237   2.748  1.5655  1.6468  0.5259
17915TIP3    H275237   1.449   6.290   2.888 -0.6632  0.4063  0.7256
17916TIP3   OH275238   0.719   0.973   2.717  0.2585 -0.1614 -0.3098
17916TIP3    H175239   0.717   1.043   2.783  0.6733  0.0537 -0.5176
17916TIP3    H275240   0.693   0.894   2.765  0.6686 -0.0276  0.1463
17917TIP3   OH275241   5.756   6.259  15.349 -0.5959 -0.0027 -0.3365
17917TIP3    H175242   5.697   6.203  15.300 -0.1989 -0.0970 -0.7150
17917TIP3    H275243   5.820   6.289  15.284 -1.0665  1.2660 -0.2541
17918TIP3   OH275244   6.749   3.192   1.044 -0.6049 -0.0199 -0.3476
17918TIP3    H175245   6.794   3.276   1.052 -0.0836 -0.4157  1.0851
17918TIP3    H275246   6.789   3.151   0.967  0.7376  0.1091  0.2508
17919TIP3   OH275247   4.795   3.202   3.430  0.2792 -0.1989  0.1020
17919TIP3    H175248   4.826   3.200   3.520  1.1879 -2.7922 -0.1525
17919TIP3    H275249   4.872   3.227   3.379 -0.6172  2.8478  0.0528
17920TIP3   OH275250   1.882   2.877  16.290 -0.0577  0.7784 -0.6245
17920TIP3    H175251   1.842   2.894  16.375 -1.9643 -0.5225 -1.1818
17920TIP3    H275252   1.975   2.868  16.308 -0.5330 -0.5533  1.5347
17921TIP3   OH275253   3.121   4.249  13.577  0.1736 -0.3507  0.5166
17921TIP3    H175254   3.119   4.288  13.490 -2.7239  0.7004  0.9221
17921TIP3    H275255   3.146   4.158  13.563  2.2425  0.3994 -1.0626
17922TIP3   OH275256   1.218   2.955  11.961  0.1494  0.6344  0.3861
17922TIP3    H175257   1.143   2.903  11.934  0.4887  0.7596 -0.8433
17922TIP3    H275258   1.289   2.927  11.902  1.5222 -0.5990  2.4712
17923TIP3   OH275259   1.478   4.289  13.961 -0.4011  0.0471 -0.1201
17923TIP3    H175260   1.402   4.232  13.972 -0.4213 -0.2713 -1.7114
17923TIP3    H275261   1.549   4.230  13.937  0.1265  0.4575  0.3938
17924TIP3   OH275262   5.600   3.438   2.000  0.3398  0.2285 -0.3425
17924TIP3    H175263   5.527   3.382   1.973  0.2103 -0.1078  0.6516
17924TIP3    H275264   5.656   3.444   1.923  1.0764 -2.4114 -0.1359
17925TIP3   OH275265   3.298   2.618   6.586 -0.2694 -0.9321 -0.1579
17925TIP3    H175266   3.246   2.696   6.604  1.2041  0.7037 -2.4606
17925TIP3    H275267   3.247   2.570   6.521 -0.3358 -0.9835 -0.0696
17926TIP3   OH275268   1.544   3.314  15.747  0.6120  0.2795 -0.3931
17926TIP3    H175269   1.549   3.294  15.840  2.5129  0.2128 -0.4781
17926TIP3    H275270   1.634   3.309  15.716  0.1258  1.1192 -2.0754
17927TIP3   OH275271   1.959   4.339  10.983 -0.5500 -0.1067  0.3059
17927TIP3    H175272   1.952   4.256  10.936 -0.4629 -0.3276  0.6742
17927TIP3    H275273   2.052   4.362  10.976 -0.5454 -0.1170  0.3315
17928TIP3   OH275274   5.077   5.106  13.074 -0.1913 -0.4420  0.1570
17928TIP3    H175275   5.166   5.073  13.072 -0.5613 -1.9504  2.9545
17928TIP3    H275276   5.081   5.192  13.031  2.9029  0.1814  1.4581
17929TIP3   OH275277   0.800   4.653   5.518  0.1048 -0.0581  0.0859
17929TIP3    H175278   0.813   4.592   5.446  2.1131 -0.1367  0.4516
17929TIP3    H275279   0.809   4.599   5.597 -0.2955  0.3267  0.3965
17930TIP3   OH275280   1.595   2.240   1.082 -0.3622 -0.1517  0.8116
17930TIP3    H175281   1.523   2.268   1.026 -0.3161 -1.3005  0.1501
17930TIP3    H275282   1.582   2.146   1.094  0.7286 -0.2862  1.1121
17931TIP3   OH275283   4.771   6.786   5.035 -0.0336 -0.3398  0.1798
17931TIP3    H175284   4.717   6.711   5.011  1.4293 -1.1886 -0.5732
17931TIP3    H275285   4.800   6.823   4.952 -0.6310  1.0127  0.5431
17932TIP3   OH275286   0.489   3.548  10.755 -0.1264  0.3702 -0.3821
17932TIP3    H175287   0.407   3.532  10.800 -1.2595 -0.3256 -2.5425
17932TIP3    H275288   0.496   3.643  10.750 -1.0739  0.4358 -0.6292
17933TIP3   OH275289   2.319   4.573   0.585 -0.3344 -0.1277 -0.6802
17933TIP3    H175290   2.351   4.491   0.624 -0.5648 -1.1935 -2.5951
17933TIP3    H275291   2.324   4.558   0.490 -0.0453  2.2413 -1.0916
17934TIP3   OH275292   5.552   4.549   4.452 -0.2507 -0.0296 -0.0346
17934TIP3    H175293   5.598   4.539   4.535  0.3047 -1.2872 -0.4638
17934TIP3    H275294   5.460   4.538   4.474 -0.1721  0.3714  0.5176
17935TIP3   OH275295   4.557   6.628  13.502  0.3855 -0.3471 -0.4549
17935TIP3    H175296   4.499   6.554  13.483 -0.7647  0.0843  1.1495
17935TIP3    H275297   4.623   6.592  13.562 -0.0902 -0.1392  0.2112
17936TIP3   OH275298   1.862   6.108   0.150  0.0832 -0.2213  0.1803
17936TIP3    H175299   1.873   6.086   0.058 -1.6323 -0.0657 -0.0974
17936TIP3    H275300   1.857   6.204   0.152 -2.6255 -0.2879  0.0164
17937TIP3   OH275301   0.217   0.702  15.317 -0.3217 -0.1241 -0.5438
17937TIP3    H175302   0.144   0.763  15.325  0.0591  0.4310 -1.1492
17937TIP3    H275303   0.289   0.755  15.282  0.5471 -0.5244  0.5559
17938TIP3   OH275304   4.802   0.116  12.822  0.1104  0.2286 -0.4587
17938TIP3    H175305   4.877   0.078  12.777  0.4152  1.4025 -0.9694
17938TIP3    H275306   4.748   0.153  12.752 -0.4626  0.2377 -0.0229
17939TIP3   OH275307   2.579   5.578   2.478  0.0183  0.6720 -0.2126
17939TIP3    H175308   2.484   5.575   2.495  0.0307  0.4996 -0.1781
17939TIP3    H275309   2.585   5.592   2.383 -0.0404  0.5155 -0.2402
17940TIP3   OH275310   1.009   2.167  15.381  0.6280  0.3449  0.0970
17940TIP3    H175311   1.000   2.074  15.400  2.3438  0.3651  1.2371
17940TIP3    H275312   1.064   2.201  15.452  1.4352  1.8885 -1.2022
17941TIP3   OH275313   0.775   4.161  13.227 -0.0217 -0.2787 -0.0031
17941TIP3    H175314   0.763   4.091  13.290  1.6548 -0.3205  0.3175
17941TIP3    H275315   0.865   4.191  13.241 -0.0317  0.5609 -1.5090
17942TIP3   OH275316   4.106   2.007  16.680  0.1185 -0.2974  0.1334
17942TIP3    H175317   4.175   2.073  16.686 -0.2232  0.1152 -0.3303
17942TIP3    H275318   4.064   2.024  16.595  0.4681 -1.5579 -0.3066
17943TIP3   OH275319   4.615   4.517   3.509 -0.4489  0.0113 -0.5049
17943TIP3    H175320   4.544   4.458   3.483  0.3786 -2.0777  1.6396
17943TIP3    H275321   4.580   4.564   3.585  0.2045 -0.5533  0.1571
17944TIP3   OH275322   1.833   1.957  11.982 -0.3788 -0.1647  1.0283
17944TIP3    H175323   1.868   2.036  11.939  0.4618 -1.7856 -1.4641
17944TIP3    H275324   1.743   1.981  12.004 -1.0513  0.7408 -2.0981
17945TIP3   OH275325   1.840   5.134  11.782 -0.5184 -0.3537  0.4179
17945TIP3    H175326   1.776   5.111  11.715 -1.0151 -1.8780  1.3861
17945TIP3    H275327   1.921   5.094  11.752 -0.6046 -0.5617  0.4666
17946TIP3   OH275328   1.549   0.618  14.259  0.3487 -0.4783 -0.5343
17946TIP3    H175329   1.589   0.587  14.340 -0.3416 -1.9926 -0.7428
17946TIP3    H275330   1.586   0.706  14.247 -0.5013  0.3525  2.0925
17947TIP3   OH275331   4.489   3.148  12.074 -0.7834  0.1885  0.4120
17947TIP3    H175332   4.444   3.134  11.991 -0.7612 -2.7937  0.7906
17947TIP3    H275333   4.582   3.144  12.052 -0.7567 -1.9735  0.6512
17948TIP3   OH275334   1.395   0.711  10.788  0.3840 -0.1600 -0.0005
17948TIP3    H175335   1.357   0.770  10.723  1.1978  0.4076  0.0113
17948TIP3    H275336   1.370   0.623  10.759 -2.4069  0.2085  0.9788
17949TIP3   OH275337   3.164   6.602  14.244 -0.4544  0.1517 -0.3320
17949TIP3    H175338   3.083   6.644  14.273 -1.1334 -0.3143 -1.5086
17949TIP3    H275339   3.161   6.515  14.283  0.4297  0.7537  1.1981
17950TIP3   OH275340   4.401   3.939   5.099  0.8334  0.3260  0.1509
17950TIP3    H175341   4.473   3.938   5.161 -0.2658 -0.6407  1.4572
17950TIP3    H275342   4.331   3.988   5.143  0.5737  0.9936 -0.9652
17951TIP3   OH275343   2.923   2.521  14.211 -0.0883 -0.4314  0.1793
17951TIP3    H175344   2.882   2.435  14.207  0.4840 -0.6507 -2.0678
17951TIP3    H275345   2.999   2.515  14.152 -2.0815  2.5958 -3.0822
17952TIP3   OH275346   4.376   2.007   0.693 -0.1705 -0.0653  0.1395
17952TIP3    H175347   4.372   2.099   0.717 -0.5751  0.0761 -0.4568
17952TIP3    H275348   4.376   2.007   0.597 -0.2577 -0.6857  0.1352
17953TIP3   OH275349   4.024   5.945  14.378 -0.3268  0.0374  0.1277
17953TIP3    H175350   4.046   6.038  14.377  0.4983 -0.1530 -0.4822
17953TIP3    H275351   3.934   5.942  14.410 -0.4033  1.0522  0.0393
17954TIP3   OH275352   2.559   5.849  12.753 -0.9907  0.0458 -0.3980
17954TIP3    H175353   2.597   5.848  12.665  0.3907  1.9239  0.1105
17954TIP3    H275354   2.627   5.889  12.808 -2.1211 -0.3773  1.3881
17955TIP3   OH275355   3.022   6.811  11.430  0.1372  0.1056  0.3016
17955TIP3    H175356   3.095   6.760  11.396  0.5206  0.8139  0.0358
17955TIP3    H275357   2.994   6.764  11.509 -0.2889 -1.1564 -0.5654
17956TIP3   OH275358   5.459   5.353  14.655 -0.3497 -0.1166  0.2776
17956TIP3    H175359   5.399   5.419  14.619  0.9737  0.2465 -1.3674
17956TIP3    H275360   5.445   5.276  14.599  0.4771 -0.1265  0.0747
17957TIP3   OH275361   4.011   0.339   6.373  0.2878  0.3248 -0.2749
17957TIP3    H175362   4.077   0.278   6.342 -0.2213  0.3804 -1.5085
17957TIP3    H275363   4.058   0.421   6.386  0.3592  0.5665 -1.8463
17958TIP3   OH275364   1.451   1.536  11.602 -0.1057 -0.5599 -0.2600
17958TIP3    H175365   1.475   1.511  11.513  0.9987  1.2497 -0.5287
17958TIP3    H275366   1.358   1.555  11.598  0.1585  0.5742 -1.3192
17959TIP3   OH275367   6.693   2.245   3.124  0.1077  0.5997 -0.6013
17959TIP3    H175368   6.632   2.261   3.052  0.0691  0.5463 -0.5800
17959TIP3    H275369   6.649   2.279   3.201 -1.1244 -1.9791 -0.0921
17960TIP3   OH275370   6.810   6.558   1.529  0.5271 -0.2569 -0.0731
17960TIP3    H175371   6.853   6.490   1.581  0.7034 -0.2586 -0.2178
17960TIP3    H275372   6.844   6.545   1.440  1.1473  0.4993  0.0447
17961TIP3   OH275373   3.261   0.083  10.821  0.2390  0.0368  0.2072
17961TIP3    H175374   3.192   0.132  10.865 -0.5883 -0.9379  0.0076
17961TIP3    H275375   3.226   0.064  10.734  0.1225 -1.7777  0.6118
17962TIP3   OH275376   4.542   6.309  14.044 -0.0405 -0.5007 -0.6108
17962TIP3    H175377   4.475   6.241  14.034  0.4039 -1.0648  0.0970
17962TIP3    H275378   4.525   6.370  13.972  0.4388 -2.1146 -2.1863
17963TIP3   OH275379   5.668   2.666   4.749  0.1919  0.0060 -0.4072
17963TIP3    H175380   5.680   2.575   4.776  1.1359 -0.4931 -2.3199
17963TIP3    H275381   5.756   2.696   4.726 -0.2307  1.1408 -0.6153
17964TIP3   OH275382   0.651   2.862   4.632  0.3400  0.2354  0.3642
17964TIP3    H175383   0.721   2.813   4.588  0.6733 -0.5356  1.7085
17964TIP3    H275384   0.677   2.864   4.724 -1.7669 -0.7272  1.0530
17965TIP3   OH275385   3.328   0.525   0.567  0.1006  0.9812 -0.7663
17965TIP3    H175386   3.414   0.486   0.554  0.6579  0.5467  3.0253
17965TIP3    H275387   3.344   0.619   0.577  0.0138  1.0181 -0.9717
17966TIP3   OH275388   4.567   3.485   1.131  0.1430  0.0351  0.2208
17966TIP3    H175389   4.547   3.565   1.082  0.6469  0.2339  0.3373
17966TIP3    H275390   4.573   3.417   1.064  0.3914  0.2220  0.0517
17967TIP3   OH275391   4.769   4.427   0.081  0.0783 -0.2812  0.3668
17967TIP3    H175392   4.786   4.367   0.008 -2.1151  0.3201 -0.7221
17967TIP3    H275393   4.805   4.511   0.051  0.2654 -0.3139  0.5003
17968TIP3   OH275394   1.135   4.400  14.347  0.2180  0.0920 -0.2646
17968TIP3    H175395   1.137   4.495  14.362 -0.7377  0.0133  0.3997
17968TIP3    H275396   1.106   4.391  14.256  0.5660  0.4310 -0.4167
17969TIP3   OH275397   3.620   0.997   1.246  0.0067 -0.8781 -0.3023
17969TIP3    H175398   3.685   1.023   1.182 -0.2480 -0.0087 -0.2203
17969TIP3    H275399   3.663   0.930   1.299  1.1078  0.2085  0.2190
17970TIP3   OH275400   0.607   1.230   1.417  0.4574 -0.1440  0.1852
17970TIP3    H175401   0.580   1.267   1.333 -0.9054 -0.2696  0.5364
17970TIP3    H275402   0.674   1.290   1.450  1.6139 -0.5423 -1.3466
17971TIP3   OH275403   5.912   5.898  12.208  0.5823 -0.4416  0.0942
17971TIP3    H175404   5.942   5.868  12.123  2.9840 -0.0798  0.7569
17971TIP3    H275405   5.913   5.819  12.263  1.1178 -0.2697  0.3306
17972TIP3   OH275406   4.692   2.364  12.174  0.4748  1.1874  0.2891
17972TIP3    H175407   4.621   2.416  12.212 -1.2758 -2.8828  3.3861
17972TIP3    H275408   4.757   2.358  12.243  0.2969 -1.1418  0.3237
17973TIP3   OH275409   5.796   5.122   0.545  0.3820  0.4499 -0.0766
17973TIP3    H175410   5.841   5.203   0.522  2.0174 -0.2761  0.4300
17973TIP3    H275411   5.749   5.143   0.626 -0.4674  1.3057 -0.7784
17974TIP3   OH275412   3.748   1.629   4.196 -0.4350 -0.2337 -0.3080
17974TIP3    H175413   3.730   1.627   4.290 -0.2086  0.0269 -0.2570
17974TIP3    H275414   3.671   1.589   4.156  0.5922 -2.8334  0.1268
17975TIP3   OH275415   0.290   1.127   1.235  0.3140  0.2822 -0.1455
17975TIP3    H175416   0.336   1.209   1.220  0.7646 -0.0642 -0.7030
17975TIP3    H275417   0.351   1.075   1.287  0.2403  0.1035 -0.2371
17976TIP3   OH275418   0.155   0.896  13.681  0.1753 -0.0831  0.7613
17976TIP3    H175419   0.224   0.832  13.700  0.6130 -0.0230 -0.5737
17976TIP3    H275420   0.098   0.851  13.619  0.3701  0.7473 -0.0294
17977TIP3   OH275421   2.743   2.425  11.017  0.2552  0.3835  0.0403
17977TIP3    H175422   2.770   2.397  10.930 -1.4420  2.5186 -1.2920
17977TIP3    H275423   2.824   2.429  11.068  1.1351 -1.9867 -1.0537
17978TIP3   OH275424   1.583   2.239  11.828  0.1428 -0.2539 -0.0809
17978TIP3    H175425   1.638   2.168  11.795 -0.0337 -0.3517 -0.1707
17978TIP3    H275426   1.498   2.225  11.785  0.5972  1.0223 -1.4652
17979TIP3   OH275427   6.720   6.150   4.902  0.3326 -0.2283  0.0723
17979TIP3    H175428   6.752   6.069   4.940  0.3851  0.3833  1.3779
17979TIP3    H275429   6.794   6.211   4.907 -0.3954  0.5968  1.2873
17980TIP3   OH275430   1.851   3.582   1.377  0.7807  0.0302 -0.2847
17980TIP3    H175431   1.822   3.671   1.397  1.3380 -0.0474  0.9493
17980TIP3    H275432   1.946   3.584   1.392  0.8059 -0.7559 -0.3047
17981TIP3   OH275433   2.933   1.840  12.530  0.0218 -0.2324 -0.3494
17981TIP3    H175434   2.904   1.750  12.516 -0.0884 -0.0240 -1.5730
17981TIP3    H275435   2.995   1.857  12.459  1.0621  0.2339  0.6329
17982TIP3   OH275436   2.460   4.300  12.915 -0.3079  0.5747  0.4410
17982TIP3    H175437   2.530   4.327  12.975  2.1558 -2.4773 -0.7961
17982TIP3    H275438   2.461   4.367  12.847  0.0180  1.6275  1.4337
17983TIP3   OH275439   5.760   3.392  16.829 -0.4374 -0.0860  0.3049
17983TIP3    H175440   5.783   3.311  16.783 -0.6006 -0.5090  0.9617
17983TIP3    H275441   5.755   3.458  16.759 -1.4797 -0.8786 -0.4006
17984TIP3   OH275442   0.269   4.979   2.495  0.3030  0.2919 -0.1128
17984TIP3    H175443   0.266   4.885   2.510 -0.1872  0.4673  0.9797
17984TIP3    H275444   0.362   5.001   2.498  0.5542 -0.3450 -1.8129
17985TIP3   OH275445   5.589   1.651   2.062 -0.1253 -0.1014 -0.5814
17985TIP3    H175446   5.592   1.666   1.967  0.1065 -0.8530 -0.7000
17985TIP3    H275447   5.557   1.562   2.071 -0.7683  0.1880  0.0794
17986TIP3   OH275448   1.693   2.366  15.304  0.2733  0.1600  0.0554
17986TIP3    H175449   1.609   2.385  15.264 -0.8853  0.7118  2.5150
17986TIP3    H275450   1.703   2.271  15.295  0.2547  0.3038 -1.7593
17987TIP3   OH275451   3.271   1.011   4.623  0.4526 -0.2617 -0.1626
17987TIP3    H175452   3.296   1.092   4.578  0.5048 -0.1022  0.1459
17987TIP3    H275453   3.344   0.951   4.608  0.6425 -0.0799  0.0351
17988TIP3   OH275454   6.797   2.524  14.253  0.3731 -0.1535  0.7554
17988TIP3    H175455   6.858   2.523  14.327 -0.8033 -1.1329  1.7638
17988TIP3    H275456   6.820   2.446  14.202  0.5771  0.0056  0.6025
17989TIP3   OH275457   2.030   1.691  11.696  0.3670 -0.8571 -0.3383
17989TIP3    H175458   2.052   1.652  11.781  0.6444 -1.5412 -0.7254
17989TIP3    H275459   1.968   1.630  11.656 -1.7965  0.6825  0.4273
17990TIP3   OH275460   5.158   1.705  17.123 -0.0678  0.6852 -0.4069
17990TIP3    H175461   5.243   1.669  17.148  0.1569  0.4839 -1.4413
17990TIP3    H275462   5.100   1.629  17.120  0.0972  0.5901 -1.2908
17991TIP3   OH275463   6.788   6.219   2.672 -0.0194 -0.0574 -0.0211
17991TIP3    H175464   6.813   6.227   2.580  0.1541  0.4776  0.0693
17991TIP3    H275465   6.778   6.125   2.686  1.8092 -0.2947 -0.0974
17992TIP3   OH275466   5.872   5.156  15.520  0.1692  0.0182  0.1758
17992TIP3    H175467   5.787   5.172  15.480  1.1829 -0.9303 -2.5965
17992TIP3    H275468   5.924   5.233  15.498  1.0487 -0.9616 -1.3391
17993TIP3   OH275469   0.377   5.929  12.104  0.6216 -0.4103 -0.2543
17993TIP3    H175470   0.409   5.888  12.023  1.0296 -0.6610  0.0311
17993TIP3    H275471   0.405   5.869  12.173 -0.6219 -0.7266 -0.0042
17994TIP3   OH275472   0.333   6.494   4.412 -0.6615 -0.3842 -0.3759
17994TIP3    H175473   0.329   6.421   4.350 -1.6519  0.5519 -1.4776
17994TIP3    H275474   0.408   6.475   4.468  0.6009 -1.0347 -2.2114
17995TIP3   OH275475   2.245   3.553  10.750 -0.8314  0.3110 -0.5124
17995TIP3    H175476   2.306   3.483  10.776 -1.1909  0.1227 -0.1605
17995TIP3    H275477   2.220   3.594  10.833 -0.2230  1.2034 -0.7501
17996TIP3   OH275478   2.576   6.326  16.136  0.3320  0.5599  0.3628
17996TIP3    H175479   2.573   6.272  16.057  2.8885  1.3749 -0.3776
17996TIP3    H275480   2.656   6.299  16.181  0.7558  2.5057  0.8607
17997TIP3   OH275481   1.534   2.467  14.898 -0.1278 -0.7924  0.0827
17997TIP3    H175482   1.546   2.408  14.824  3.7538 -0.3167  0.1417
17997TIP3    H275483   1.555   2.415  14.975  2.6069  0.3300  0.1929
17998TIP3   OH275484   1.555   6.657   2.199  0.2981  0.1567  0.0993
17998TIP3    H175485   1.460   6.660   2.188  0.2500 -0.5423  0.2761
17998TIP3    H275486   1.579   6.745   2.229  0.0325  1.2052 -2.4691
17999TIP3   OH275487   6.087   4.128   6.124  0.1591 -0.2582 -0.1941
17999TIP3    H175488   6.181   4.112   6.134  0.1413 -0.0059  0.4405
17999TIP3    H275489   6.047   4.080   6.196  0.0094  1.6010  1.0331
18000TIP3   OH275490   0.325   2.120  12.666 -0.5335 -0.0523 -0.4472
18000TIP3    H175491   0.393   2.144  12.729 -2.2498 -1.3097  2.0464
18000TIP3    H275492   0.365   2.138  12.581  2.1330  1.2055  0.9169
18001TIP3   OH275493   0.932   1.719  13.699  0.5574  0.6640  0.3416
18001TIP3    H175494   0.980   1.637  13.692  2.3371  1.7657 -1.9971
18001TIP3    H275495   0.906   1.725  13.791  0.9865 -2.1284  0.7109
18002TIP3   OH275496   6.247   1.878   2.960  0.2368  0.5745 -0.1483
18002TIP3    H175497   6.321   1.938   2.954  0.9045 -0.0615  1.2308
18002TIP3    H275498   6.170   1.934   2.964  0.8471  1.3623  1.1124
18003TIP3   OH275499   4.020   2.777   0.593  0.2469 -0.1455  0.4660
18003TIP3    H175500   3.938   2.729   0.584  0.2019  0.1526 -0.9333
18003TIP3    H275501   4.081   2.731   0.534  0.8488  0.1398  0.8544
18004TIP3   OH275502   5.985   3.221  12.267  0.0730  0.0678 -0.7012
18004TIP3    H175503   5.903   3.217  12.316  0.8330  1.4271  0.7759
18004TIP3    H275504   6.041   3.154  12.307  1.0419  1.8391  1.0758
18005TIP3   OH275505   5.478   2.561   6.206  0.7472 -0.1287  0.2052
18005TIP3    H175506   5.501   2.640   6.255 -0.3695 -0.0990  0.7047
18005TIP3    H275507   5.532   2.492   6.245 -0.7404 -0.2868  2.1110
18006TIP3   OH275508   0.905   5.982   6.040 -0.0173  0.1537 -0.1516
18006TIP3    H175509   0.934   6.067   6.005  1.4544 -0.2924 -0.0534
18006TIP3    H275510   0.985   5.931   6.049 -0.7256 -0.7864  1.0833
18007TIP3   OH275511   0.712   5.780   3.916 -0.1365 -0.3715 -0.5334
18007TIP3    H175512   0.758   5.729   3.982  0.2049 -1.2684 -1.4391
18007TIP3    H275513   0.654   5.837   3.966 -0.9812 -2.0677  0.5083
18008TIP3   OH275514   0.220   1.436  10.557  0.4681  0.5416  0.0477
18008TIP3    H175515   0.221   1.528  10.582  3.8964  0.5133  0.4549
18008TIP3    H275516   0.237   1.388  10.638  0.8422 -0.2860 -0.5031
18009TIP3   OH275517   4.283   2.577   2.087 -0.5256  0.4194 -0.4132
18009TIP3    H175518   4.296   2.658   2.136  1.3871 -0.2936  0.3324
18009TIP3    H275519   4.196   2.547   2.113 -1.4345  2.3611 -0.9750
18010TIP3   OH275520   1.233   6.262   1.496 -0.1412  0.1583  0.5393
18010TIP3    H175521   1.249   6.293   1.585  1.2758  1.5121 -0.1381
18010TIP3    H275522   1.304   6.200   1.479 -0.9788 -0.8588  0.6772
18011TIP3   OH275523   3.503   1.218   2.240 -0.3235  0.7401  0.1703
18011TIP3    H175524   3.492   1.128   2.270  1.1603  0.5750  0.2492
18011TIP3    H275525   3.433   1.267   2.284 -1.5345 -0.4615 -0.3497
18012TIP3   OH275526   0.459   0.492  15.002 -0.0474  0.1084  0.7043
18012TIP3    H175527   0.469   0.404  14.966 -0.9094  0.7919 -1.4008
18012TIP3    H275528   0.409   0.480  15.083 -2.3149 -1.1826 -0.7818
18013TIP3   OH275529   4.236   3.193   0.359  0.2470  0.1905 -0.4452
18013TIP3    H175530   4.258   3.177   0.451 -4.1818 -0.0325  0.7641
18013TIP3    H275531   4.269   3.115   0.314  3.5347  0.8100  0.5812
18014TIP3   OH275532   2.705   5.715  13.890  0.1872  0.6967 -0.0387
18014TIP3    H175533   2.650   5.642  13.919  0.7863  1.2654  2.8320
18014TIP3    H275534   2.753   5.681  13.815  0.5923 -1.9482  1.3237
18015TIP3   OH275535   2.979   2.947   4.108  0.7314 -0.6690  0.2149
18015TIP3    H175536   3.029   2.949   4.026  0.8400 -1.1755  0.2640
18015TIP3    H275537   2.895   2.988   4.086  1.1270  0.0877  0.1017
18016TIP3   OH275538   6.643   0.600  15.871  0.3487  0.3010  0.0819
18016TIP3    H175539   6.625   0.679  15.922 -1.4161 -0.3185  0.4770
18016TIP3    H275540   6.646   0.630  15.780 -1.6358  0.6591  0.0960
18017TIP3   OH275541   0.909   2.826  12.580  0.4110  0.6212 -0.7287
18017TIP3    H175542   0.979   2.888  12.557 -0.3348  1.2596 -1.3401
18017TIP3    H275543   0.953   2.742  12.588  1.3256  1.0936 -0.6465
18018TIP3   OH275544   2.194   6.746  11.352 -0.5414  0.4369  0.0632
18018TIP3    H175545   2.198   6.711  11.263 -2.3853 -1.2580  0.5745
18018TIP3    H275546   2.103   6.736  11.377  0.0259  0.4737  2.3157
18019TIP3   OH275547   2.823   0.490   1.375 -0.1919  0.3166 -0.2136
18019TIP3    H175548   2.884   0.539   1.430 -1.7450  1.7757  0.2663
18019TIP3    H275549   2.768   0.557   1.335 -0.3205 -0.8494 -2.0892
18020TIP3   OH275550   4.117   2.908  13.802 -0.3113 -0.1686 -0.2903
18020TIP3    H175551   4.195   2.870  13.762  1.0852  2.5645 -0.4266
18020TIP3    H275552   4.051   2.839  13.797  1.0555 -1.4368 -3.3770
18021TIP3   OH275553   4.047   1.607  13.004 -0.3269 -0.1508  0.4304
18021TIP3    H175554   4.000   1.648  13.076 -0.8296 -0.1772  0.1209
18021TIP3    H275555   3.980   1.592  12.938 -0.3674 -2.2716  0.8761
18022TIP3   OH275556   4.799   4.369  14.448 -0.3057  0.0678  0.0101
18022TIP3    H175557   4.799   4.426  14.371  2.0980  1.5818  1.0031
18022TIP3    H275558   4.747   4.416  14.513 -1.0149 -0.4504 -0.1749
18023TIP3   OH275559   3.503   2.924  15.685 -0.7088 -0.6838 -0.1354
18023TIP3    H175560   3.586   2.939  15.640  0.5245 -3.3038  1.0463
18023TIP3    H275561   3.437   2.964  15.629  1.1174 -0.5336 -2.2942
18024TIP3   OH275562   2.839   2.612  16.654 -0.2675 -0.3977  0.0294
18024TIP3    H175563   2.807   2.583  16.740  1.3740  2.2301  1.6610
18024TIP3    H275564   2.811   2.703  16.647  1.3696  0.0580 -1.3130
18025TIP3   OH275565   2.829   1.877  14.466 -0.3312 -0.4473 -0.8528
18025TIP3    H175566   2.829   1.794  14.418 -0.8401 -2.5403  2.3765
18025TIP3    H275567   2.744   1.879  14.511 -0.2831  1.8135 -0.7411
18026TIP3   OH275568   1.474   6.737  15.251 -0.1398 -0.3056  0.5353
18026TIP3    H175569   1.511   6.653  15.225 -2.1190 -1.2648  0.6057
18026TIP3    H275570   1.517   6.757  15.335  0.1987 -1.3496  0.6236
18027TIP3   OH275571   4.848   3.327  11.563 -0.0967 -0.0290  0.0904
18027TIP3    H175572   4.907   3.371  11.502  0.9084 -0.1403  0.9568
18027TIP3    H275573   4.776   3.296  11.508  0.9373 -0.4118 -1.0993
18028TIP3   OH275574   0.124   1.245  13.181 -0.1637 -0.3506 -0.5616
18028TIP3    H175575   0.112   1.161  13.226 -2.8708 -0.5931 -1.5112
18028TIP3    H275576   0.037   1.264  13.144  0.4813  2.6775 -0.7313
18029TIP3   OH275577   5.092   2.533   0.953 -0.7740  0.3960 -0.3208
18029TIP3    H175578   5.024   2.553   0.889 -0.6157 -0.8169 -0.8891
18029TIP3    H275579   5.126   2.448   0.927  0.4192  0.6150  0.4238
18030TIP3   OH275580   5.932   2.394   2.713 -0.1037 -0.0924 -0.6401
18030TIP3    H175581   5.966   2.482   2.729 -1.7740  0.7466 -1.4834
18030TIP3    H275582   5.891   2.399   2.627 -2.4433 -0.9556  0.3287
18031TIP3   OH275583   0.057   0.915  15.389 -0.0210 -0.0122  0.2720
18031TIP3    H175584   0.023   0.987  15.443  0.3330  1.3772 -1.2710
18031TIP3    H275585   0.090   0.958  15.310  4.3611 -1.3406  1.1345
18032TIP3   OH275586   2.380   4.119  16.266 -0.8507  0.1416 -0.6455
18032TIP3    H175587   2.456   4.089  16.315 -0.9824 -0.1624 -0.6247
18032TIP3    H275588   2.405   4.205  16.233  1.4205 -1.7187 -4.6317
18033TIP3   OH275589   5.759   3.560   1.065  0.0599  0.3497  0.1666
18033TIP3    H175590   5.720   3.622   1.127  0.4327  1.2672 -0.4860
18033TIP3    H275591   5.687   3.536   1.007  0.2898  1.6105 -0.6954
18034TIP3   OH275592   2.735   5.516  14.330  0.2777 -0.5611 -0.5064
18034TIP3    H175593   2.700   5.604  14.342 -1.6661 -1.1631 -1.3523
18034TIP3    H275594   2.726   5.499  14.236 -1.6938 -2.5153 -0.0459
18035TIP3   OH275595   4.436   2.618  13.309  0.1788  0.3539 -0.0448
18035TIP3    H175596   4.438   2.692  13.369  0.6538 -1.2228  2.0050
18035TIP3    H275597   4.497   2.641  13.239  1.9675  1.0214  1.6622
18036TIP3   OH275598   6.693   4.827  16.855 -1.0418 -0.3557  0.0844
18036TIP3    H175599   6.783   4.827  16.888 -1.0855 -1.2347  0.2270
18036TIP3    H275600   6.680   4.916  16.821 -0.0149 -0.3064 -0.2245
18037TIP3   OH275601   5.967   4.138  13.145 -0.2481 -0.0335  0.1676
18037TIP3    H175602   5.981   4.045  13.161 -1.4082 -0.0343  1.4053
18037TIP3    H275603   5.969   4.147  13.049  1.0643 -1.1012  0.0680
18038TIP3   OH275604   1.653   0.051   3.064 -0.7357  0.2183 -0.3331
18038TIP3    H175605   1.583   0.003   3.019 -1.4501 -0.3235  1.2636
18038TIP3    H275606   1.710  -0.017   3.098 -0.7852  0.5639  0.4514
18039TIP3   OH275607   5.783   4.323   1.811  0.1169  0.7189  0.0939
18039TIP3    H175608   5.746   4.307   1.898  1.6688 -0.2815  0.6241
18039TIP3    H275609   5.709   4.350   1.757 -1.3727 -1.1667  1.0915
18040TIP3   OH275610   4.126   1.270   4.894  0.1976  0.1314 -0.6696
18040TIP3    H175611   4.138   1.188   4.847 -0.6740  0.7571 -2.0689
18040TIP3    H275612   4.213   1.310   4.897  1.4836 -2.3924  3.3002
18041TIP3   OH275613   2.338   4.396  14.316 -0.1510  0.2853  0.0606
18041TIP3    H175614   2.356   4.311  14.356 -0.9326 -0.5468 -1.2562
18041TIP3    H275615   2.246   4.412  14.336 -0.4975 -0.0526 -1.1901
18042TIP3   OH275616   5.787   4.337   3.474  0.0755  0.5747 -0.7159
18042TIP3    H175617   5.795   4.262   3.414 -1.2595  0.1264 -0.3613
18042TIP3    H275618   5.876   4.372   3.480  1.1422 -2.0969  0.5284
18043TIP3   OH275619   0.088   1.476   2.503 -0.2669 -0.3155  0.1420
18043TIP3    H175620   0.130   1.393   2.527  0.5481  0.5637  2.0132
18043TIP3    H275621   0.008   1.451   2.458  0.4890 -2.0975 -0.2775
18044TIP3   OH275622   5.426   2.079   2.077 -0.0550  0.2895 -0.2607
18044TIP3    H175623   5.435   2.044   1.988 -1.0561 -0.7974  0.0415
18044TIP3    H275624   5.473   2.016   2.132  0.6172  0.9927 -0.0074
18045TIP3   OH275625   1.362   5.148  16.137  0.1657  0.3357 -0.1754
18045TIP3    H175626   1.292   5.087  16.158  1.6810 -1.7221 -0.7959
18045TIP3    H275627   1.329   5.233  16.165 -2.1754 -0.6913  0.3973
18046TIP3   OH275628   4.203   2.298   0.509 -0.2167  0.4627 -0.2568
18046TIP3    H175629   4.269   2.331   0.571 -1.1470  0.2330  0.9019
18046TIP3    H275630   4.143   2.248   0.564  0.0065 -1.4562 -1.6440
18047TIP3   OH275631   2.499   2.324  14.772 -0.3085  0.1617 -0.1692
18047TIP3    H175632   2.521   2.353  14.860 -2.2483  0.4157  0.2813
18047TIP3    H275633   2.583   2.318  14.727  0.6407  0.9537  1.4051
18048TIP3   OH275634   3.258   5.937   1.548  0.4333  0.4533 -0.1371
18048TIP3    H175635   3.214   5.863   1.506  2.2987 -0.6585 -0.2207
18048TIP3    H275636   3.237   6.012   1.492 -0.1562 -0.3084 -0.9704
18049TIP3   OH275637   1.732   4.261   3.769  0.7433  0.1756 -0.9717
18049TIP3    H175638   1.651   4.211   3.765  0.1016  1.2725 -3.0185
18049TIP3    H275639   1.788   4.221   3.702  1.9384 -0.5796  0.4272
18050TIP3   OH275640   4.415   4.630  15.383  0.0405  0.4317  0.7612
18050TIP3    H175641   4.398   4.572  15.458 -1.8527 -0.4263 -0.2500
18050TIP3    H275642   4.364   4.592  15.312  0.2607  2.3094 -0.4710
18051TIP3   OH275643   1.727   0.320  14.882  0.0910 -0.0589 -0.4964
18051TIP3    H175644   1.746   0.266  14.959  2.5200 -0.2248 -1.1545
18051TIP3    H275645   1.633   0.309  14.868 -0.0561 -1.5555  1.2901
18052TIP3   OH275646   0.626   1.574  13.667  0.1512  0.6433 -0.3748
18052TIP3    H175647   0.561   1.574  13.596 -1.7066  1.9081  1.2165
18052TIP3    H275648   0.611   1.657  13.713  1.2070 -0.1733  1.5601
18053TIP3   OH275649   1.370   0.812  14.947  0.1144 -0.1639 -1.0035
18053TIP3    H175650   1.465   0.824  14.945  0.1663 -0.5155 -0.7958
18053TIP3    H275651   1.352   0.780  15.036 -0.1992 -0.0842 -1.0373
18054TIP3   OH275652   1.365   6.651  16.133  0.1453 -0.2448 -0.3437
18054TIP3    H175653   1.368   6.690  16.220 -0.4724  0.5870 -0.6879
18054TIP3    H275654   1.384   6.558  16.148  0.7609  0.0200  0.5855
18055TIP3   OH275655   1.673   3.500   5.498  0.5107  0.0710 -0.3859
18055TIP3    H175656   1.641   3.517   5.410 -0.7871  1.1071  0.2579
18055TIP3    H275657   1.664   3.405   5.509  1.5412 -0.2022 -1.6561
18056TIP3   OH275658   4.335   0.344  13.221  0.0890  0.3655  0.4641
18056TIP3    H175659   4.273   0.287  13.267  1.3123  0.3389  2.1370
18056TIP3    H275660   4.364   0.292  13.146 -0.1844 -0.5177  0.9547
18057TIP3   OH275661   6.702   6.654   7.072  0.5324  0.7069 -0.3561
18057TIP3    H175662   6.732   6.656   6.981 -1.9301 -1.4740 -1.3504
18057TIP3    H275663   6.739   6.572   7.107 -1.1035 -0.1165 -0.4659
18058TIP3   OH275664   2.332   5.423  11.626 -0.1609 -0.2803  0.1069
18058TIP3    H175665   2.423   5.442  11.606  0.3015 -1.1268  1.2871
18058TIP3    H275666   2.289   5.420  11.540  0.5432  1.7616 -0.3835
18059TIP3   OH275667   2.799   5.936  12.638  0.7405  0.5205  0.4388
18059TIP3    H175668   2.895   5.941  12.643  0.8169  0.1466 -0.4394
18059TIP3    H275669   2.771   6.027  12.634  0.9894  0.6674  1.6863
18060TIP3   OH275670   3.917   3.410   1.256 -0.0378 -0.3269 -0.1936
18060TIP3    H175671   4.005   3.384   1.281 -0.2786 -0.3277  0.6925
18060TIP3    H275672   3.863   3.334   1.279 -0.9079  1.1625  3.3246
18061TIP3   OH275673   2.513   6.108   5.298  0.0585  0.2184 -0.2814
18061TIP3    H175674   2.508   6.032   5.241 -0.9271 -0.0435  0.1288
18061TIP3    H275675   2.430   6.154   5.283 -0.5389 -0.2238  1.4264
18062TIP3   OH275676   5.457   6.034  13.428  0.1074  0.3997 -0.1780
18062TIP3    H175677   5.396   6.011  13.498  1.1532 -0.1744  0.5720
18062TIP3    H275678   5.446   5.964  13.363 -0.6196  0.7522 -0.4509
18063TIP3   OH275679   5.816   6.366  16.323  0.2983  0.6414  0.0172
18063TIP3    H175680   5.736   6.404  16.289  1.1338  1.7996 -0.7477
18063TIP3    H275681   5.886   6.408  16.272  1.4765  0.8775  1.7343
18064TIP3   OH275682   0.286   6.469   5.167  0.1259  0.5135 -0.2999
18064TIP3    H175683   0.309   6.536   5.102  2.5967  1.3614  1.3248
18064TIP3    H275684   0.365   6.414   5.173 -1.2913 -1.6693 -0.4516
18065TIP3   OH275685   6.347   0.487   6.127 -0.0585  0.5376 -0.8716
18065TIP3    H175686   6.324   0.501   6.218  0.7643 -0.8296 -0.4201
18065TIP3    H275687   6.265   0.501   6.079 -0.3025  2.1567 -0.0604
18066TIP3   OH275688   6.619   4.044   5.940 -0.0348  0.5227  0.1329
18066TIP3    H175689   6.544   3.999   5.903 -0.5390  1.0719  0.4713
18066TIP3    H275690   6.635   4.000   6.024  0.5652 -0.1554 -0.3326
18067TIP3   OH275691   3.723   3.110   0.259 -0.7386 -0.4188 -0.1576
18067TIP3    H175692   3.782   3.034   0.257  1.5176  1.2198  0.5665
18067TIP3    H275693   3.703   3.127   0.167  1.1387 -0.1668 -0.5564
18068TIP3   OH275694   2.843   3.124  13.661 -0.3020  0.4676  0.1389
18068TIP3    H175695   2.849   3.206  13.709  1.0261  0.8542 -0.6462
18068TIP3    H275696   2.932   3.090  13.660 -0.4823 -0.0292 -1.1806
18069TIP3   OH275697   1.660   2.743  12.918  0.1119 -0.2279  0.4138
18069TIP3    H175698   1.681   2.796  12.841 -0.3539  0.8194  0.9810
18069TIP3    H275699   1.565   2.751  12.927 -0.0169 -1.4600  0.3195
18070TIP3   OH275700   1.375   1.935  14.586  0.3605  0.4088  0.3107
18070TIP3    H175701   1.454   1.989  14.578  0.2570  0.6585  0.9671
18070TIP3    H275702   1.314   1.973  14.523  0.6318  0.4495  0.0704
18071TIP3   OH275703   6.281   0.782  15.228  0.4070  0.5855  0.0934
18071TIP3    H175704   6.330   0.751  15.304  1.9166  1.4518 -0.5017
18071TIP3    H275705   6.332   0.753  15.153  0.4745  2.2531 -0.5286
18072TIP3   OH275706   2.076   2.316  15.446 -0.4443 -0.0273 -0.0574
18072TIP3    H175707   2.097   2.241  15.391  1.7700 -0.0167  0.6878
18072TIP3    H275708   2.044   2.278  15.528 -1.5697 -0.0726 -0.4932
18073TIP3   OH275709   0.905   1.149  13.694 -0.0736 -0.2716 -0.2214
18073TIP3    H175710   0.953   1.074  13.659 -0.3406  0.2051 -1.6730
18073TIP3    H275711   0.814   1.120  13.698  0.0724 -0.6221  0.9741
18074TIP3   OH275712   0.471   0.378  14.644  0.3420 -0.5756 -0.8661
18074TIP3    H175713   0.377   0.388  14.656  0.5709 -1.5460  3.1823
18074TIP3    H275714   0.484   0.383  14.549 -4.0819 -2.9269 -1.8815
18075TIP3   OH275715   3.591   3.400   1.117 -0.2015  0.1847 -0.2484
18075TIP3    H175716   3.595   3.325   1.177  0.9391  2.0381  2.1996
18075TIP3    H275717   3.554   3.365   1.037 -0.2857 -2.8502  0.9820
18076TIP3   OH275718   3.674   2.850  12.300 -0.1564 -1.1306 -0.7471
18076TIP3    H175719   3.733   2.792  12.349 -0.4048 -0.4473  0.3882
18076TIP3    H275720   3.586   2.829  12.333 -0.1768  0.4522  0.3108
18077TIP3   OH275721   5.100   2.572  12.120 -0.2923  0.0112  0.4783
18077TIP3    H175722   5.154   2.529  12.186  0.2005 -0.4202 -0.1884
18077TIP3    H275723   5.161   2.627  12.071 -0.5249 -0.1712 -0.0272
18078TIP3   OH275724   0.945   4.765   0.425 -0.4386  0.2905 -0.1567
18078TIP3    H175725   0.945   4.835   0.490  2.9815  0.7694 -0.4751
18078TIP3    H275726   0.898   4.802   0.350  0.9033  2.1614 -0.1447
18079TIP3   OH275727   6.813   2.297  13.362 -0.0862 -0.3137 -0.2126
18079TIP3    H175728   6.791   2.287  13.269 -0.6146  0.3949 -0.1766
18079TIP3    H275729   6.729   2.302  13.406  0.1519  0.4922  0.1676
18080TIP3   OH275730   4.345   5.685   5.238 -0.3237  0.3089  0.5115
18080TIP3    H175731   4.274   5.714   5.180 -0.0051 -1.1667 -0.6646
18080TIP3    H275732   4.301   5.660   5.319 -1.2838 -1.3059 -0.4533
18081TIP3   OH275733   0.979   1.225  14.880  0.7570  0.0254 -0.3740
18081TIP3    H175734   0.886   1.237  14.863  0.0295 -1.2803  2.1173
18081TIP3    H275735   1.000   1.289  14.948  0.7786 -1.7518  1.4117
18082TIP3   OH275736   5.158   3.959  14.724 -0.1411 -0.4709 -0.1823
18082TIP3    H175737   5.241   3.985  14.763  0.7171 -1.1531 -1.5132
18082TIP3    H275738   5.124   4.039  14.684 -0.3535 -0.0918  0.7315
18083TIP3   OH275739   1.009   1.926  17.143 -0.3025 -0.0529  0.5748
18083TIP3    H175740   0.982   1.843  17.105 -2.0280  0.2098  1.1504
18083TIP3    H275741   1.074   1.902  17.209  0.8291 -0.7228 -0.7434
18084TIP3   OH275742   3.097   4.179  16.600 -0.2887 -0.2462  0.2020
18084TIP3    H175743   3.177   4.127  16.607 -1.0407 -1.6658 -1.1803
18084TIP3    H275744   3.113   4.238  16.526 -0.8510 -1.1962 -0.6944
18085TIP3   OH275745   1.629   5.113   0.578  0.0960  0.0999  0.4034
18085TIP3    H175746   1.719   5.123   0.546  0.0209 -2.5474 -0.8798
18085TIP3    H275747   1.637   5.110   0.673  1.2376  0.8233  0.3488
18086TIP3   OH275748   5.314   3.136   1.252 -0.3457 -0.3334  0.1259
18086TIP3    H175749   5.254   3.181   1.193 -1.5294 -0.0020  1.5416
18086TIP3    H275750   5.355   3.206   1.303  1.8902 -0.4693 -1.3055
18087TIP3   OH275751   5.284   4.906   5.596 -0.5471 -0.4370 -0.1306
18087TIP3    H175752   5.296   4.997   5.570  3.7083 -0.5190  0.7760
18087TIP3    H275753   5.215   4.908   5.662 -0.1514  2.2445  0.3206
18088TIP3   OH275754   1.646   5.602  10.892 -0.4245  0.1853 -0.2183
18088TIP3    H175755   1.687   5.564  10.969  0.0153  1.9991  0.4866
18088TIP3    H275756   1.679   5.550  10.818  0.4033 -0.5542  0.6518
18089TIP3   OH275757   2.689   3.956  16.083 -0.2769  0.0314  0.7661
18089TIP3    H175758   2.643   3.887  16.035 -3.7629  0.7659  2.7217
18089TIP3    H275759   2.697   3.923  16.172 -1.1849  1.7398  1.5315
18090TIP3   OH275760   3.540   3.432  16.885  0.8435 -0.2125  0.2684
18090TIP3    H175761   3.569   3.438  16.794 -0.7100  0.4224 -0.2286
18090TIP3    H275762   3.558   3.519  16.921 -0.4727  0.2295 -0.0838
18091TIP3   OH275763   4.338   5.766   4.106 -0.4300 -0.1751 -0.2584
18091TIP3    H175764   4.261   5.803   4.150  0.2463 -0.2692  1.0594
18091TIP3    H275765   4.311   5.756   4.015 -1.9121 -0.0214  0.1368
18092TIP3   OH275766   3.392   5.908   5.363 -0.0762 -0.1672 -0.6427
18092TIP3    H175767   3.379   5.969   5.291 -1.1402 -1.4731 -1.6042
18092TIP3    H275768   3.357   5.954   5.440 -4.4720 -0.8193 -1.9463
18093TIP3   OH275769   6.737   1.047  15.036  0.5506  0.1473  0.2539
18093TIP3    H175770   6.789   1.121  15.005  0.2881 -0.3146 -1.3799
18093TIP3    H275771   6.800   0.976  15.047  0.4293 -0.1311 -0.7697
18094TIP3   OH275772   3.404   1.493  12.477 -0.1204  0.3830  0.4475
18094TIP3    H175773   3.452   1.564  12.434 -2.0031  0.0720 -2.4621
18094TIP3    H275774   3.450   1.414  12.450 -0.8317  0.2400 -0.4041
18095TIP3   OH275775   5.066   2.064  11.947 -0.5849  0.4549 -0.2979
18095TIP3    H175776   5.063   1.971  11.923 -0.1391  0.0654  1.0486
18095TIP3    H275777   4.975   2.085  11.970 -0.2083 -0.5386  2.4027
18096TIP3   OH275778   5.336   4.652   5.552  0.6257 -0.0092  0.0547
18096TIP3    H175779   5.252   4.612   5.528  0.2457  0.9492 -0.2726
18096TIP3    H275780   5.312   4.739   5.584  1.4173 -0.1008  0.9072
18097TIP3   OH275781   4.025   0.043  14.110 -0.3138 -0.0543  0.0276
18097TIP3    H175782   4.064   0.043  14.197  3.3750  0.0183 -1.4335
18097TIP3    H275783   4.044   0.130  14.075  0.1369 -0.7352 -1.5299
18098TIP3   OH275784   5.483   0.069  12.985  0.1245 -0.3586  0.2844
18098TIP3    H175785   5.568   0.074  13.029 -0.0133 -1.2468  0.6640
18098TIP3    H275786   5.419   0.060  13.056 -0.1672 -1.0491 -0.0634
18099TIP3   OH275787   2.863   0.405   5.605  0.2910 -0.4254  0.2703
18099TIP3    H175788   2.833   0.496   5.603  3.5072  0.7743  0.8386
18099TIP3    H275789   2.844   0.375   5.693 -2.1510 -0.9158 -0.3453
18100TIP3   OH275790   4.072   3.896   3.294  0.0151 -0.3006  0.0156
18100TIP3    H175791   4.056   3.917   3.386  0.6918 -1.2934  0.3849
18100TIP3    H275792   4.132   3.965   3.263 -0.2936  0.0895  0.2856
18101TIP3   OH275793   2.733   5.547  11.292 -0.1043  0.0269  0.1701
18101TIP3    H175794   2.766   5.490  11.223  0.6137  0.4558  0.1452
18101TIP3    H275795   2.706   5.628  11.247 -2.8408 -0.8949 -0.0537
18102TIP3   OH275796   3.922   3.342  12.003  0.7337 -0.1928 -0.4689
18102TIP3    H175797   3.836   3.379  11.986  0.7149  0.3834  0.7673
18102TIP3    H275798   3.935   3.354  12.097  1.5928 -1.4926 -0.3958
18103TIP3   OH275799   4.313   3.518  11.735  0.1493  0.5355  0.1649
18103TIP3    H175800   4.223   3.530  11.766  0.8129  2.9791  1.4411
18103TIP3    H275801   4.367   3.534  11.813  1.7015 -0.6816 -0.6181
18104TIP3   OH275802   1.111   0.581   2.317 -1.1953 -0.5680  0.1364
18104TIP3    H175803   1.202   0.597   2.341 -1.0252 -0.8048 -0.3225
18104TIP3    H275804   1.060   0.640   2.372 -0.6983  0.3179 -0.3410
18105TIP3   OH275805   3.878   1.268  17.221 -0.0587 -0.5151 -0.3263
18105TIP3    H175806   3.845   1.211  17.151 -0.3899  0.0287 -0.6161
18105TIP3    H275807   3.910   1.346  17.175 -1.8032  0.5751  0.2513
18106TIP3   OH275808   1.057   6.542  16.603 -0.5057 -0.0525  0.2746
18106TIP3    H175809   1.045   6.472  16.667  1.0404 -1.0972 -0.5144
18106TIP3    H275810   1.104   6.611  16.651  0.4269 -0.7258  0.3691
18107TIP3   OH275811   0.009   0.215  15.382 -1.0915 -0.5078 -0.3567
18107TIP3    H175812   0.014   0.279  15.311  1.0937 -0.3871 -0.1431
18107TIP3    H275813  -0.073   0.236  15.427 -0.4609  2.1631 -0.3066
18108TIP3   OH275814   1.527   0.718  12.699 -0.2110  0.1576 -0.2762
18108TIP3    H175815   1.604   0.763  12.664  0.3368 -0.9113 -0.4827
18108TIP3    H275816   1.499   0.659  12.629 -1.0341  0.3119 -0.0867
18109TIP3   OH275817   1.647   5.645  17.163 -0.9729  0.9501 -0.4530
18109TIP3    H175818   1.620   5.692  17.242 -0.4368 -0.0659  0.3525
18109TIP3    H275819   1.742   5.639  17.170 -1.0237 -0.1375 -0.6024
18110TIP3   OH275820   0.240   2.204  12.961 -0.3231 -0.2070  0.0448
18110TIP3    H175821   0.265   2.144  12.891 -1.0599 -0.1536 -0.2757
18110TIP3    H275822   0.249   2.291  12.923 -0.3481 -0.1638  0.1368
18111TIP3   OH275823   0.638   1.163  11.756 -0.2152 -0.0678 -0.1601
18111TIP3    H175824   0.672   1.147  11.844  0.3279 -0.9579 -0.5236
18111TIP3    H275825   0.702   1.222  11.716 -0.0247 -0.3291 -0.2414
18112TIP3   OH275826   4.562   2.892   5.943  0.0033  0.0966  0.4672
18112TIP3    H175827   4.473   2.902   5.977  0.1039 -0.7170  1.0301
18112TIP3    H275828   4.595   2.981   5.934 -0.7098  0.3903  0.6963
18113TIP3   OH275829   5.166   4.169  14.425  0.4536 -0.2707 -0.1357
18113TIP3    H175830   5.099   4.101  14.418 -0.3147  0.2344  1.6998
18113TIP3    H275831   5.243   4.131  14.383 -0.1075 -2.0902  0.3682
18114TIP3   OH275832   0.512   5.629   4.446 -0.3014  0.5189  0.1401
18114TIP3    H175833   0.495   5.642   4.353 -2.2648  3.1779  0.7692
18114TIP3    H275834   0.607   5.622   4.452 -0.2060 -2.3578 -2.2655
18115TIP3   OH275835   3.610   1.617  14.181  0.0594  0.3477  0.7570
18115TIP3    H175836   3.685   1.655  14.136 -0.5453  0.8612  0.1600
18115TIP3    H275837   3.590   1.678  14.252  0.2457  0.1738  0.9615
18116TIP3   OH275838   0.113   6.780  11.623 -0.0997 -0.0928 -0.0580
18116TIP3    H175839   0.182   6.761  11.559 -0.3817 -0.3109 -0.3033
18116TIP3    H275840   0.117   6.707  11.684  1.5195  1.1098  1.3802
18117TIP3   OH275841   1.834   1.364   0.525  0.2955  0.5484  0.0142
18117TIP3    H175842   1.854   1.290   0.583 -1.7476  1.3360  1.8705
18117TIP3    H275843   1.764   1.332   0.468 -2.7362  1.7416  2.7819
18118TIP3   OH275844   3.979   6.238  16.617 -0.1835  0.2929  0.2045
18118TIP3    H175845   3.962   6.332  16.627 -0.7533  0.1092  1.0011
18118TIP3    H275846   4.051   6.221  16.679 -1.2324 -0.1193  1.3453
18119TIP3   OH275847   5.920   1.119   3.870 -0.5261 -0.0176 -0.0480
18119TIP3    H175848   5.975   1.129   3.792  1.4764  0.2280  1.3357
18119TIP3    H275849   5.943   1.193   3.926 -3.4897  1.0497 -0.0574
18120TIP3   OH275850   2.211   6.776   0.813 -0.2236 -0.1648  0.2959
18120TIP3    H175851   2.214   6.857   0.761 -3.1072  1.9925  3.0622
18120TIP3    H275852   2.136   6.728   0.779 -0.0725 -0.4183  0.3157
18121TIP3   OH275853   1.469   4.424  16.503  0.3950 -0.1536  0.2774
18121TIP3    H175854   1.396   4.381  16.548  0.6287 -1.4158 -0.4839
18121TIP3    H275855   1.427   4.480  16.438  0.0828  0.8519  1.3056
18122TIP3   OH275856   0.944   6.382   0.592  0.3576  0.1319 -0.1876
18122TIP3    H175857   0.939   6.302   0.644 -1.5414  0.6681  0.5044
18122TIP3    H275858   0.977   6.353   0.506  0.7706 -1.1902  0.3966
18123TIP3   OH275859   0.903   4.975  14.425 -0.0154  0.3802  0.3166
18123TIP3    H175860   0.912   5.051  14.482  1.5302  1.8363 -1.7180
18123TIP3    H275861   0.816   4.985  14.385 -0.1142  0.6631  0.5984
18124TIP3   OH275862   0.368   0.847  16.936 -0.2791 -0.7675 -0.2592
18124TIP3    H175863   0.310   0.855  17.012 -0.0701  0.7924 -0.2167
18124TIP3    H275864   0.317   0.883  16.863  0.3429 -0.0660 -0.3665
18125TIP3   OH275865   4.524   4.760   5.738  0.5623  0.0959  0.2610
18125TIP3    H175866   4.512   4.668   5.716  0.0918  0.2304 -0.0695
18125TIP3    H275867   4.570   4.759   5.822  0.7939 -0.4356  0.1333
18126TIP3   OH275868   6.465   2.356  15.496  0.1915  0.9983  0.7249
18126TIP3    H175869   6.379   2.358  15.454  0.2684  1.2821  0.5823
18126TIP3    H275870   6.527   2.376  15.426  0.4758 -0.2891  0.5816
18127TIP3   OH275871   1.950   5.489  15.341 -0.0139  0.4008 -0.3245
18127TIP3    H175872   1.958   5.537  15.259  2.7234  0.7014 -0.0046
18127TIP3    H275873   1.959   5.397  15.316 -0.7825  0.3733 -0.5079
18128TIP3   OH275874   4.276   1.549  17.123 -0.5723 -0.3856  0.9478
18128TIP3    H175875   4.332   1.477  17.094 -0.1495 -1.1298  3.3240
18128TIP3    H275876   4.310   1.572  17.210 -2.5642  0.6366  1.5280
18129TIP3   OH275877   3.094   0.114  16.443 -0.8184  0.3317  0.6927
18129TIP3    H175878   3.181   0.137  16.475  0.4424 -1.4332 -1.2235
18129TIP3    H275879   3.080   0.170  16.367 -0.7875 -0.2766  0.2317
18130TIP3   OH275880   1.554   1.961   5.730 -0.3496 -0.1176 -0.5247
18130TIP3    H175881   1.515   1.874   5.745 -2.1562  0.5671 -0.9298
18130TIP3    H275882   1.572   1.995   5.817  2.2061 -1.6180 -0.3777
18131TIP3   OH275883   3.145   0.363   1.400  0.7517 -0.2906 -0.1530
18131TIP3    H175884   3.119   0.363   1.492  0.2708  1.7377 -0.2371
18131TIP3    H275885   3.198   0.442   1.390 -0.2121  0.1935 -1.8676
18132TIP3   OH275886   0.849   5.681  11.202  0.1299 -0.2483 -0.3351
18132TIP3    H175887   0.774   5.683  11.262  0.3596 -2.9800  0.1543
18132TIP3    H275888   0.865   5.773  11.182 -2.6071  0.5072  0.4672
18133TIP3   OH275889   6.668   3.331  16.671 -0.4261 -0.1918  0.1853
18133TIP3    H175890   6.731   3.287  16.728 -0.1776 -1.0739 -0.7459
18133TIP3    H275891   6.594   3.270  16.664  0.4767 -1.1352 -2.1746
18134TIP3   OH275892   3.449   4.476  14.432 -0.5809  0.2891 -0.1216
18134TIP3    H175893   3.499   4.454  14.354 -1.0380 -0.7944 -0.1360
18134TIP3    H275894   3.497   4.436  14.505 -2.1412 -2.1379 -0.2934
18135TIP3   OH275895   3.461   2.583  14.586  0.0514  0.2930 -0.5833
18135TIP3    H175896   3.496   2.605  14.672  0.3837  0.0376 -0.6528
18135TIP3    H275897   3.536   2.591  14.527 -0.2373  0.7516 -0.8985
18136TIP3   OH275898   4.880   5.980   6.027 -0.4038 -0.0122  0.6682
18136TIP3    H175899   4.924   6.046   6.081  0.3359 -0.2868  0.4180
18136TIP3    H275900   4.914   5.996   5.939  0.5368 -1.3363  0.7568
18137TIP3   OH275901   4.532   0.414   0.030 -0.6395 -0.4937  0.1341
18137TIP3    H175902   4.513   0.328   0.067 -1.4887 -0.5534 -0.4141
18137TIP3    H275903   4.626   0.413   0.013 -0.4716 -0.9534  1.0242
18138TIP3   OH275904   4.279   4.861  11.134 -0.2560  0.2515  0.1129
18138TIP3    H175905   4.325   4.800  11.077 -0.3820  0.0231  0.2512
18138TIP3    H275906   4.347   4.895  11.192  0.0473  1.1980 -0.7798
18139TIP3   OH275907   3.160   6.480   4.042 -0.1913 -0.2284 -0.1681
18139TIP3    H175908   3.219   6.521   4.104  0.5170 -1.0889 -0.2480
18139TIP3    H275909   3.087   6.448   4.095  0.1855 -0.5515  0.1661
18140TIP3   OH275910   0.136   4.725  11.829  0.3151  0.0603  0.3924
18140TIP3    H175911   0.107   4.814  11.846 -1.2856 -0.1920 -0.7761
18140TIP3    H275912   0.166   4.726  11.738 -0.5549 -0.7585  0.0714
18141TIP3   OH275913   6.440   3.854  15.942  0.0430  0.1733 -0.8610
18141TIP3    H175914   6.451   3.776  15.995  1.8963 -0.0445 -1.4905
18141TIP3    H275915   6.372   3.831  15.878 -1.3974  0.0624  0.6495
18142TIP3   OH275916   2.265   0.848   5.678 -0.7978  0.3214  0.4261
18142TIP3    H175917   2.357   0.823   5.682 -0.3057  1.8131 -0.6598
18142TIP3    H275918   2.261   0.932   5.723 -1.1997  1.3071 -1.3793
18143TIP3   OH275919   5.881   5.918   4.584 -0.3087 -0.1178  0.0995
18143TIP3    H175920   5.973   5.895   4.593  0.1855  0.7426 -2.1735
18143TIP3    H275921   5.871   5.998   4.636  0.9796  1.4210 -1.8684
18144TIP3   OH275922   2.831   4.296  13.613  0.6499  0.0515  0.3869
18144TIP3    H175923   2.805   4.359  13.546  0.1845  0.2924  0.7896
18144TIP3    H275924   2.926   4.288  13.603  0.4357 -0.9134 -1.1618
18145TIP3   OH275925   4.925   1.772  14.450 -0.0559  0.3003  0.2675
18145TIP3    H175926   4.976   1.768  14.369  0.5639  2.7341  0.4504
18145TIP3    H275927   4.844   1.816  14.426  0.0651  0.8977  0.9102
18146TIP3   OH275928   0.882   1.384   6.101 -0.6814 -0.1668 -0.1637
18146TIP3    H175929   0.846   1.339   6.024  0.2477  0.6979 -1.1461
18146TIP3    H275930   0.846   1.473   6.095 -1.5075 -0.3960  1.0571
18147TIP3   OH275931   6.010   6.632  12.719  0.0221 -0.0933 -0.2503
18147TIP3    H175932   5.975   6.562  12.663 -0.9145 -0.2715  0.5110
18147TIP3    H275933   6.082   6.590  12.767  0.2047 -0.2101 -0.6252
18148TIP3   OH275934   0.521   0.112  14.383 -0.2991  0.2289 -0.0476
18148TIP3    H175935   0.427   0.099  14.371 -0.1432  0.1785 -1.3539
18148TIP3    H275936   0.557   0.023  14.384 -0.3480  0.1929  1.4725
18149TIP3   OH275937   3.485   4.998   4.409  0.3897  0.3498 -0.1418
18149TIP3    H175938   3.564   4.970   4.454 -0.1726  0.6480  1.0665
18149TIP3    H275939   3.420   4.930   4.430 -0.6234  1.8244  1.7339
18150TIP3   OH275940   1.364   0.679   1.262  0.4461 -0.3529  0.1357
18150TIP3    H175941   1.443   0.625   1.270  0.6034 -0.8049 -3.1065
18150TIP3    H275942   1.379   0.732   1.184 -1.9207  0.5535  0.2074
18151TIP3   OH275943   1.440   4.418   0.171  0.3833 -0.8036 -0.1486
18151TIP3    H175944   1.481   4.334   0.193  3.1096 -0.0693 -2.0356
18151TIP3    H275945   1.452   4.472   0.249 -0.4054 -1.7794  0.6743
18152TIP3   OH275946   5.239   0.343   3.244 -0.3900 -0.4387  0.0861
18152TIP3    H175947   5.155   0.328   3.201  0.3227 -1.6696 -0.9517
18152TIP3    H275948   5.217   0.390   3.324 -1.9674  0.0751 -0.6114
18153TIP3   OH275949   4.573   1.307  14.030  0.2080 -0.0830 -0.1988
18153TIP3    H175950   4.648   1.265  13.988  1.2036  0.8651  0.5816
18153TIP3    H275951   4.598   1.315  14.121 -0.4960  1.0353 -0.0874
18154TIP3   OH275952   1.808   0.933  13.359 -0.1186  0.1556 -0.1905
18154TIP3    H175953   1.764   0.996  13.415 -1.5868  0.4553 -1.5958
18154TIP3    H275954   1.772   0.848  13.385  0.1128  0.1474  0.1150
18155TIP3   OH275955   4.273   1.788  11.270 -0.5627 -0.1275 -0.5965
18155TIP3    H175956   4.325   1.741  11.204  1.9436  2.0318 -0.2955
18155TIP3    H275957   4.303   1.751  11.353 -1.2687 -0.4954 -0.4989
18156TIP3   OH275958   3.944   4.232   5.928  0.1247  0.2479  0.2556
18156TIP3    H175959   4.031   4.269   5.942  0.8309 -1.9866  2.4758
18156TIP3    H275960   3.890   4.268   5.999  0.6737 -2.2948  2.0810
18157TIP3   OH275961   1.173   2.921   2.677 -0.0055  0.6248  0.0651
18157TIP3    H175962   1.236   2.994   2.678  1.4081 -0.5216  2.1482
18157TIP3    H275963   1.142   2.916   2.767  0.6443 -1.8985  0.2092
18158TIP3   OH275964   1.656   0.259   4.180  0.0237 -0.5533 -0.5687
18158TIP3    H175965   1.744   0.223   4.189 -0.2521 -1.0071  0.3461
18158TIP3    H275966   1.661   0.313   4.101  1.0670 -0.7296 -0.6387
18159TIP3   OH275967   2.787   4.998   1.753 -0.4343  0.3386  0.1517
18159TIP3    H175968   2.729   4.934   1.793  0.7568  0.2102  1.7760
18159TIP3    H275969   2.837   5.034   1.826  0.7173  1.2633 -1.0456
18160TIP3   OH275970   0.725   5.698  17.082  0.4043  0.7145 -0.7758
18160TIP3    H175971   0.735   5.650  16.999 -0.4943  0.6490 -0.8525
18160TIP3    H275972   0.694   5.632  17.144  1.5764  0.6430 -0.2353
18161TIP3   OH275973   2.304   1.577  14.569 -0.2200 -0.3235 -0.4611
18161TIP3    H175974   2.358   1.507  14.606 -0.4466 -0.3730 -0.2193
18161TIP3    H275975   2.360   1.618  14.503  0.4835  0.2468  0.4422
18162TIP3   OH275976   0.684   0.053  15.057  0.2221  0.0038  0.2593
18162TIP3    H175977   0.617  -0.015  15.048 -0.6847  1.0210 -1.1292
18162TIP3    H275978   0.647   0.129  15.011  2.5239  0.4583 -0.9879
18163TIP3   OH275979   3.502   5.739   3.088  0.2701 -0.2960 -0.1336
18163TIP3    H175980   3.524   5.761   2.997 -1.2055  2.9970  0.1527
18163TIP3    H275981   3.408   5.719   3.085  0.0030  0.7582  0.7660
18164TIP3   OH275982   2.450   1.457   0.273  0.1620 -0.8286  0.3059
18164TIP3    H175983   2.494   1.494   0.197  0.1997  0.5484  0.9551
18164TIP3    H275984   2.373   1.513   0.285 -0.0843 -1.3030  0.9997
18165TIP3   OH275985   3.113   2.596  16.289 -0.5176  0.1064 -0.2480
18165TIP3    H175986   3.097   2.619  16.198 -3.6845  0.1335  0.2083
18165TIP3    H275987   3.095   2.502  16.294  1.4231 -0.2840  0.0446
18166TIP3   OH275988   2.488   1.475  11.553  0.0289 -0.3438 -0.7148
18166TIP3    H175989   2.410   1.526  11.573  0.7852  0.4804  0.2364
18166TIP3    H275990   2.561   1.535  11.569  0.9464 -1.7120  0.5054
18167TIP3   OH275991   3.969   2.030  13.021 -0.4021  0.1992  0.0577
18167TIP3    H175992   4.042   2.017  13.081  2.3400  0.1040 -3.0254
18167TIP3    H275993   3.964   2.125  13.010 -0.6434  0.1967  0.1394
18168TIP3   OH275994   6.106   5.716   1.178  0.8927 -0.1705  0.2284
18168TIP3    H175995   6.061   5.747   1.257  1.9092 -2.1218  1.6553
18168TIP3    H275996   6.054   5.751   1.106 -1.5732 -0.3939  1.7779
18169TIP3   OH275997   2.215   6.330   4.989 -0.5140 -0.0030 -0.3671
18169TIP3    H175998   2.177   6.255   4.944  0.6486 -0.2450 -0.9828
18169TIP3    H275999   2.241   6.295   5.075 -1.2920  0.0680 -0.0954
18170TIP3   OH276000   0.170   3.242  10.761 -0.0347 -0.4427  0.0830
18170TIP3    H176001   0.217   3.212  10.683  2.2922 -0.2252  1.3044
18170TIP3    H276002   0.183   3.337  10.762 -1.6125 -0.1913 -0.1876
18171TIP3   OH276003   0.773   6.237  15.197 -0.0762 -0.6668  0.2331
18171TIP3    H176004   0.755   6.229  15.103 -0.5462  1.3935  0.0980
18171TIP3    H276005   0.811   6.324  15.207  1.6571 -1.5301  1.7428
18172TIP3   OH276006   0.614   4.980   5.068  0.0696  0.1199 -0.2903
18172TIP3    H176007   0.694   4.932   5.046  0.4457 -0.0116  1.2588
18172TIP3    H276008   0.547   4.912   5.077  0.0391  0.1205 -0.5255
18173TIP3   OH276009   6.560   1.239   4.975  0.2708 -0.4094 -0.1629
18173TIP3    H176010   6.482   1.295   4.967 -0.5821 -1.5476 -0.1867
18173TIP3    H276011   6.632   1.300   4.986 -0.5562  0.7121 -0.6599
18174TIP3   OH276012   6.332   3.462   5.907  0.4157  0.6315 -0.1338
18174TIP3    H176013   6.385   3.449   5.828  0.6496 -2.3129  0.4116
18174TIP3    H276014   6.269   3.391   5.905 -1.0848  1.8506  1.2198
18175TIP3   OH276015   3.382   1.818  14.043 -0.4042 -0.1585 -0.5601
18175TIP3    H176016   3.428   1.782  13.968  0.1416  1.1899 -0.9031
18175TIP3    H276017   3.443   1.882  14.080 -1.2490  0.2725  0.1288
18176TIP3   OH276018   5.301   4.323  16.546 -0.0436 -0.2308 -0.2790
18176TIP3    H176019   5.327   4.260  16.479  1.7371 -0.1976  0.3089
18176TIP3    H276020   5.339   4.406  16.517  0.2540 -0.0966  0.4629
18177TIP3   OH276021   1.111   2.543  16.269  0.0563 -0.3072 -0.7835
18177TIP3    H176022   1.155   2.598  16.334  0.3704 -0.0864 -1.1777
18177TIP3    H276023   1.141   2.454  16.289 -0.7875 -0.4049  0.1233
18178TIP3   OH276024   3.997   0.954   2.129 -1.0071 -0.6146  0.4197
18178TIP3    H176025   3.981   1.048   2.129  0.1891 -0.3060 -2.2560
18178TIP3    H276026   4.079   0.943   2.178 -1.1876 -0.2677  0.7979
18179TIP3   OH276027   3.105   1.072  13.244  0.2372  0.4701  0.4640
18179TIP3    H176028   3.080   0.980  13.236  1.2434  0.3026 -0.9672
18179TIP3    H276029   3.027   1.120  13.215  0.7417 -0.0094 -1.8751
18180TIP3   OH276030   4.992   5.116   0.566 -0.3335  0.4681  0.2190
18180TIP3    H176031   5.061   5.055   0.541  0.3043  1.6068 -0.9593
18180TIP3    H276032   5.036   5.183   0.618 -0.7138  0.7411  0.1966
18181TIP3   OH276033   0.772   0.762   4.074  0.2566  0.0920  0.6411
18181TIP3    H176034   0.772   0.848   4.116 -0.5717  0.2100  0.4213
18181TIP3    H276035   0.714   0.773   3.998  0.4445 -0.5618  0.3982
18182TIP3   OH276036   3.931   3.039  16.387  0.2005  0.1464  0.1133
18182TIP3    H176037   3.965   2.950  16.377 -0.0123  0.0742  0.0263
18182TIP3    H276038   3.928   3.073  16.298 -1.8090 -0.5345 -0.1139
18183TIP3   OH276039   6.668   0.752  10.847  0.2139 -0.1653  0.3951
18183TIP3    H176040   6.632   0.691  10.782 -0.3895  1.0802 -0.4867
18183TIP3    H276041   6.594   0.809  10.870  1.0647  1.0724  0.1743
18184TIP3   OH276042   4.827   5.702  16.231  0.6679 -0.3123  0.1218
18184TIP3    H176043   4.902   5.644  16.245  0.2280 -1.3244 -1.4772
18184TIP3    H276044   4.865   5.789  16.225  1.8596 -0.8918 -1.4635
18185TIP3   OH276045   2.048   1.192   2.196  0.2917  0.1394  0.3836
18185TIP3    H176046   1.994   1.123   2.158  0.9992  0.1431 -0.6732
18185TIP3    H276047   2.113   1.146   2.248 -0.8120  0.1425  1.8473
18186TIP3   OH276048   6.488   4.269   3.298 -0.2556  0.5268 -0.4122
18186TIP3    H176049   6.497   4.221   3.381 -0.9350  0.0357 -0.6148
18186TIP3    H276050   6.554   4.230   3.241 -0.8057 -0.1849 -0.5760
18187TIP3   OH276051   4.965   5.327   0.972 -0.1082 -0.0521 -0.1238
18187TIP3    H176052   5.024   5.296   1.041 -0.3436 -0.5885 -0.1585
18187TIP3    H276053   4.884   5.279   0.987 -0.7088  1.0510  0.2337
18188TIP3   OH276054   0.841   5.961   2.176  0.0909  0.3747 -0.4296
18188TIP3    H176055   0.879   6.043   2.146  0.6233  0.0551 -0.6372
18188TIP3    H276056   0.909   5.896   2.162  0.8308  0.3770  2.4574
18189TIP3   OH276057   5.839   3.373  11.704 -0.1358  0.5416 -0.0004
18189TIP3    H176058   5.871   3.359  11.614  0.7046  1.1543  0.1957
18189TIP3    H276059   5.799   3.459  11.702  0.4840  0.8395  0.3758
18190TIP3   OH276060   1.761   6.258   2.233  0.1934  0.4170 -0.7554
18190TIP3    H176061   1.683   6.312   2.246 -0.2954 -0.2693 -0.8336
18190TIP3    H276062   1.832   6.308   2.275 -0.9375 -0.7913  2.8972
18191TIP3   OH276063   0.688   6.474   0.634  0.5655  0.2127  0.0499
18191TIP3    H176064   0.752   6.451   0.567 -0.3068  0.3255 -0.8413
18191TIP3    H276065   0.702   6.409   0.703  2.2481  0.7803  0.3107
18192TIP3   OH276066   1.824   5.936  11.155  0.2966  0.2268  0.3323
18192TIP3    H176067   1.906   5.889  11.168  0.1885  0.6126  2.9611
18192TIP3    H276068   1.836   6.019  11.202 -1.5909  0.2790  0.8020
18193TIP3   OH276069   4.035   4.778   5.121 -0.3423  0.0831  0.2810
18193TIP3    H176070   4.006   4.706   5.177  0.7955  1.4023  2.7207
18193TIP3    H276071   3.955   4.827   5.102 -0.8981 -0.9522 -0.1298
18194TIP3   OH276072   6.198   5.324  11.266 -0.1903 -0.0223 -0.2008
18194TIP3    H176073   6.170   5.415  11.270  1.2115  0.4777 -0.9603
18194TIP3    H276074   6.188   5.299  11.174 -1.6761 -1.0355  0.2020
18195TIP3   OH276075   5.509   4.593   5.364 -0.1996  0.2603  0.0472
18195TIP3    H176076   5.519   4.684   5.335  0.1476  0.0480 -0.4915
18195TIP3    H276077   5.447   4.599   5.438  0.0097  0.9618  0.1744
18196TIP3   OH276078   6.327   2.170   3.810 -0.1669  0.0134 -0.4315
18196TIP3    H176079   6.357   2.227   3.739 -0.6828  2.4743  1.1978
18196TIP3    H276080   6.400   2.168   3.872 -0.3001 -0.8423 -0.2829
18197TIP3   OH276081   2.345   3.047  14.041  0.4913  0.6468 -0.0884
18197TIP3    H176082   2.439   3.064  14.036  0.5695  0.2460  0.0182
18197TIP3    H276083   2.317   3.038  13.950  0.6594  0.1938 -0.0945
18198TIP3   OH276084   4.985   1.248  12.014 -0.0068 -0.0030 -0.2641
18198TIP3    H176085   4.970   1.232  12.107 -1.3770 -0.8753 -0.6089
18198TIP3    H276086   5.051   1.317  12.012  0.1966 -0.1213  1.3491
18199TIP3   OH276087   1.268   0.776  16.667  0.2955 -0.2337 -0.7587
18199TIP3    H176088   1.190   0.729  16.637  0.6152 -0.4118 -1.3248
18199TIP3    H276089   1.247   0.801  16.757 -0.9757  0.9301 -1.3379
18200TIP3   OH276090   1.883   5.833   1.114  0.3178 -0.0111 -0.4370
18200TIP3    H176091   1.809   5.880   1.077  0.8749  1.3097  0.0639
18200TIP3    H276092   1.896   5.758   1.056 -3.2950 -2.0820  1.1068
18201TIP3   OH276093   2.238   3.625  16.153  0.3087 -0.2780 -0.2305
18201TIP3    H176094   2.285   3.643  16.072 -0.4509  0.3273 -0.5452
18201TIP3    H276095   2.155   3.587  16.126  0.0002  0.0372  0.2530
18202TIP3   OH276096   4.576   1.565   4.531 -0.5142  0.6028 -0.1114
18202TIP3    H176097   4.595   1.478   4.497 -0.6738  0.4407  0.2077
18202TIP3    H276098   4.651   1.618   4.504  1.2519 -0.3704  2.4583
18203TIP3   OH276099   1.188   0.671   5.200 -0.3496 -0.7292  0.0453
18203TIP3    H176100   1.277   0.699   5.223 -0.7353 -0.8095  1.7799
18203TIP3    H276101   1.131   0.737   5.239 -1.0962 -1.3567  0.0366
18204TIP3   OH276102   5.580   1.744  14.850  0.4864 -0.2642  0.1865
18204TIP3    H176103   5.500   1.706  14.887  0.5360 -0.1863  0.3741
18204TIP3    H276104   5.651   1.690  14.885  0.4282 -1.2162 -1.0860
18205TIP3   OH276105   3.639   3.217  13.218  0.6026  0.1089 -0.0408
18205TIP3    H176106   3.695   3.285  13.254 -1.9651  1.4097  1.8566
18205TIP3    H276107   3.550   3.244  13.242 -1.0913 -0.8958 -4.3299
18206TIP3   OH276108   3.608   0.700   5.011  0.9785  0.1846  0.4833
18206TIP3    H176109   3.649   0.729   5.092 -1.4419  1.0808  1.4954
18206TIP3    H276110   3.518   0.680   5.035  0.5228 -0.8399 -1.7499
18207TIP3   OH276111   0.360   4.607  15.743 -0.2263 -0.3636  0.5257
18207TIP3    H176112   0.315   4.690  15.729 -1.9531 -0.9484  2.1995
18207TIP3    H276113   0.384   4.608  15.836 -0.0448 -1.6196  0.5114
18208TIP3   OH276114   0.563   3.062   2.649  0.5085 -0.4679 -0.3498
18208TIP3    H176115   0.534   3.105   2.569 -3.0797  0.2434  1.1269
18208TIP3    H276116   0.579   3.134   2.710  1.9744 -1.0343 -0.0385
18209TIP3   OH276117   6.270   2.474  16.953 -0.4985  0.3998 -0.1742
18209TIP3    H176118   6.214   2.397  16.944 -1.6450  1.0439  1.1106
18209TIP3    H276119   6.359   2.439  16.947 -1.0122 -0.8909 -0.5525
18210TIP3   OH276120   6.440   0.091  14.140 -0.0569 -0.1629  0.4019
18210TIP3    H176121   6.522   0.138  14.122  0.4639 -1.0688  0.3200
18210TIP3    H276122   6.455   0.048  14.224 -0.8380  0.4871  0.8801
18211TIP3   OH276123   1.372   2.325   3.924 -0.1929 -0.0129 -0.0533
18211TIP3    H176124   1.326   2.409   3.914  3.4230  2.6375  2.5653
18211TIP3    H276125   1.447   2.333   3.864 -0.6362 -2.2183 -0.9816
18212TIP3   OH276126   2.095   1.802   1.075  0.3914  0.1670  0.0239
18212TIP3    H176127   2.114   1.710   1.062  0.4581  0.3658 -1.4055
18212TIP3    H276128   2.178   1.840   1.106  0.5504 -0.1266 -0.0446
18213TIP3   OH276129   5.641   1.386   1.234 -0.3536  0.5565 -0.2237
18213TIP3    H176130   5.665   1.319   1.297 -2.3148  0.5849  0.6339
18213TIP3    H276131   5.721   1.437   1.221  0.8360 -1.1718  0.0436
18214TIP3   OH276132   3.246   1.447  16.910  0.1573 -0.0933 -0.2551
18214TIP3    H176133   3.180   1.406  16.966 -1.3528  0.7935 -1.3091
18214TIP3    H276134   3.274   1.377  16.851  0.9957 -0.7573  0.8745
18215TIP3   OH276135   1.891   4.866   5.316  0.9138 -0.0956  0.8322
18215TIP3    H176136   1.826   4.934   5.295  0.2521 -1.0831 -0.4892
18215TIP3    H276137   1.937   4.899   5.393  0.3686  1.6799  0.4370
18216TIP3   OH276138   4.183   3.980  11.164  0.0516  0.0191  0.2989
18216TIP3    H176139   4.120   3.930  11.112  0.1855 -0.4353  0.5631
18216TIP3    H276140   4.154   3.969  11.254  0.2686  0.1544  0.3862
18217TIP3   OH276141   5.128   3.490   3.186 -0.7980  0.4839 -0.3271
18217TIP3    H176142   5.152   3.456   3.100  1.3606 -1.8245  1.0552
18217TIP3    H276143   5.064   3.427   3.220  0.1201  0.0355  0.6357
18218TIP3   OH276144   1.099   2.041   1.319  0.1973  0.2898  0.4400
18218TIP3    H176145   1.152   2.094   1.260  2.2833 -1.3591  0.6973
18218TIP3    H276146   1.156   2.022   1.393 -1.8374  0.9810  2.2914
18219TIP3   OH276147   1.780   5.136  16.431 -0.0431 -0.0668  0.0874
18219TIP3    H176148   1.691   5.167  16.450 -0.4330 -0.3102 -1.2452
18219TIP3    H276149   1.825   5.141  16.515 -0.7189  2.0178  0.3829
18220TIP3   OH276150   0.225   6.404   4.027  0.3789  0.2935 -0.1965
18220TIP3    H176151   0.234   6.495   4.057  1.1224 -0.3083  1.5616
18220TIP3    H276152   0.131   6.393   4.014  0.1962  1.0828  0.3582
18221TIP3   OH276153   1.040   1.492   1.385 -0.2179 -0.9398 -0.0049
18221TIP3    H176154   1.120   1.440   1.373 -1.1020 -1.8137 -3.3092
18221TIP3    H276155   1.070   1.582   1.390  1.0476 -1.3302 -0.2820
18222TIP3   OH276156   5.890   3.330  16.511  0.4365  0.2522  0.3618
18222TIP3    H176157   5.867   3.328  16.418 -0.8655 -2.5287  0.6296
18222TIP3    H276158   5.844   3.406  16.545 -2.4507 -0.9335 -0.5853
18223TIP3   OH276159   4.881   4.620  15.516  0.0795  0.1857  0.2577
18223TIP3    H176160   4.823   4.573  15.575 -1.1045 -0.1177 -1.0987
18223TIP3    H276161   4.823   4.662  15.452  1.3261 -1.2218 -1.9621
18224TIP3   OH276162   0.236   3.248  13.924 -0.0142  0.2186  0.5262
18224TIP3    H176163   0.163   3.185  13.922 -1.5352  1.8462  1.6573
18224TIP3    H276164   0.308   3.199  13.965 -1.0084 -0.9260  0.9830
18225TIP3   OH276165   5.609   3.642   1.445  0.3213 -0.0761 -0.3757
18225TIP3    H176166   5.628   3.548   1.439  0.1450 -0.0046 -3.0866
18225TIP3    H276167   5.694   3.684   1.441  0.3214 -0.0719 -0.3365
18226TIP3   OH276168   4.316   1.237  14.083  0.6688  0.3696 -0.0739
18226TIP3    H176169   4.410   1.236  14.065  0.6696 -0.1768 -0.0558
18226TIP3    H276170   4.276   1.270  14.003  0.8666  0.4854 -0.1247
18227TIP3   OH276171   1.669   3.998  10.851  1.1031  0.0553 -0.3702
18227TIP3    H176172   1.652   4.092  10.839 -0.6930 -0.0261  1.1843
18227TIP3    H276173   1.635   3.957  10.771 -1.6591  0.4030  0.5487
18228TIP3   OH276174   5.364   5.333   2.419  0.0057  0.0195  0.1419
18228TIP3    H176175   5.419   5.278   2.474 -0.5472  0.6210  1.3245
18228TIP3    H276176   5.378   5.299   2.330  1.9167 -0.1083  0.4580
18229TIP3   OH276177   6.668   5.907   3.876 -0.4281  0.2938 -0.0871
18229TIP3    H176178   6.650   5.895   3.969 -1.0374  0.6733 -0.1512
18229TIP3    H276179   6.762   5.889   3.867 -0.5734 -0.8229  0.4154
18230TIP3   OH276180   4.803   0.998  14.553  0.3157 -0.3969 -0.3633
18230TIP3    H176181   4.725   1.054  14.555 -0.2293 -1.0464 -1.8622
18230TIP3    H276182   4.836   1.000  14.642 -1.3676 -0.0225  0.2933
18231TIP3   OH276183   6.624   4.123  11.522 -0.2341  0.2168 -0.3749
18231TIP3    H176184   6.636   4.188  11.452  0.0716  0.7811  0.1972
18231TIP3    H276185   6.595   4.045  11.476  2.6738 -0.3262 -1.5358
18232TIP3   OH276186   6.309   2.988   0.370  0.5404  0.4158  0.5246
18232TIP3    H176187   6.361   2.908   0.371  2.0474  1.3084 -0.7361
18232TIP3    H276188   6.297   3.009   0.463  0.3188 -1.1212  0.8717
18233TIP3   OH276189   3.077   4.911   2.849 -0.1239 -0.1442 -0.2901
18233TIP3    H176190   3.006   4.942   2.906 -0.1795  1.7590 -1.3242
18233TIP3    H276191   3.115   4.837   2.897 -2.0993 -0.5505  0.7887
18234TIP3   OH276192   6.320   1.555  15.421 -0.3409  0.2466 -0.0210
18234TIP3    H176193   6.296   1.586  15.508 -2.2118 -0.9370 -0.0672
18234TIP3    H276194   6.243   1.571  15.367  0.6801  0.6895 -1.4138
18235TIP3   OH276195   4.496   3.014  13.098  0.4211  0.3963 -0.1879
18235TIP3    H176196   4.446   3.087  13.062  0.6163  0.9596  0.6659
18235TIP3    H276197   4.523   3.043  13.184 -1.2761 -1.4799  1.0766
18236TIP3   OH276198   3.975   2.321   1.968 -0.5512  0.3036  0.6079
18236TIP3    H176199   4.015   2.267   2.036 -1.6817 -1.1978  0.1157
18236TIP3    H276200   3.881   2.317   1.986 -0.8553  0.0190 -0.9386
18237TIP3   OH276201   3.877   2.982   2.625 -0.6253  0.4420  0.1343
18237TIP3    H176202   3.817   2.975   2.550  0.3926 -0.7461 -0.6069
18237TIP3    H276203   3.917   3.068   2.615 -0.4879  0.2921 -0.7160
18238TIP3   OH276204   0.186   3.457   4.031 -0.8633 -0.4454 -0.0292
18238TIP3    H176205   0.105   3.490   4.071 -0.9067  0.3493 -0.7399
18238TIP3    H276206   0.249   3.455   4.104 -0.9944  0.7951  0.1442
18239TIP3   OH276207   6.550   6.311   0.517  0.7025 -0.5300  0.2541
18239TIP3    H176208   6.466   6.281   0.550  0.8085 -0.2687  0.7655
18239TIP3    H276209   6.600   6.230   0.503  0.0815 -0.7426 -0.8633
18240TIP3   OH276210   2.697   3.877   1.893 -0.1651 -0.3414 -0.1990
18240TIP3    H176211   2.742   3.946   1.844  0.3241 -0.3012  0.3067
18240TIP3    H276212   2.753   3.800   1.884  0.0605 -0.2694  0.4985
18241TIP3   OH276213   2.311   6.165  16.295  0.4726  0.5850  0.4314
18241TIP3    H176214   2.231   6.214  16.318 -0.6952 -0.4174 -1.3063
18241TIP3    H276215   2.381   6.230  16.305 -0.2810  1.1174  3.4349
18242TIP3   OH276216   4.434   5.410  12.074 -0.4103 -0.0675  0.1370
18242TIP3    H176217   4.455   5.405  11.981  1.3693  0.2787  0.4966
18242TIP3    H276218   4.376   5.487  12.081  2.0120  1.9325 -0.3024
18243TIP3   OH276219   5.337   6.038   0.488 -0.0047  0.1542  0.4491
18243TIP3    H176220   5.242   6.038   0.477  0.1934 -0.9417 -1.8536
18243TIP3    H276221   5.361   5.946   0.494  0.9430  0.3921  0.5585
18244TIP3   OH276222   5.110   0.065  12.345  0.0228  0.1645 -0.1377
18244TIP3    H176223   5.119   0.147  12.296 -2.9203 -0.0401 -1.1993
18244TIP3    H276224   5.182   0.010  12.314  0.0990  1.1876 -1.8700
18245TIP3   OH276225   1.581   6.762   0.234  0.3889  0.0180 -0.1435
18245TIP3    H176226   1.635   6.800   0.303 -0.4055  1.8685 -0.4700
18245TIP3    H276227   1.492   6.767   0.269  0.2811 -2.0038 -0.0391
18246TIP3   OH276228   5.543   1.873   2.243  0.5258  0.4409  0.7090
18246TIP3    H176229   5.492   1.801   2.206  0.4564  1.7129 -1.8539
18246TIP3    H276230   5.634   1.850   2.224  0.4427  1.5945 -1.4333
18247TIP3   OH276231   5.399   6.738   6.109  0.4771 -0.2768 -0.1628
18247TIP3    H176232   5.455   6.802   6.153 -0.3039  0.7269 -0.5844
18247TIP3    H276233   5.317   6.785   6.094  0.2069 -1.0784 -1.3226
18248TIP3   OH276234   6.591   2.684  11.606 -0.0762  0.4136 -0.1806
18248TIP3    H176235   6.588   2.739  11.684  0.8583  0.3837 -0.1136
18248TIP3    H276236   6.560   2.741  11.536 -0.8271  0.4704  0.1930
18249TIP3   OH276237   0.771   5.423   3.105  0.0737  0.0065 -0.1794
18249TIP3    H176238   0.811   5.479   3.038 -1.2780 -0.3122 -1.3049
18249TIP3    H276239   0.749   5.342   3.058  0.6152 -0.9042  1.0690
18250TIP3   OH276240   4.166   2.278  15.616 -0.2914 -0.3848  0.0029
18250TIP3    H176241   4.248   2.309  15.577 -1.7286  0.7800 -2.2990
18250TIP3    H276242   4.181   2.282  15.710  2.2580 -0.1575 -0.3515
18251TIP3   OH276243   2.328   1.028  14.889 -0.2677  0.3136 -0.5390
18251TIP3    H176244   2.333   0.983  14.804  3.9200 -0.9210  0.1293
18251TIP3    H276245   2.266   0.976  14.939 -1.2247 -0.1920 -2.1604
18252TIP3   OH276246   3.666   6.545  12.313  0.2703  0.2030  0.3794
18252TIP3    H176247   3.673   6.475  12.379 -1.5009 -0.9010 -0.5300
18252TIP3    H276248   3.709   6.508  12.236  0.1715  0.5114  0.1781
18253TIP3   OH276249   3.642   0.488  11.938 -0.0514 -0.4370 -0.3554
18253TIP3    H176250   3.583   0.435  11.991  1.5766 -1.1625  0.7873
18253TIP3    H276251   3.584   0.553  11.896 -1.8739 -2.1474 -0.6323
18254TIP3   OH276252   4.229   1.912   4.636  0.2765  0.4542 -0.5012
18254TIP3    H176253   4.205   1.824   4.665 -0.2687  0.3852 -1.1261
18254TIP3    H276254   4.176   1.926   4.558  0.4674  1.2871 -0.4857
18255TIP3   OH276255   5.516   0.164  15.578 -0.2735  0.4322  0.3100
18255TIP3    H176256   5.568   0.229  15.532 -0.9693  0.6173 -0.2184
18255TIP3    H276257   5.539   0.081  15.536  1.4759  0.1332  1.7237
18256TIP3   OH276258   0.768   4.797   1.086  0.6856  0.2102 -0.1977
18256TIP3    H176259   0.695   4.847   1.049  0.0832 -0.5267 -0.0071
18256TIP3    H276260   0.790   4.843   1.167  0.1054  0.1408  0.0011
18257TIP3   OH276261   6.704   3.970  16.192 -0.2297 -0.4436 -0.2307
18257TIP3    H176262   6.620   3.932  16.165  0.4234 -1.7251 -0.4889
18257TIP3    H276263   6.682   4.061  16.212 -1.6686 -0.7195 -0.3864
18258TIP3   OH276264   6.196   0.160  11.252  0.0594 -0.1858  0.7555
18258TIP3    H176265   6.157   0.099  11.189 -1.3841  1.3781  0.0671
18258TIP3    H276266   6.267   0.202  11.204  0.3931 -0.5830  0.8989
18259TIP3   OH276267   4.237   1.619  14.160 -0.1713  0.0459 -0.1508
18259TIP3    H176268   4.243   1.701  14.110 -1.6122 -0.5121 -1.3243
18259TIP3    H276269   4.143   1.607  14.175  0.1667 -0.3168  1.8840
18260TIP3   OH276270   0.044   6.048   5.782  0.1458  0.0845  1.3507
18260TIP3    H176271   0.061   5.957   5.755 -0.7106  0.2504  0.1624
18260TIP3    H276272  -0.037   6.071   5.736 -0.0238  1.2219  2.2021
18261TIP3   OH276273   4.430   3.376   5.390 -0.3358  0.4974 -0.1417
18261TIP3    H176274   4.404   3.306   5.450 -1.0920  1.1549  0.3200
18261TIP3    H276275   4.488   3.333   5.327 -0.9206 -0.5829  0.0253
18262TIP3   OH276276   1.250   2.541  14.937 -0.2258 -0.2186 -0.6958
18262TIP3    H176277   1.344   2.530  14.924 -0.0893 -2.1551  1.3877
18262TIP3    H276278   1.236   2.524  15.030 -2.6706 -0.0974 -0.9662
18263TIP3   OH276279   0.337   3.839  15.267 -0.1293 -0.1939 -0.5771
18263TIP3    H176280   0.418   3.791  15.247 -0.8814 -1.6159 -0.3968
18263TIP3    H276281   0.342   3.856  15.361 -0.2374 -0.6985 -0.4755
18264TIP3   OH276282   4.208   5.317  13.955  0.1184 -0.2116  0.2699
18264TIP3    H176283   4.291   5.346  13.917  0.5008  0.2214  1.3798
18264TIP3    H276284   4.143   5.381  13.924 -0.0222 -1.1257 -1.4258
18265TIP3   OH276285   2.406   5.335  12.870  0.7660  0.3561  0.2476
18265TIP3    H176286   2.340   5.381  12.818 -0.0888 -1.1061 -0.0179
18265TIP3    H276287   2.489   5.374  12.843  0.0909  1.7569  0.0797
18266TIP3   OH276288   2.069   4.945  12.280 -0.2927  0.2805  0.3012
18266TIP3    H176289   2.045   4.956  12.188 -1.5094 -0.7971  0.4645
18266TIP3    H276290   2.157   4.907  12.278 -0.5028 -0.1750 -0.4206
18267TIP3   OH276291   3.478   0.272   3.374 -0.0231 -0.1290 -0.9021
18267TIP3    H176292   3.512   0.356   3.405  0.2011  0.2766 -2.1777
18267TIP3    H276293   3.383   0.287   3.365 -0.3907 -0.8305  1.3183
18268TIP3   OH276294   6.518   2.050   1.014  0.0083 -0.1076 -0.0101
18268TIP3    H176295   6.588   2.113   1.000  0.3214 -0.4126  0.1624
18268TIP3    H276296   6.539   2.009   1.098  0.5826 -1.4277 -0.7741
18269TIP3   OH276297   0.341   2.363   1.115  0.3938  0.0511  0.0972
18269TIP3    H176298   0.367   2.455   1.110 -0.3496  0.2097 -1.4251
18269TIP3    H276299   0.259   2.359   1.066 -0.0298 -1.2828  0.8607
18270TIP3   OH276300   2.058   2.432  16.256  0.0002 -0.4750 -0.7162
18270TIP3    H176301   2.082   2.487  16.331 -1.2072  0.6276 -1.0974
18270TIP3    H276302   1.967   2.408  16.272 -0.4261  0.1603 -2.0343
18271TIP3   OH276303   4.467   4.817  15.135 -0.4258  0.2637  0.4635
18271TIP3    H176304   4.490   4.724  15.131  0.7862  0.5674 -0.2104
18271TIP3    H276305   4.464   4.845  15.044  2.1418  1.5138  0.6458
18272TIP3   OH276306   6.137   0.192   4.627 -0.4341  0.0666 -0.4978
18272TIP3    H176307   6.068   0.133   4.596 -1.1205  0.7198 -0.2550
18272TIP3    H276308   6.207   0.185   4.563  1.2367 -3.9744  1.4091
18273TIP3   OH276309   6.197   3.607   5.055  0.0548  0.3763 -0.0340
18273TIP3    H176310   6.153   3.534   5.098 -0.5831  0.2206 -0.9122
18273TIP3    H276311   6.225   3.572   4.971  0.1118  1.0191 -0.2922
18274TIP3   OH276312   6.741   0.949  16.524 -0.1999 -0.3075 -0.2293
18274TIP3    H176313   6.766   0.920  16.612  0.8125  0.4343 -0.2487
18274TIP3    H276314   6.678   1.019  16.539  0.6550  0.4414 -0.0504
18275TIP3   OH276315   2.436   1.948   5.353 -0.1356  0.0992 -0.3892
18275TIP3    H176316   2.461   2.028   5.306 -0.4552  0.2042 -0.3810
18275TIP3    H276317   2.428   1.976   5.444 -1.9432  0.4502 -0.6301
18276TIP3   OH276318   2.256   6.722   4.078  0.1634  0.0690  0.0786
18276TIP3    H176319   2.198   6.776   4.023  1.0719  1.2250  0.2219
18276TIP3    H276320   2.265   6.640   4.030  0.4464  0.8247 -1.2151
18277TIP3   OH276321   4.349   5.715   3.670 -0.1602  0.4182 -0.6797
18277TIP3    H176322   4.417   5.782   3.670 -0.2929  0.5816 -1.9199
18277TIP3    H276323   4.397   5.632   3.677  0.0246  0.6025  0.4650
18278TIP3   OH276324   2.880   1.947   0.575  0.0834  0.8604 -0.3078
18278TIP3    H176325   2.871   1.917   0.666 -1.1371  1.8382 -0.0765
18278TIP3    H276326   2.925   2.031   0.581  1.4720  0.1803 -0.7688
18279TIP3   OH276327   1.956   1.218  12.919 -0.5514  0.0914 -0.2439
18279TIP3    H176328   1.950   1.160  12.844 -1.9706 -0.2231  0.0831
18279TIP3    H276329   1.972   1.160  12.994 -0.7645  0.2342 -0.0847
18280TIP3   OH276330   4.028   2.989   3.117 -0.0690  0.4709 -0.2949
18280TIP3    H176331   3.959   2.958   3.176 -1.4165  0.0776 -1.9865
18280TIP3    H276332   4.032   2.923   3.047  1.3448  0.9983 -0.7478
18281TIP3   OH276333   3.879   4.835  15.072 -0.4574  0.4014 -0.0914
18281TIP3    H176334   3.917   4.862  14.988 -1.4019  1.6489 -0.1522
18281TIP3    H276335   3.848   4.746  15.057  0.6583  0.0909 -0.6273
18282TIP3   OH276336   3.332   2.675  11.836  0.1328  0.1901 -0.2555
18282TIP3    H176337   3.373   2.684  11.750  0.9328  2.7111  0.3029
18282TIP3    H276338   3.239   2.691  11.819  0.0493 -0.8066 -0.8329
18283TIP3   OH276339   6.503   5.215  15.990  0.6094 -0.3443  0.4636
18283TIP3    H176340   6.421   5.217  16.040  1.9935 -0.7002  2.8577
18283TIP3    H276341   6.498   5.294  15.935 -0.2945  0.9951  2.3492
18284TIP3   OH276342   4.553   5.889   4.230  0.3408 -0.4706 -0.5732
18284TIP3    H176343   4.486   5.834   4.190 -0.5384  0.8493 -0.9575
18284TIP3    H276344   4.540   5.879   4.324  0.4254 -1.1835 -0.6293
18285TIP3   OH276345   6.809   6.738  12.577  0.1240  0.2652 -0.3660
18285TIP3    H176346   6.814   6.824  12.619  0.7797  0.9414 -1.7787
18285TIP3    H276347   6.716   6.719  12.573  0.0375  0.0562  1.5853
18286TIP3   OH276348   2.523   4.466   5.360 -0.5728 -0.2041  0.3182
18286TIP3    H176349   2.479   4.408   5.422 -0.9597 -0.2616 -0.0083
18286TIP3    H276350   2.467   4.544   5.357 -1.7310 -1.0369 -1.5528
18287TIP3   OH276351   1.940   5.977   5.889  0.1400  0.1118 -0.1874
18287TIP3    H176352   1.903   5.954   5.804  1.1972 -1.9177 -0.1530
18287TIP3    H276353   1.880   5.939   5.953 -0.8917  2.0050  0.0584
18288TIP3   OH276354   3.192   4.124   0.251  0.0694  0.0396 -0.0762
18288TIP3    H176355   3.251   4.197   0.270 -0.0431 -0.1628  1.1840
18288TIP3    H276356   3.139   4.153   0.177  2.4700 -0.2098 -2.0038
18289TIP3   OH276357   1.859   2.031  11.452  0.2053  0.3662 -0.1692
18289TIP3    H176358   1.951   2.047  11.474  0.8698 -1.5569 -1.3176
18289TIP3    H276359   1.856   1.939  11.425 -2.4927 -0.2842  1.9321
18290TIP3   OH276360   4.635   6.762  15.169 -0.2976 -0.2324 -0.1367
18290TIP3    H176361   4.642   6.849  15.131  0.1484 -0.1066  0.2215
18290TIP3    H276362   4.613   6.704  15.095  2.5508 -0.3313 -0.9957
18291TIP3   OH276363   2.674   5.013  11.833  0.3381  0.0396 -0.1852
18291TIP3    H176364   2.726   5.042  11.759 -0.5277  1.9295 -0.1244
18291TIP3    H276365   2.660   5.092  11.885 -0.9012 -0.7953  0.8286
18292TIP3   OH276366   3.369   0.012  14.362 -0.0629 -0.1409 -0.4882
18292TIP3    H176367   3.394   0.104  14.368  1.0066 -0.4276 -0.3421
18292TIP3    H276368   3.301   0.002  14.428  0.2500  0.4148 -0.0679
18293TIP3   OH276369   1.303   1.149  12.046  0.3066 -0.4442 -0.8084
18293TIP3    H176370   1.246   1.129  12.120  0.6305 -1.1831 -0.7457
18293TIP3    H276371   1.245   1.190  11.981  0.1709  0.9485  0.1418
18294TIP3   OH276372   4.225   0.748  14.062  0.2487 -0.1509 -0.2398
18294TIP3    H176373   4.244   0.826  14.114  2.3882  1.3597 -3.0362
18294TIP3    H276374   4.299   0.690  14.079 -0.5847 -0.9947  0.6570
18295TIP3   OH276375   0.211   2.156  11.935 -0.1491 -0.1617 -0.0781
18295TIP3    H176376   0.259   2.203  11.867  0.1608 -0.6058 -0.1703
18295TIP3    H276377   0.166   2.085  11.889 -0.3452 -0.1602  0.1083
18296TIP3   OH276378   6.754   5.029  14.070  0.3482 -0.5419  0.5165
18296TIP3    H176379   6.812   5.053  14.143  1.4877  1.5222 -0.9574
18296TIP3    H276380   6.798   4.957  14.027  1.9037  0.9524 -0.5436
18297TIP3   OH276381   0.019   4.512   5.045 -0.4031 -0.0286  0.2644
18297TIP3    H176382   0.111   4.523   5.023 -0.6739  3.6777  0.2262
18297TIP3    H276383   0.016   4.522   5.141 -0.5697 -2.7393  0.5968
18298TIP3   OH276384   1.778   0.371  16.328  0.1016 -0.0980  0.4060
18298TIP3    H176385   1.768   0.276  16.317 -0.4999 -0.0311  0.3613
18298TIP3    H276386   1.730   0.391  16.409 -0.6527  0.3190 -0.1350
18299TIP3   OH276387   4.133   1.484  12.315  0.0821 -0.2691  0.3574
18299TIP3    H176388   4.172   1.449  12.235  0.9946 -1.2160  1.1908
18299TIP3    H276389   4.093   1.408  12.358  0.2628  0.0756  1.1653
18300TIP3   OH276390   2.656   6.226  12.048  0.2689 -0.2159 -0.2309
18300TIP3    H176391   2.593   6.154  12.045  0.7549 -0.6663  0.2210
18300TIP3    H276392   2.733   6.193  12.000 -0.1577  0.6658 -1.5857
18301TIP3   OH276393   5.891   6.108  10.888  0.8518  0.2009 -0.0431
18301TIP3    H176394   5.843   6.124  10.970  1.2289  0.1174  0.1980
18301TIP3    H276395   5.960   6.175  10.887  1.8239 -0.7617  0.4883
18302TIP3   OH276396   4.208   2.857  12.549 -0.2980 -0.6128  0.4838
18302TIP3    H176397   4.254   2.792  12.602  0.4186 -1.3593 -1.0152
18302TIP3    H276398   4.180   2.809  12.471 -0.9532  0.5614 -0.0268
18303TIP3   OH276399   0.961   2.579  13.312 -0.5037  0.0372  0.3343
18303TIP3    H176400   1.038   2.588  13.257  0.7341 -1.2072  1.7755
18303TIP3    H276401   0.962   2.656  13.369  1.3874 -1.3210  2.2959
18304TIP3   OH276402   2.299   1.838   0.104  0.0395  0.1340 -0.0206
18304TIP3    H176403   2.285   1.930   0.083  0.2817  0.2533  0.3374
18304TIP3    H276404   2.216   1.796   0.084  0.7384 -0.0747 -2.9552
18305TIP3   OH276405   3.054   2.600   3.522 -0.2905  0.1475  0.6499
18305TIP3    H176406   3.119   2.669   3.537 -0.9179  0.7182  0.7783
18305TIP3    H276407   3.066   2.575   3.430  0.4463 -0.1118  0.8088
18306TIP3   OH276408   1.649   4.814   0.667  0.1419  0.2720  0.4642
18306TIP3    H176409   1.569   4.767   0.692 -0.4871  2.2540  2.4306
18306TIP3    H276410   1.622   4.869   0.593 -0.3515  0.9074  1.0989
18307TIP3   OH276411   0.356   6.664   4.717  0.1656 -0.1598 -0.0341
18307TIP3    H176412   0.403   6.586   4.687  0.0741  0.3062 -1.5053
18307TIP3    H276413   0.421   6.734   4.709 -0.3791  0.2645 -0.8246
18308TIP3   OH276414   0.160   4.508  15.492 -0.0544 -0.1108 -0.3644
18308TIP3    H176415   0.120   4.571  15.552  1.2182  0.9780 -0.6021
18308TIP3    H276416   0.172   4.429  15.545 -2.1125 -0.3711 -0.1988
18309TIP3   OH276417   3.039   2.075  16.778 -0.1378 -0.1047  0.5217
18309TIP3    H176418   3.108   2.009  16.767 -1.1780 -0.9958 -1.2876
18309TIP3    H276419   3.047   2.104  16.868  2.1196 -0.7141  0.5742
18310TIP3   OH276420   3.669   4.771   4.351 -0.6841  0.3695 -0.0395
18310TIP3    H176421   3.676   4.685   4.310 -0.4604 -0.2377  1.2063
18310TIP3    H276422   3.738   4.770   4.418 -0.5579  1.5927 -0.1448
18311TIP3   OH276423   4.263   0.915   5.246  0.5470 -0.0935 -0.1450
18311TIP3    H176424   4.286   0.824   5.226 -0.9791 -0.3504 -0.8358
18311TIP3    H276425   4.224   0.910   5.333  1.4381  0.0869  0.2817
18312TIP3   OH276426   4.897   1.811  14.939 -0.2679  0.1423  0.1369
18312TIP3    H176427   4.824   1.854  14.895 -0.2997  0.1965  0.2411
18312TIP3    H276428   4.961   1.796  14.869 -0.2202  0.4394  0.1143
18313TIP3   OH276429   0.734   5.111  10.567 -0.4911  0.3603 -0.0007
18313TIP3    H176430   0.747   5.080  10.478  1.6277  1.3646 -0.0836
18313TIP3    H276431   0.755   5.204  10.564 -1.6876  0.7108  1.2939
18314TIP3   OH276432   2.378   0.075   0.458 -0.0845  0.2484  0.7737
18314TIP3    H176433   2.369   0.089   0.364  4.1063  0.4098  0.2048
18314TIP3    H276434   2.368  -0.020   0.469  2.2986 -0.2318 -0.4399
18315TIP3   OH276435   3.291   5.234   5.066  0.0540 -0.3674  0.0834
18315TIP3    H176436   3.281   5.281   5.149  0.9656  1.1713 -0.6439
18315TIP3    H276437   3.253   5.148   5.083 -2.0404  0.7197  1.3603
18316TIP3   OH276438   5.403   0.971   2.957 -0.2278 -0.2704 -0.1255
18316TIP3    H176439   5.442   0.907   2.897  1.1735 -0.8885  1.3628
18316TIP3    H276440   5.327   0.926   2.993  0.2961 -0.8265  0.3169
18317TIP3   OH276441   3.071   4.777  13.595 -0.4320 -0.7303 -0.2123
18317TIP3    H176442   3.045   4.859  13.637 -3.1862 -1.0948 -1.0162
18317TIP3    H276443   2.988   4.737  13.568  0.9542 -2.8697 -1.5416
18318TIP3   OH276444   3.905   5.829   0.211  0.5352 -0.2887  0.0371
18318TIP3    H176445   3.890   5.799   0.301 -0.7698 -0.0502 -0.0908
18318TIP3    H276446   3.990   5.791   0.188 -0.6614 -3.3116  0.1439
18319TIP3   OH276447   0.544   2.310  13.440  0.2137  0.0624  0.7377
18319TIP3    H176448   0.471   2.329  13.381 -0.1250 -2.1566  0.3596
18319TIP3    H276449   0.613   2.277  13.382  0.6201 -0.1907  1.3620
18320TIP3   OH276450   3.519   2.608  11.286  0.3384  0.1011  0.1877
18320TIP3    H176451   3.529   2.680  11.349  0.8796  0.3388 -0.1554
18320TIP3    H276452   3.425   2.604  11.269  0.4070  1.6370 -0.8039
18321TIP3   OH276453   5.268   5.358   4.180  0.2051 -0.1277  0.6201
18321TIP3    H176454   5.264   5.298   4.105  1.1055 -2.0697  2.0492
18321TIP3    H276455   5.354   5.400   4.172  0.9457 -1.4496  1.3348
18322TIP3   OH276456   1.149   5.653  12.831  0.4905  0.5359  0.3829
18322TIP3    H176457   1.217   5.625  12.769  0.6431 -0.4798  0.9830
18322TIP3    H276458   1.079   5.686  12.776  1.1647  0.9101 -0.2778
18323TIP3   OH276459   5.665   0.209  12.159  0.1183 -0.1761  0.4972
18323TIP3    H176460   5.614   0.149  12.213 -1.1458  0.0303 -0.4081
18323TIP3    H276461   5.673   0.288  12.211  1.2848 -0.8937  1.4592
18324TIP3   OH276462   3.047   5.148   2.443  0.1233  0.2515 -0.3104
18324TIP3    H176463   2.956   5.177   2.436  0.6015  2.3246  1.2148
18324TIP3    H276464   3.060   5.128   2.535  2.0495  3.3401  0.2380
18325TIP3   OH276465   3.454   1.858  12.129  0.3665 -0.6325  0.4473
18325TIP3    H176466   3.526   1.880  12.070  0.3750 -0.8697  0.3657
18325TIP3    H276467   3.384   1.919  12.107  1.3087  1.1357  2.0630
18326TIP3   OH276468   1.516   1.119   4.342  0.6300 -0.4695  0.4502
18326TIP3    H176469   1.580   1.065   4.388  2.0608 -0.7236 -1.7055
18326TIP3    H276470   1.473   1.060   4.280  0.5328  0.3501 -0.2959
18327TIP3   OH276471   5.905   1.042  15.971 -0.1623  0.1973 -0.3052
18327TIP3    H176472   5.820   1.085  15.976 -1.1781 -1.7489  0.3201
18327TIP3    H276473   5.899   0.971  16.035  0.7738 -1.9142 -2.4420
18328TIP3   OH276474   6.251   3.082   3.056  0.6107 -0.2034  0.3165
18328TIP3    H176475   6.254   3.155   2.994 -1.0519 -1.4935 -1.4091
18328TIP3    H276476   6.317   3.020   3.023 -1.1336 -1.4540 -1.0406
18329TIP3   OH276477   2.317   2.382  13.424 -0.1141 -0.6940 -0.6618
18329TIP3    H176478   2.308   2.332  13.343 -1.3738  0.5271 -1.3271
18329TIP3    H276479   2.291   2.471  13.400  0.7740 -0.0048  0.7903
18330TIP3   OH276480   5.200   3.443   5.638 -0.2034  0.0838  0.1410
18330TIP3    H176481   5.282   3.488   5.653  0.8448 -1.7784  0.3578
18330TIP3    H276482   5.139   3.511   5.611  1.1383  1.6567  0.9445
18331TIP3   OH276483   0.161   6.666  13.257  0.4871 -0.8631 -0.4313
18331TIP3    H176484   0.185   6.581  13.294  0.1717 -0.7817 -0.0362
18331TIP3    H276485   0.164   6.653  13.162  2.6336 -0.7339 -0.4471
18332TIP3   OH276486   1.198   0.505  12.847  0.6578 -0.2750  0.1428
18332TIP3    H176487   1.254   0.436  12.811  0.4587 -0.7229  0.6890
18332TIP3    H276488   1.187   0.482  12.939 -1.2433 -0.7717 -0.1501
18333TIP3   OH276489   1.904   6.770   2.275 -0.5684  0.3266 -0.8930
18333TIP3    H176490   1.954   6.848   2.299  0.3013  1.6249 -5.7446
18333TIP3    H276491   1.969   6.709   2.242 -1.5255 -1.5085  0.4307
18334TIP3   OH276492   4.647   3.841   4.805  0.6469 -0.2861  0.1308
18334TIP3    H176493   4.556   3.846   4.835  0.7663 -1.1567  0.6673
18334TIP3    H276494   4.646   3.774   4.736  1.2141 -1.7502  1.4960
18335TIP3   OH276495   5.370   3.173  13.838 -0.3209  0.1413 -0.1657
18335TIP3    H176496   5.441   3.110  13.851 -1.2940 -1.0699 -0.5551
18335TIP3    H276497   5.412   3.259  13.850  1.4143 -0.4920 -1.3131
18336TIP3   OH276498   2.703   5.144   6.254 -0.3098  0.2757 -0.0757
18336TIP3    H176499   2.675   5.235   6.264 -0.5451  0.2778 -0.6675
18336TIP3    H276500   2.660   5.097   6.325  0.5928  0.7851  0.8182
18337TIP3   OH276501   1.295   0.927   3.227  0.0268 -0.1482  0.0668
18337TIP3    H176502   1.265   0.849   3.180  0.5267 -0.4954  0.3159
18337TIP3    H276503   1.380   0.902   3.263  1.5293  1.3755 -2.1480
18338TIP3   OH276504   6.026   2.372  16.126 -0.0318  0.4234 -0.0031
18338TIP3    H176505   6.084   2.305  16.091  3.0685  3.5648 -1.4915
18338TIP3    H276506   6.080   2.422  16.187 -2.2792  1.4115  1.3249
18339TIP3   OH276507   0.630   1.284  12.299 -0.6458  0.0437 -0.3033
18339TIP3    H176508   0.591   1.339  12.368  2.3994  0.9664  0.8421
18339TIP3    H276509   0.557   1.265  12.240 -2.8502  1.3580  1.7974
18340TIP3   OH276510   4.426   4.048   6.418  0.0961  0.0457 -0.5468
18340TIP3    H176511   4.473   3.968   6.439 -0.9828 -0.8144 -1.3175
18340TIP3    H276512   4.338   4.035   6.452  0.2171  1.4249  0.4128
18341TIP3   OH276513   4.800   3.216  12.058 -0.5742  0.2334  0.5955
18341TIP3    H176514   4.865   3.244  11.993 -0.0071  0.8159  1.3874
18341TIP3    H276515   4.850   3.203  12.139 -1.4176  0.5688  1.1931
18342TIP3   OH276516   6.215   3.974   2.813  0.3593 -0.6452  0.0139
18342TIP3    H176517   6.156   4.037   2.771  0.5384 -0.5997 -0.1727
18342TIP3    H276518   6.280   4.029   2.857  0.1827 -0.6928  0.3392
18343TIP3   OH276519   3.699   1.538  13.099 -0.4663  0.0017  0.0480
18343TIP3    H176520   3.739   1.513  13.015  2.7023 -0.9672  1.6749
18343TIP3    H276521   3.607   1.512  13.090 -0.5465  0.9667 -3.4651
18344TIP3   OH276522   2.684   1.109  10.811 -0.3201  0.1928  0.7926
18344TIP3    H176523   2.741   1.185  10.813 -0.9458  0.6828  0.3631
18344TIP3    H276524   2.691   1.075  10.722 -0.4194  0.0316  0.8439
18345TIP3   OH276525   0.223   4.232   4.198 -0.3948 -1.1059 -0.0656
18345TIP3    H176526   0.219   4.328   4.194 -0.4463 -1.1085 -0.0653
18345TIP3    H276527   0.190   4.211   4.286  1.5273 -0.9933  0.7423
18346TIP3   OH276528   5.554   2.155  11.773 -0.1197  0.0745 -0.0125
18346TIP3    H176529   5.536   2.238  11.817  1.2779 -0.1880  1.1557
18346TIP3    H276530   5.534   2.089  11.838 -0.2116 -0.4600 -0.5774
18347TIP3   OH276531   4.787   2.340  16.399  0.3410  0.0923  0.0920
18347TIP3    H176532   4.865   2.299  16.437 -0.5116 -0.7248  1.0189
18347TIP3    H276533   4.723   2.268  16.393  0.0373  0.4766 -1.7740
18348TIP3   OH276534   6.049   5.789   0.401  0.5318  0.0519  0.0381
18348TIP3    H176535   6.055   5.880   0.374 -1.2213 -0.0366 -0.7579
18348TIP3    H276536   6.006   5.744   0.328 -1.9212 -0.6885  1.7970
18349TIP3   OH276537   1.568   6.646   5.875 -0.3322  0.1511 -0.0987
18349TIP3    H176538   1.572   6.724   5.930 -1.6843  1.4957 -1.8063
18349TIP3    H276539   1.536   6.577   5.934 -1.1369  1.3982  0.9726
18350TIP3   OH276540   0.694   0.397   3.540  0.3556  0.0102  0.0033
18350TIP3    H176541   0.753   0.370   3.610 -0.0999  1.0818  0.8192
18350TIP3    H276542   0.671   0.315   3.495  1.0177 -0.6307  0.8074
18351TIP3   OH276543   2.601   0.600   1.207 -0.1158  0.2494  0.1413
18351TIP3    H176544   2.614   0.619   1.115  0.0998  1.3017  0.3808
18351TIP3    H276545   2.510   0.625   1.224 -0.0308  0.4454  0.3085
18352TIP3   OH276546   1.297   2.598   5.428 -0.0747 -0.3834 -0.2476
18352TIP3    H176547   1.387   2.598   5.461 -0.2796  0.1887  0.3229
18352TIP3    H276548   1.301   2.647   5.347  0.2768 -1.0757 -0.6610
18353TIP3   OH276549   4.582   3.004   3.013 -0.6938  0.1892  0.2231
18353TIP3    H176550   4.660   2.964   3.050 -0.0502 -0.8796 -2.0872
18353TIP3    H276551   4.510   2.974   3.069  0.1852 -1.5087  0.4980
18354TIP3   OH276552   2.951   4.144  13.063 -0.1654  0.3493 -0.1109
18354TIP3    H176553   3.037   4.153  13.105 -0.6533  0.6613  0.8782
18354TIP3    H276554   2.891   4.183  13.126 -0.9430  0.8597 -1.1445
18355TIP3   OH276555   1.653   6.377  15.950  0.2572  0.0420 -0.9709
18355TIP3    H176556   1.559   6.365  15.938 -0.2856  0.7384  1.8047
18355TIP3    H276557   1.668   6.470  15.935  0.8524 -0.3332 -2.9786
18356TIP3   OH276558   6.593   3.520   5.413 -0.1813  0.1668 -0.8205
18356TIP3    H176559   6.675   3.568   5.415  0.0589 -0.2464 -0.4945
18356TIP3    H276560   6.603   3.457   5.343 -0.3864  0.3985 -1.0606
18357TIP3   OH276561   1.549   3.501   3.845 -0.3448  0.3115 -0.4173
18357TIP3    H176562   1.630   3.548   3.826 -1.1108  1.6533 -0.4534
18357TIP3    H276563   1.565   3.459   3.930  0.1678  1.0787 -0.1258
18358TIP3   OH276564   2.015   3.121  13.489 -0.3592 -0.3342  0.3839
18358TIP3    H176565   1.965   3.091  13.565  1.5244 -1.8465  1.1099
18358TIP3    H276566   1.959   3.101  13.414 -1.6372 -0.1752  1.2627
18359TIP3   OH276567   3.269   0.557  16.078  0.3292 -0.4576  0.5654
18359TIP3    H176568   3.196   0.516  16.125 -1.2118 -0.3298 -1.5653
18359TIP3    H276569   3.253   0.651  16.084  0.0560 -0.4392 -0.2234
18360TIP3   OH276570   4.977   5.504   2.874 -0.0788 -0.0155  0.0582
18360TIP3    H176571   4.914   5.507   2.946 -0.0071 -1.6928  0.2435
18360TIP3    H276572   5.062   5.488   2.917 -0.1418 -1.7570 -0.4058
18361TIP3   OH276573   2.108   4.253   4.697 -0.3415 -0.0790  0.1028
18361TIP3    H176574   2.178   4.256   4.762  0.1428  0.0295 -0.4220
18361TIP3    H276575   2.140   4.306   4.624  0.1233 -2.1158 -1.2317
18362TIP3   OH276576   5.284   1.151  12.971 -0.3383  0.5724 -0.0485
18362TIP3    H176577   5.368   1.131  12.929 -0.2345  1.0498 -0.0726
18362TIP3    H276578   5.233   1.193  12.902 -1.3831 -1.5918 -0.6772
18363TIP3   OH276579   2.657   1.681  11.269 -0.0988  0.1097 -0.0682
18363TIP3    H176580   2.745   1.646  11.253  0.5808  1.4191  0.6999
18363TIP3    H276581   2.662   1.773  11.246 -0.7627  0.6298  1.7012
18364TIP3   OH276582   3.948   5.798   2.665  0.6468 -0.1232  0.1592
18364TIP3    H176583   3.871   5.784   2.721  0.2513 -1.7305 -0.7451
18364TIP3    H276584   4.022   5.776   2.721  0.2852 -1.2317  0.2280
18365TIP3   OH276585   5.041   4.332  16.517 -0.0357  0.0944  0.1489
18365TIP3    H176586   5.007   4.358  16.603 -0.2107 -0.9248  0.4053
18365TIP3    H276587   5.135   4.322  16.531  0.5053  3.1170 -0.6110
18366TIP3   OH276588   2.443   5.648  14.083 -0.0306 -0.7716 -0.3617
18366TIP3    H176589   2.501   5.573  14.069  0.2929 -0.3480 -1.3392
18366TIP3    H276590   2.364   5.628  14.034  0.5219  0.0438 -1.6392
18367TIP3   OH276591   3.802   2.676   4.361 -0.7483  0.9925 -0.1690
18367TIP3    H176592   3.848   2.592   4.353 -1.8734  0.4450 -1.2080
18367TIP3    H276593   3.841   2.731   4.294 -0.6117  1.0171 -0.0708
18368TIP3   OH276594   2.529   2.644  13.239  0.2157 -0.1686  0.2332
18368TIP3    H176595   2.523   2.691  13.322 -0.4521  1.6073 -0.7617
18368TIP3    H276596   2.439   2.619  13.219  0.6345 -2.7386  1.1400
18369TIP3   OH276597   6.749   2.690   3.280  0.0706 -0.5211 -0.1972
18369TIP3    H176598   6.711   2.684   3.192  1.6521  0.1184 -0.9656
18369TIP3    H276599   6.703   2.763   3.321 -0.3374 -0.4961 -0.6885
18370TIP3   OH276600   6.746   3.242   1.725  0.2431  0.0440  0.2452
18370TIP3    H176601   6.810   3.230   1.795  1.8022  1.4572 -0.8417
18370TIP3    H276602   6.688   3.166   1.731  2.2660 -1.5182  1.0483
18371TIP3   OH276603   4.387   3.681   3.323  0.8850 -0.0933  0.7542
18371TIP3    H176604   4.449   3.745   3.289  0.0531  0.6983  0.6737
18371TIP3    H276605   4.323   3.670   3.252  0.9806 -0.9672  0.7952
18372TIP3   OH276606   6.295   4.137  12.219 -0.5436 -0.3341  0.1453
18372TIP3    H176607   6.297   4.231  12.202 -1.9607 -0.2908  0.0755
18372TIP3    H276608   6.312   4.097  12.133  2.0284 -0.2016  0.5126
18373TIP3   OH276609   3.093   0.660   6.063  0.9279 -0.2510 -0.8099
18373TIP3    H176610   3.098   0.745   6.107 -0.0373  0.0030 -1.1737
18373TIP3    H276611   3.001   0.649   6.041  1.3376 -0.4145 -2.6636
18374TIP3   OH276612   3.994   3.115  15.197  0.1097 -0.0235 -0.5468
18374TIP3    H176613   3.975   3.154  15.282 -0.5814 -0.0378 -0.6870
18374TIP3    H276614   3.958   3.177  15.133 -1.6744 -1.1931 -0.7532
18375TIP3   OH276615   1.635   0.400  12.746  0.0580  1.0606  0.3890
18375TIP3    H176616   1.563   0.422  12.687 -0.1612 -2.6034 -0.9325
18375TIP3    H276617   1.709   0.384  12.687  0.0961 -1.7236  1.1046
18376TIP3   OH276618   2.722   2.427  12.859 -0.0687  0.1904 -0.0617
18376TIP3    H176619   2.741   2.381  12.941 -1.8513 -0.3220  0.0946
18376TIP3    H276620   2.795   2.404  12.802  0.3935 -0.7378  0.8636
18377TIP3   OH276621   3.273   0.510  13.193 -0.4766 -0.0382  0.1333
18377TIP3    H176622   3.296   0.602  13.190 -1.1792  0.1904  1.0813
18377TIP3    H276623   3.355   0.463  13.178  0.3151  0.7386  1.8229
18378TIP3   OH276624   0.173   2.596  12.128 -0.2364  0.0517  0.0677
18378TIP3    H176625   0.250   2.610  12.183  0.2524 -1.6896 -0.1200
18378TIP3    H276626   0.100   2.629  12.180  0.5229  0.9097  0.6220
18379TIP3   OH276627   1.437   3.647  15.147  0.2562  0.3565 -0.3013
18379TIP3    H176628   1.377   3.574  15.127 -0.2643  0.8701 -0.6493
18379TIP3    H276629   1.519   3.604  15.171 -0.9990 -0.4877  3.0392
18380TIP3   OH276630   1.412   4.794  15.589 -0.5989  0.6361  0.3073
18380TIP3    H176631   1.426   4.779  15.495 -0.1395  0.4085  0.4108
18380TIP3    H276632   1.473   4.865  15.610  2.0157 -1.6943  1.2003
18381TIP3   OH276633   6.285   0.495  12.269 -0.2378 -0.1887 -0.6919
18381TIP3    H176634   6.252   0.583  12.250 -0.9335  0.2610  2.0788
18381TIP3    H276635   6.329   0.505  12.354  0.8072 -2.2819 -0.9306
18382TIP3   OH276636   5.994   1.991   2.956  1.0552 -0.2136 -0.5185
18382TIP3    H176637   5.938   2.063   2.927  0.3269 -0.7263 -0.3917
18382TIP3    H276638   5.951   1.912   2.923  0.3549 -0.8023  1.6835
18383TIP3   OH276639   0.579   2.407  14.993  0.1276 -0.2407 -0.6439
18383TIP3    H176640   0.575   2.399  14.897 -1.0376  2.2801 -0.9065
18383TIP3    H276641   0.665   2.447  15.009  0.1738 -0.3281 -0.6712
18384TIP3   OH276642   2.838   5.639   6.184 -0.4434  0.2287 -0.1823
18384TIP3    H176643   2.743   5.636   6.187 -0.3977 -0.1625  2.1278
18384TIP3    H276644   2.859   5.732   6.179 -0.9142  0.2863 -1.6851
18385TIP3   OH276645   0.015   4.557   0.178  0.0321  0.3472  0.2105
18385TIP3    H176646  -0.000   4.622   0.247 -1.7593 -0.6451  0.8205
18385TIP3    H276647   0.082   4.499   0.214  0.3975  0.8562  0.3627
18386TIP3   OH276648   5.461   3.498  16.363  0.5702 -0.0286 -0.5769
18386TIP3    H176649   5.515   3.437  16.414 -1.0427 -0.6485  0.4863
18386TIP3    H276650   5.464   3.579  16.414  0.1459 -0.2053 -0.2612
18387TIP3   OH276651   4.337   0.586   3.621  0.1506 -0.0810  0.5700
18387TIP3    H176652   4.305   0.613   3.707 -0.2396 -2.4416  1.2393
18387TIP3    H276653   4.402   0.518   3.639  1.7781  0.9792 -0.9538
18388TIP3   OH276654   6.224   2.880   5.864  0.6180 -0.3222  0.3641
18388TIP3    H176655   6.252   2.869   5.954 -0.7282 -1.0557  0.7150
18388TIP3    H276656   6.156   2.814   5.851 -1.8335  2.0956 -0.0531
18389TIP3   OH276657   4.435   5.239  13.544  0.4531 -0.2767  0.1027
18389TIP3    H176658   4.468   5.323  13.575 -0.7861  0.1878  0.2049
18389TIP3    H276659   4.378   5.261  13.471  0.7332 -1.1035 -0.3790
18390TIP3   OH276660   2.148   2.607  13.383 -0.2086  0.2015 -0.0587
18390TIP3    H176661   2.099   2.683  13.416  1.4362  1.4603 -0.3684
18390TIP3    H276662   2.153   2.621  13.288 -0.3752 -0.6057 -0.1934
18391TIP3   OH276663   3.039   2.731  16.037 -0.0306  0.7078  0.1413
18391TIP3    H176664   2.968   2.686  15.991 -0.2022 -0.9851  1.9080
18391TIP3    H276665   3.028   2.823  16.015 -1.5154  0.2366 -1.2528
18392TIP3   OH276666   2.656   4.517  17.028 -0.2507 -0.4718  0.0892
18392TIP3    H176667   2.690   4.437  17.067 -0.4020 -1.5491 -1.8406
18392TIP3    H276668   2.566   4.523  17.059 -0.0655 -0.7269  0.6834
18393TIP3   OH276669   1.386   5.540   6.263  0.1039 -0.1360 -0.1089
18393TIP3    H176670   1.438   5.605   6.216  1.2211 -0.5345  0.5348
18393TIP3    H276671   1.315   5.590   6.303  0.1450  0.4623 -0.7661
18394TIP3   OH276672   2.765   3.292  11.715 -0.5120 -0.0519 -0.7238
18394TIP3    H176673   2.800   3.331  11.795 -0.5031  0.0589 -0.7818
18394TIP3    H276674   2.807   3.206  11.709 -2.2621 -1.0846  0.6656
18395TIP3   OH276675   0.351   4.485  16.044 -0.6821 -0.0927  0.2893
18395TIP3    H176676   0.276   4.543  16.060 -0.7620 -0.3987  1.0933
18395TIP3    H276677   0.423   4.524  16.094 -0.8534 -0.9082  1.2080
18396TIP3   OH276678   3.007   3.514  12.979  0.5490  0.3134  0.0975
18396TIP3    H176679   3.019   3.530  12.885 -0.7476  1.3289  0.0711
18396TIP3    H276680   2.992   3.420  12.985  0.5432  0.2496 -0.7364
18397TIP3   OH276681   4.062   1.832  15.712  0.2994  0.0774  0.1271
18397TIP3    H176682   4.063   1.796  15.623  0.4298 -1.0142  0.5529
18397TIP3    H276683   3.970   1.823  15.740  0.5603 -1.0827  0.6723
18398TIP3   OH276684   2.157   5.689  15.919 -0.1218 -0.3583  0.2723
18398TIP3    H176685   2.152   5.594  15.930  1.5595 -0.4369  0.6690
18398TIP3    H276686   2.118   5.705  15.834  0.7651 -1.5911 -0.4066
18399TIP3   OH276687   2.625   6.654   4.706 -0.3561  0.1994 -0.4738
18399TIP3    H176688   2.656   6.726   4.761 -0.2413  0.0444 -0.3381
18399TIP3    H276689   2.530   6.660   4.710 -0.4246 -1.4041  1.8432
18400TIP3   OH276690   6.216   2.630  16.436  0.6545 -0.3193  0.0563
18400TIP3    H176691   6.221   2.559  16.373 -0.3299  0.8718 -1.4497
18400TIP3    H276692   6.300   2.629  16.481  0.2331 -3.1654  0.9725
18401TIP3   OH276693   2.349   2.658  11.939  0.0867  0.1378 -0.3987
18401TIP3    H176694   2.356   2.568  11.909 -0.6269 -0.9025  2.2901
18401TIP3    H276695   2.376   2.655  12.030  1.2228  2.9069 -0.5481
18402TIP3   OH276696   5.239   3.968  13.714  0.1824  0.1604  0.0373
18402TIP3    H176697   5.253   4.014  13.632 -0.6536 -2.2848 -1.6028
18402TIP3    H276698   5.326   3.964  13.755  0.3249  2.7639  0.1108
18403TIP3   OH276699   5.821   0.867   0.554 -0.5621  0.4080  0.2496
18403TIP3    H176700   5.895   0.894   0.610 -0.6754 -0.0574  0.6288
18403TIP3    H276701   5.829   0.772   0.548 -1.8938  0.1828  1.4082
18404TIP3   OH276702   4.601   2.121  14.490 -0.6652  0.2683 -0.0404
18404TIP3    H176703   4.687   2.099  14.526 -0.8673 -0.9917 -0.2963
18404TIP3    H276704   4.605   2.094  14.398 -1.4671 -0.1959  0.0510
18405TIP3   OH276705   3.671   3.032   1.006  0.1207  0.3471 -0.3226
18405TIP3    H176706   3.708   2.970   0.942 -1.3785 -0.8696 -0.0564
18405TIP3    H276707   3.617   2.978   1.064 -1.7808  1.9651 -0.4698
18406TIP3   OH276708   2.017   5.883   0.297  0.3269  0.7695 -0.0732
18406TIP3    H176709   2.112   5.898   0.304  0.4541  0.0425 -0.0996
18406TIP3    H276710   1.987   5.945   0.231  0.7462  1.1734  0.1132
18407TIP3   OH276711   1.504   5.621  12.978  0.3636  0.4128  0.1590
18407TIP3    H176712   1.425   5.661  13.014 -0.1319  0.8051 -1.2777
18407TIP3    H276713   1.502   5.645  12.885  3.1035  1.9601  0.4074
18408TIP3   OH276714   4.175   6.042   1.120 -0.3477  0.6669 -0.3594
18408TIP3    H176715   4.198   6.103   1.191 -0.3187  1.5976 -1.1394
18408TIP3    H276716   4.211   6.083   1.041 -0.1403 -0.4851 -0.8841
18409TIP3   OH276717   6.020   3.570   5.788  0.0833 -0.3857  0.8439
18409TIP3    H176718   6.056   3.493   5.834  0.6981 -0.3108  0.5068
18409TIP3    H276719   6.038   3.553   5.696  0.1531  0.1284  0.7606
18410TIP3   OH276720   3.987   2.186   2.929 -0.2122  0.1553 -0.4030
18410TIP3    H176721   4.037   2.267   2.938 -0.4478  0.5677 -2.5232
18410TIP3    H276722   4.054   2.118   2.920  0.0657 -0.2940  3.3690
18411TIP3   OH276723   1.609   4.368  11.573 -0.4167  0.3115 -1.0120
18411TIP3    H176724   1.700   4.338  11.573 -0.7983 -0.9026 -0.2936
18411TIP3    H276725   1.561   4.300  11.525 -1.1024  0.4264 -0.5069
18412TIP3   OH276726   2.823   0.786  13.497 -0.3756  0.1168 -0.3167
18412TIP3    H176727   2.793   0.874  13.518  0.5091  0.4242 -0.3447
18412TIP3    H276728   2.822   0.782  13.402  1.5002  0.7822 -0.3951
18413TIP3   OH276729   4.327   2.434  15.805 -0.1824 -0.2030 -0.1839
18413TIP3    H176730   4.294   2.496  15.739  1.2567 -1.2735 -2.0112
18413TIP3    H276731   4.410   2.402  15.769  1.2592 -0.0303  2.7101
18414TIP3   OH276732   6.020   3.694   4.096 -0.4367  0.1143  0.7932
18414TIP3    H176733   5.955   3.764   4.094  0.3273  0.8525  1.3673
18414TIP3    H276734   6.034   3.677   4.189 -2.3940 -2.5265  0.7415
18415TIP3   OH276735   0.114   4.103  16.783 -0.1284  0.1063 -0.1443
18415TIP3    H176736   0.024   4.073  16.794  0.1645 -1.1186 -0.9070
18415TIP3    H276737   0.156   4.084  16.867 -0.4365  0.1640  0.0254
18416TIP3   OH276738   0.130   3.958  13.717 -0.9541  0.7187  0.1681
18416TIP3    H176739   0.071   3.936  13.789 -1.2243  2.3475  0.4767
18416TIP3    H276740   0.217   3.934  13.749 -1.2971 -0.6885  0.1266
18417TIP3   OH276741   5.115   1.741   2.162  0.5025  0.1390 -0.0357
18417TIP3    H176742   5.106   1.837   2.161 -0.0061  0.0919 -0.3027
18417TIP3    H276743   5.031   1.709   2.129  0.5067 -0.4101  0.4720
18418TIP3   OH276744   0.947   3.765   2.685  0.6860  0.4319 -0.4695
18418TIP3    H176745   0.866   3.756   2.636  0.4928  0.6263 -0.1887
18418TIP3    H276746   1.014   3.783   2.618  0.5199  0.1625 -0.7089
18419TIP3   OH276747   0.899   5.353  14.415 -0.4127  0.2077  0.2233
18419TIP3    H176748   0.900   5.303  14.333  0.1931 -2.7015  1.8816
18419TIP3    H276749   0.991   5.371  14.433 -0.4995  0.2751  0.5982
18420TIP3   OH276750   1.167   0.764   5.885  0.1803 -0.3295 -0.3816
18420TIP3    H176751   1.224   0.767   5.808  0.2441 -0.0404 -0.3241
18420TIP3    H276752   1.222   0.729   5.955 -0.6225 -3.4102 -1.1048
18421TIP3   OH276753   2.943   6.042  13.492  0.4076 -0.2481 -0.1736
18421TIP3    H176754   2.981   6.034  13.579  0.6273  0.2354 -0.2214
18421TIP3    H276755   2.992   5.979  13.439  1.0757  0.2842 -0.2056
18422TIP3   OH276756   0.960   3.192  11.614  0.1988 -0.2009  0.4017
18422TIP3    H176757   0.944   3.135  11.539 -0.0150  0.4340 -0.0431
18422TIP3    H276758   0.901   3.160  11.682 -0.7384  0.1890 -0.2109
18423TIP3   OH276759   6.252   2.361   1.589 -0.7826 -0.3401  0.5596
18423TIP3    H176760   6.344   2.334   1.581 -1.4799 -2.9053  0.2239
18423TIP3    H276761   6.234   2.357   1.683 -0.5620  0.2156  0.6311
18424TIP3   OH276762   0.674   0.203  13.530  0.3891  0.6111 -0.3556
18424TIP3    H176763   0.636   0.199  13.442 -2.3159  0.3179  0.7355
18424TIP3    H276764   0.638   0.127  13.575  0.7597  1.3998  1.3542
18425TIP3   OH276765   6.179   4.066  12.763 -0.0721  0.1666  0.3082
18425TIP3    H176766   6.199   4.066  12.669  1.1693  1.7561  0.5366
18425TIP3    H276767   6.209   3.980  12.794  0.5401  0.0591 -0.5353
18426TIP3   OH276768   1.787   1.327   3.387  0.0451  0.6664 -0.9628
18426TIP3    H176769   1.811   1.278   3.466  1.3335  0.9822 -1.1258
18426TIP3    H276770   1.697   1.300   3.368  0.4118 -0.9702 -0.5603
18427TIP3   OH276771   6.116   0.167   1.841  0.3135  0.6931 -0.4557
18427TIP3    H176772   6.181   0.224   1.883 -0.5182  0.7752  0.7793
18427TIP3    H276773   6.034   0.186   1.887 -0.1232 -1.0047 -0.4630
18428TIP3   OH276774   0.599   0.496   6.183 -0.3130 -0.0660 -0.0011
18428TIP3    H176775   0.673   0.458   6.231  0.3587 -1.6965 -2.1774
18428TIP3    H276776   0.623   0.588   6.171  0.1097  0.0569  1.5535
18429TIP3   OH276777   3.284   3.297  10.831 -0.1446 -0.3774  0.7109
18429TIP3    H176778   3.205   3.269  10.785  1.4166 -1.9468 -1.1798
18429TIP3    H276779   3.326   3.216  10.859 -0.1160  0.4779  3.4811
18430TIP3   OH276780   5.104   4.717  11.858 -0.1287  0.6441 -0.2833
18430TIP3    H176781   5.116   4.634  11.904 -0.5371 -0.7420 -2.5300
18430TIP3    H276782   5.055   4.772  11.920 -0.9817 -1.2354  0.7838
18431TIP3   OH276783   1.515   0.790   1.593  0.1653  0.2274  0.1756
18431TIP3    H176784   1.530   0.789   1.688 -0.5636  1.0292  0.3110
18431TIP3    H276785   1.561   0.712   1.561 -0.5760 -0.7425  1.3434
18432TIP3   OH276786   6.482   3.259   4.744  0.3635 -0.3072  0.0870
18432TIP3    H176787   6.408   3.227   4.692  1.9094 -2.5816 -0.8232
18432TIP3    H276788   6.457   3.239   4.835 -0.2748 -0.6951 -0.1663
18433TIP3   OH276789   6.709   0.781  12.424 -0.1815  0.4231  0.2562
18433TIP3    H176790   6.749   0.714  12.479  0.4017 -0.1792 -0.8687
18433TIP3    H276791   6.752   0.862  12.449  0.3686  0.0881  0.3963
18434TIP3   OH276792   2.628   3.633   6.584 -0.2136 -0.0411  0.1757
18434TIP3    H176793   2.631   3.713   6.532 -2.6827  1.3696  1.9854
18434TIP3    H276794   2.602   3.662   6.672 -5.4567 -2.9720  0.0177
18435TIP3   OH276795   2.930   4.292  11.374 -0.6815 -0.3419  0.4080
18435TIP3    H176796   2.991   4.327  11.309  0.1078 -1.5025  0.4940
18435TIP3    H276797   2.875   4.230  11.325 -1.0822 -0.1036  0.5501
18436TIP3   OH276798   3.291   4.928  14.178  0.6389 -0.6991 -0.0337
18436TIP3    H176799   3.288   5.023  14.181  1.4187 -0.6760  0.1946
18436TIP3    H276800   3.373   4.907  14.133  1.8973 -1.2423  2.3223
18437TIP3   OH276801   1.867   1.439  16.314  0.1900  0.6245 -0.0745
18437TIP3    H176802   1.795   1.496  16.340 -0.0308  0.4460 -0.2850
18437TIP3    H276803   1.825   1.370  16.263  0.3301 -0.2148  0.9065
18438TIP3   OH276804   6.765   1.124  14.573  0.0611 -0.1717 -0.4024
18438TIP3    H176805   6.830   1.079  14.627  0.9438  0.9465 -0.4978
18438TIP3    H276806   6.714   1.176  14.635 -0.8115 -1.0837 -0.3208
18439TIP3   OH276807   4.702   6.392   1.624  0.3214  0.5388 -0.5158
18439TIP3    H176808   4.643   6.327   1.586  1.6293 -1.5664  0.8670
18439TIP3    H276809   4.787   6.375   1.582  0.5656  1.7491 -0.5516
18440TIP3   OH276810   5.211   0.303   6.031  0.5530 -0.5588 -0.6457
18440TIP3    H176811   5.265   0.363   6.082  0.5102 -0.3767 -0.8105
18440TIP3    H276812   5.217   0.220   6.077  1.3533 -0.6632 -0.9192
18441TIP3   OH276813   3.659   5.523   1.996  0.0058 -0.7766  0.1235
18441TIP3    H176814   3.679   5.612   1.966 -0.5976 -0.5922  0.2576
18441TIP3    H276815   3.742   5.492   2.033  0.6087 -0.8028 -1.1906
18442TIP3   OH276816   3.839   1.172  15.735  0.0542  0.0688 -0.2929
18442TIP3    H176817   3.935   1.178  15.741  0.1149  0.9289 -1.6832
18442TIP3    H276818   3.808   1.202  15.820  1.0211 -0.4324  0.2549
18443TIP3   OH276819   5.129   5.497   3.153 -0.1239 -0.0175  0.0761
18443TIP3    H176820   5.132   5.506   3.248  0.0639 -1.7241  0.2578
18443TIP3    H276821   5.042   5.461   3.135  0.2237 -0.6658 -0.3073
18444TIP3   OH276822   5.377   1.271  15.068  0.8361  0.3137 -0.1610
18444TIP3    H176823   5.378   1.276  15.164  2.3794  0.4804 -0.1641
18444TIP3    H276824   5.468   1.282  15.043  0.6088 -0.8068 -1.6097
18445TIP3   OH276825   3.537   6.145  16.501  0.1093 -0.0431 -0.1517
18445TIP3    H176826   3.589   6.190  16.567  0.3751  0.9470 -1.0148
18445TIP3    H276827   3.601   6.105  16.442 -0.1246 -1.1954  0.3444
18446TIP3   OH276828   4.902   0.058   4.808 -0.1693 -0.1448 -0.0539
18446TIP3    H176829   4.908   0.153   4.796 -1.1814  0.0461  0.8231
18446TIP3    H276830   4.874   0.025   4.723  2.0823  0.0982 -0.9559
18447TIP3   OH276831   2.472   1.687   5.288  0.2074  0.3536 -0.4019
18447TIP3    H176832   2.561   1.682   5.254 -0.1106  0.4528 -1.2530
18447TIP3    H276833   2.459   1.779   5.310  1.2506 -0.0382  2.3345
18448TIP3   OH276834   5.280   2.112   4.827 -0.1527 -0.3229  0.4513
18448TIP3    H176835   5.258   2.141   4.739 -1.8539 -1.1539  0.5537
18448TIP3    H276836   5.372   2.137   4.839  0.7308 -1.9027 -2.2715
18449TIP3   OH276837   2.836   0.813   4.789 -0.0067 -0.1868 -0.4252
18449TIP3    H176838   2.841   0.749   4.860  0.8644  0.4018  0.0733
18449TIP3    H276839   2.805   0.893   4.830 -0.7309 -0.1780 -0.9698
18450TIP3   OH276840   0.961   4.636   2.579 -0.6508 -0.3901  0.1806
18450TIP3    H176841   1.043   4.607   2.619 -0.7847 -0.0940  0.6800
18450TIP3    H276842   0.987   4.675   2.495  0.0265  1.9857  1.4157
18451TIP3   OH276843   3.937   2.122   0.903 -0.2381 -0.0419 -0.2955
18451TIP3    H176844   3.893   2.074   0.833  0.4313  0.3697 -1.0159
18451TIP3    H276845   3.867   2.171   0.947 -0.4262  1.2995 -1.9777
18452TIP3   OH276846   1.653   5.801  16.506 -0.1966 -0.0900 -0.7386
18452TIP3    H176847   1.625   5.737  16.441 -1.7462 -1.1619  0.8976
18452TIP3    H276848   1.735   5.766  16.540  0.2383  0.0989 -1.5537
18453TIP3   OH276849   3.707   2.978  15.488  0.3937  0.5778  0.5883
18453TIP3    H176850   3.798   2.949  15.483  0.6377  0.6791  3.0181
18453TIP3    H276851   3.712   3.062  15.534 -1.0050 -0.2432  2.3542
18454TIP3   OH276852   2.432   3.670  16.341  0.1495 -0.2700  0.1330
18454TIP3    H176853   2.482   3.589  16.351  1.7427  0.6343 -0.1888
18454TIP3    H276854   2.400   3.668  16.251  2.1494  0.4568 -0.6716
18455TIP3   OH276855   1.151   3.764  12.130 -0.1023  0.6043  0.1278
18455TIP3    H176856   1.118   3.841  12.083 -1.5961 -0.8400 -1.3134
18455TIP3    H276857   1.076   3.732  12.180  1.3382  1.8614  3.3636
18456TIP3   OH276858   3.843   3.635   4.648 -0.3177  0.2166  0.8276
18456TIP3    H176859   3.851   3.569   4.579  0.4180  1.4108 -0.2839
18456TIP3    H276860   3.902   3.605   4.717  1.3232  0.5229 -0.3714
18457TIP3   OH276861   2.537   1.749   0.228  0.2037 -0.1070 -0.1187
18457TIP3    H176862   2.517   1.713   0.314 -0.6378 -1.4318 -0.8355
18457TIP3    H276863   2.451   1.758   0.186  0.6968 -0.6585 -1.2701
18458TIP3   OH276864   2.279   5.929   3.152  0.4520  0.9879 -1.1305
18458TIP3    H176865   2.219   5.872   3.201  2.5016 -0.1236  0.1972
18458TIP3    H276866   2.281   6.010   3.203  0.8854  0.6341 -0.5746
18459TIP3   OH276867   3.478   5.586  13.202 -0.3413 -0.5830  0.0357
18459TIP3    H176868   3.397   5.572  13.152 -0.7919 -0.8092  0.8137
18459TIP3    H276869   3.544   5.607  13.135 -1.5655  2.1154 -0.4435
18460TIP3   OH276870   6.205   5.184   2.505 -0.0064  0.3851  0.2262
18460TIP3    H176871   6.153   5.124   2.559  0.9709 -0.6421  0.0352
18460TIP3    H276872   6.189   5.156   2.415 -1.1336  1.7057 -0.0392
18461TIP3   OH276873   0.275   3.133   2.923 -0.4530  0.5920  0.1653
18461TIP3    H176874   0.336   3.089   2.982 -1.9670 -1.8006  0.1176
18461TIP3    H276875   0.287   3.090   2.839 -2.3606 -0.2019  0.2409
18462TIP3   OH276876   6.821   2.501   0.777 -0.5735  0.2878  0.0978
18462TIP3    H176877   6.874   2.572   0.741 -3.1410  2.5973  0.4503
18462TIP3    H276878   6.775   2.465   0.701  0.5152 -0.8583 -0.0398
18463TIP3   OH276879   3.036   3.684   2.801  0.2161  0.3469  0.6246
18463TIP3    H176880   2.941   3.677   2.797  0.2216  0.6596 -1.7400
18463TIP3    H276881   3.052   3.773   2.833 -0.2995  0.3695  0.8241
18464TIP3   OH276882   4.339   3.349  14.930  0.4548  0.4787  0.4900
18464TIP3    H176883   4.290   3.402  14.993  1.1465 -0.4973  1.8946
18464TIP3    H276884   4.424   3.393  14.922  0.7428  0.0274  1.0467
18465TIP3   OH276885   1.688   0.881  11.207  0.2172  0.3864  0.1036
18465TIP3    H176886   1.701   0.854  11.116  2.3392  1.8114 -0.0905
18465TIP3    H276887   1.741   0.819  11.258  1.3499  1.2795  0.0637
18466TIP3   OH276888   3.934   0.781   3.230  0.2194 -0.0909 -0.3681
18466TIP3    H176889   3.874   0.716   3.266 -2.2370  1.6141 -1.1125
18466TIP3    H276890   3.989   0.732   3.169  0.1897 -1.8826  0.9750
18467TIP3   OH276891   1.896   0.754   4.422 -0.2172  0.5889  0.1327
18467TIP3    H176892   1.915   0.806   4.343  2.4783 -0.9989 -0.3982
18467TIP3    H276893   1.808   0.721   4.408 -0.2492  1.3243 -1.6710
18468TIP3   OH276894   3.340   6.416   3.192  0.2174  0.5853 -0.0606
18468TIP3    H176895   3.415   6.435   3.135  1.6974  1.8182  2.1927
18468TIP3    H276896   3.374   6.425   3.281 -2.3356 -0.0122  1.0568
18469TIP3   OH276897   2.186   6.772  13.409  0.3200  0.5106 -0.1540
18469TIP3    H176898   2.138   6.765  13.326  2.4287 -0.4598 -1.3667
18469TIP3    H276899   2.150   6.701  13.462 -1.0762  1.1544 -0.1822
18470TIP3   OH276900   6.473   5.688   0.888  0.1005  0.3207  0.2841
18470TIP3    H176901   6.394   5.649   0.925  0.4335  0.9295  1.7108
18470TIP3    H276902   6.528   5.612   0.865 -0.8220 -0.0995 -0.6195
18471TIP3   OH276903   0.414   3.916   4.997 -0.2482  0.5080 -0.1165
18471TIP3    H176904   0.459   3.950   4.919  0.3535 -0.6103 -0.2707
18471TIP3    H276905   0.374   3.834   4.968  1.0906 -0.6132  1.0511
18472TIP3   OH276906   2.805   0.719  11.676 -0.1571 -0.7358 -0.1752
18472TIP3    H176907   2.778   0.784  11.611  0.6363 -0.7646 -0.5554
18472TIP3    H276908   2.846   0.770  11.746 -1.3598 -0.6740  0.4977
18473TIP3   OH276909   0.820   0.902  15.938  0.4328  0.0832  0.6287
18473TIP3    H176910   0.726   0.918  15.929  0.5704  0.9440  0.5981
18473TIP3    H276911   0.846   0.955  16.013  1.1956  1.2590 -0.4186
18474TIP3   OH276912   1.617   1.577  16.332 -0.1662 -0.4209  0.2789
18474TIP3    H176913   1.544   1.569  16.270  0.6641  0.5620 -0.8853
18474TIP3    H276914   1.577   1.566  16.418 -1.4839 -1.1006 -0.3860
18475TIP3   OH276915   2.078   0.822   4.807  0.0750  0.2405  0.1747
18475TIP3    H176916   2.082   0.730   4.781  0.7710  0.0401  0.9482
18475TIP3    H276917   2.059   0.869   4.726 -1.9377 -0.7132  0.0456
18476TIP3   OH276918   4.949   4.188   1.543 -0.2034 -0.2723  0.0149
18476TIP3    H176919   4.869   4.237   1.530  0.3171  0.8811  0.9914
18476TIP3    H276920   4.921   4.106   1.583 -0.7287  1.1807  2.8388
18477TIP3   OH276921   4.484   3.320  16.563  0.0085  0.5493 -0.1461
18477TIP3    H176922   4.491   3.355  16.474  0.3115 -0.8497 -0.6950
18477TIP3    H276923   4.547   3.371  16.614  0.4482  0.8031 -0.9212
18478TIP3   OH276924   3.656   3.443   2.595  0.0934  0.3947 -0.2886
18478TIP3    H176925   3.631   3.526   2.554 -2.1601  0.0071  0.1901
18478TIP3    H276926   3.615   3.446   2.682  2.7770  0.1686  1.0734
18479TIP3   OH276927   2.075   4.523  13.889  0.0936 -0.0205 -0.0427
18479TIP3    H176928   2.135   4.580  13.841  1.2891 -0.4598  0.8856
18479TIP3    H276929   2.029   4.581  13.949 -0.3479  0.3042 -0.6886
18480TIP3   OH276930   6.443   2.920   5.646  0.3822 -0.0764 -0.1438
18480TIP3    H176931   6.363   2.947   5.691  0.0252  1.6065 -1.6707
18480TIP3    H276932   6.503   2.897   5.717 -1.1431 -0.5337  1.0691
18481TIP3   OH276933   4.062   1.532  10.878  0.1890  0.0767 -0.2209
18481TIP3    H176934   4.040   1.613  10.832 -1.3081  0.5927  1.2757
18481TIP3    H276935   3.994   1.470  10.852 -1.7806  0.8954  2.4413
18482TIP3   OH276936   0.642   2.004   0.062  0.2909 -1.0775  0.9068
18482TIP3    H176937   0.730   2.040   0.045 -0.8132  0.5511 -2.0546
18482TIP3    H276938   0.639   1.924   0.009  0.2060 -1.5180  1.5707
18483TIP3   OH276939   1.845   5.388  13.457  0.3702 -0.0944  0.6952
18483TIP3    H176940   1.823   5.345  13.374  1.0936  0.0389  0.4258
18483TIP3    H276941   1.773   5.365  13.515 -1.1550  1.3867 -0.4992
18484TIP3   OH276942   2.751   4.063   5.809  0.3856  0.5223 -0.2170
18484TIP3    H176943   2.771   3.970   5.808  0.8453  0.6192 -0.6388
18484TIP3    H276944   2.809   4.100   5.875 -0.8832  0.2924  1.0734
18485TIP3   OH276945   2.236   3.332   4.877 -0.4798  0.3244  0.0865
18485TIP3    H176946   2.288   3.413   4.876  0.6960 -0.3774 -1.8028
18485TIP3    H276947   2.263   3.287   4.957  2.5554 -0.3849 -1.1945
18486TIP3   OH276948   5.646   1.344  11.716  0.0141 -0.0081  0.1317
18486TIP3    H176949   5.718   1.351  11.779  0.5763 -2.8135 -0.0465
18486TIP3    H276950   5.672   1.398  11.642  1.3259  0.0308  0.6004
18487TIP3   OH276951   0.467   6.264  15.179  0.0797 -0.6763 -1.0287
18487TIP3    H176952   0.414   6.185  15.176 -0.7288 -0.1535 -0.6935
18487TIP3    H276953   0.547   6.237  15.223 -0.6472 -1.0529  0.0954
18488TIP3   OH276954   4.377   1.387  11.414  0.3722  0.5994  0.2712
18488TIP3    H176955   4.324   1.454  11.371 -1.2082  0.3402  1.6755
18488TIP3    H276956   4.401   1.326  11.345 -0.8362  0.9691 -0.5052
18489TIP3   OH276957   3.133   4.112   1.561 -0.2908 -0.2681  0.3265
18489TIP3    H176958   3.176   4.027   1.547 -0.2344 -0.1932  0.0453
18489TIP3    H276959   3.145   4.129   1.654 -3.1988 -2.1465  1.1563
18490TIP3   OH276960   3.600   6.462  16.882 -0.2043 -0.4133 -0.2086
18490TIP3    H176961   3.677   6.476  16.937  0.2507 -1.9365 -0.4357
18490TIP3    H276962   3.609   6.374  16.848 -1.2990 -0.0794 -1.4678
18491TIP3   OH276963   3.244   2.884   6.484  0.0117  0.1394  0.4818
18491TIP3    H176964   3.251   2.976   6.508  1.2674  0.2923 -0.4034
18491TIP3    H276965   3.332   2.858   6.459 -0.6844 -0.7812 -1.1479
18492TIP3   OH276966   6.756   2.520   5.209  0.3697  0.1649 -0.3957
18492TIP3    H176967   6.775   2.512   5.302  1.2186 -1.5686 -0.6633
18492TIP3    H276968   6.837   2.552   5.170  0.5244 -0.5730 -0.7013
18493TIP3   OH276969   4.799   6.252  12.201 -0.0695 -0.0269 -0.4165
18493TIP3    H176970   4.738   6.315  12.163 -1.5556 -2.4213 -2.2779
18493TIP3    H276971   4.820   6.288  12.287 -0.5056  3.1536 -1.5095
18494TIP3   OH276972   3.892   2.907   0.201 -0.0859  0.5892 -0.0411
18494TIP3    H176973   3.938   2.984   0.166  0.9221 -0.6855 -1.7058
18494TIP3    H276974   3.881   2.850   0.125 -4.3115  0.6702  0.2723
18495TIP3   OH276975   3.971   6.242   6.277 -0.5621  0.3391 -0.6402
18495TIP3    H176976   3.903   6.229   6.210 -1.0724  2.8494 -0.6899
18495TIP3    H276977   3.923   6.270   6.354  0.1959 -0.8528  0.2992
18496TIP3   OH276978   4.064   6.104  12.411  0.4583 -0.1696 -0.7588
18496TIP3    H176979   4.101   6.186  12.377 -1.7954  1.1354 -0.2531
18496TIP3    H276980   3.997   6.079  12.347 -0.9235  0.0378  0.5463
18497TIP3   OH276981   6.578   0.645   1.026 -0.0797  0.0867  0.8294
18497TIP3    H176982   6.512   0.619   1.091 -1.8885  0.6854 -0.6872
18497TIP3    H276983   6.601   0.735   1.050 -2.0068  0.9227 -0.2819
18498TIP3   OH276984   2.045   1.654   4.037  0.3630 -0.1187  0.0446
18498TIP3    H176985   1.955   1.653   4.069  0.7108  0.8263  1.1081
18498TIP3    H276986   2.098   1.671   4.115  1.3128  1.3730 -0.8785
18499TIP3   OH276987   4.511   0.167   6.089 -0.1356 -0.0971 -0.0078
18499TIP3    H176988   4.424   0.189   6.056  0.3698  1.2356 -0.4986
18499TIP3    H276989   4.566   0.242   6.067  0.8581 -0.3448  1.4524
18500TIP3   OH276990   0.287   5.727  15.583  0.3564 -0.1798 -0.1447
18500TIP3    H176991   0.322   5.645  15.548  0.0310  0.0178 -0.9565
18500TIP3    H276992   0.263   5.778  15.506 -0.3623  0.2840  0.3680
18501TIP3   OH276993   0.257   0.341   0.009  0.0241  0.4126 -0.9458
18501TIP3    H176994   0.259   0.291  -0.073  1.6695 -1.1068 -0.0408
18501TIP3    H276995   0.341   0.386   0.013 -0.2636  0.9199 -0.3323
18502TIP3   OH276996   0.009   4.460   5.568  0.4014  0.1323 -0.0103
18502TIP3    H176997  -0.073   4.493   5.604 -0.1508 -2.2126  1.1069
18502TIP3    H276998   0.076   4.493   5.627 -0.2536 -1.5705  1.8272
18503TIP3   OH276999   3.497   1.535   5.604  0.5276 -0.2636 -0.5408
18503TIP3    H177000   3.436   1.483   5.657  2.2566 -2.1456 -0.2668
18503TIP3    H277001   3.479   1.507   5.514  0.6986 -0.5286 -0.4955
18504TIP3   OH277002   2.580   2.523   6.387 -0.1388  0.6690  0.1864
18504TIP3    H177003   2.674   2.543   6.383  0.0499 -0.2797 -0.5720
18504TIP3    H277004   2.576   2.427   6.382 -1.0375  0.4965  2.9734
18505TIP3   OH277005   2.058   4.050  16.670  0.6572 -0.1379  0.1594
18505TIP3    H177006   2.125   4.118  16.660  0.1784  0.3496  0.2453
18505TIP3    H277007   2.081   4.007  16.752  3.4399 -2.8682 -1.7849
18506TIP3   OH277008   2.569   2.931   3.058  0.0635 -0.3313  0.1267
18506TIP3    H177009   2.638   2.979   3.011 -0.8819 -0.7473 -1.7748
18506TIP3    H277010   2.488   2.954   3.012 -0.5143 -3.3311 -0.5704
18507TIP3   OH277011   4.643   0.418   1.643  0.3835  0.3053 -0.3432
18507TIP3    H177012   4.576   0.471   1.599  2.0029  3.4919  0.6997
18507TIP3    H277013   4.593   0.361   1.701 -1.5029  1.3049 -0.8607
18508TIP3   OH277014   6.210   0.012   5.286  0.2665  0.2335 -0.1210
18508TIP3    H177015   6.272   0.061   5.232 -0.9173  1.2512 -0.6228
18508TIP3    H277016   6.201   0.063   5.366  0.1470  0.0524 -0.0170
18509TIP3   OH277017   4.402   5.450   3.518  0.7102 -0.1592  0.4386
18509TIP3    H177018   4.424   5.389   3.448  1.8997  3.0462 -2.2578
18509TIP3    H277019   4.486   5.480   3.551  0.3811  2.4455 -0.7773
18510TIP3   OH277020   2.127   6.284   1.390 -0.3790  0.6591 -0.4222
18510TIP3    H177021   2.052   6.328   1.430  0.7158 -0.7148  3.6205
18510TIP3    H277022   2.102   6.192   1.386  0.6429  0.3546 -0.0861
18511TIP3   OH277023   3.082   2.510  15.234 -0.1600 -0.1421 -0.2074
18511TIP3    H177024   3.075   2.419  15.264  0.3138  0.2602  1.2027
18511TIP3    H277025   3.023   2.558  15.292  1.6423  0.8343  0.8985
18512TIP3   OH277026   6.782   5.781   2.358  0.1218 -0.4574  0.3896
18512TIP3    H177027   6.857   5.762   2.414 -0.7932 -0.9606  1.4922
18512TIP3    H277028   6.713   5.721   2.389 -0.6984 -0.1002 -0.6691
18513TIP3   OH277029   6.565   5.405  17.118 -0.6089 -0.2525  0.4326
18513TIP3    H177030   6.558   5.487  17.168  0.9572 -0.3749  0.9161
18513TIP3    H277031   6.659   5.391  17.109 -0.7068 -3.3571  2.6682
18514TIP3   OH277032   4.185   3.895   1.352  0.3330  0.8211 -0.1441
18514TIP3    H177033   4.170   3.887   1.446  0.0846 -0.7205 -0.2936
18514TIP3    H277034   4.222   3.810   1.326  0.4707  1.2487 -1.4266
18515TIP3   OH277035   6.653   2.879  11.838 -0.3152  0.0501 -0.3863
18515TIP3    H177036   6.726   2.906  11.894 -0.4354 -0.7519  0.1658
18515TIP3    H277037   6.616   2.962  11.807  0.8882  0.4676 -0.7658
18516TIP3   OH277038   4.354   4.330  14.656  0.2530 -0.0937  0.0239
18516TIP3    H177039   4.332   4.238  14.644 -0.7451  0.0780  0.4143
18516TIP3    H277040   4.277   4.377  14.626  0.7371  0.6166 -0.1288
18517TIP3   OH277041   6.610   1.579   2.820  0.0527 -0.3539 -0.2358
18517TIP3    H177042   6.588   1.645   2.885 -0.1860 -1.5080  0.9029
18517TIP3    H277043   6.528   1.561   2.775 -0.0563 -0.4374 -0.0058
18518TIP3   OH277044   6.635   0.054   0.122  0.6291  0.1912  0.0806
18518TIP3    H177045   6.579  -0.015   0.157 -1.0292  1.4829  0.0784
18518TIP3    H277046   6.723   0.015   0.121 -0.1365 -1.6670  0.6975
18519TIP3   OH277047   0.604   1.266   4.655  0.3704  0.9584  0.4706
18519TIP3    H177048   0.652   1.218   4.721  0.3980  1.8156  1.0890
18519TIP3    H277049   0.608   1.357   4.684 -1.1390  1.1198  0.2403
18520TIP3   OH277050   1.619   2.949  14.704  0.4082  0.0128  0.6593
18520TIP3    H177051   1.557   2.902  14.648 -0.5912  0.5446  1.2763
18520TIP3    H277052   1.566   3.018  14.744  1.9611  2.1045 -0.7002
18521TIP3   OH277053   3.925   1.854   3.392 -0.1963 -0.8308 -0.3056
18521TIP3    H177054   3.993   1.898   3.341  2.7819 -0.5357  3.4342
18521TIP3    H277055   3.951   1.762   3.391  0.3275 -0.7214  1.1339
18522TIP3   OH277056   0.432   0.969   3.964  0.0483  0.0193  0.3858
18522TIP3    H177057   0.464   0.960   4.054 -0.4137  0.2845  0.5752
18522TIP3    H277058   0.444   1.061   3.943 -0.6625  0.1327  0.4823
18523TIP3   OH277059   3.503   1.524   4.143 -0.0022  0.0175 -0.4766
18523TIP3    H177060   3.467   1.443   4.178 -1.5170  1.1876  0.8372
18523TIP3    H277061   3.436   1.556   4.083  0.2811  0.6132 -0.4845
18524TIP3   OH277062   4.308   3.261  12.260 -0.2514  0.0195  0.6802
18524TIP3    H177063   4.375   3.196  12.239 -0.9019 -0.5664  0.3520
18524TIP3    H277064   4.226   3.211  12.260 -1.1278  1.2802 -2.2007
18525TIP3   OH277065   3.155   1.156  11.253 -0.2499 -0.2081  0.5686
18525TIP3    H177066   3.198   1.159  11.338  1.2458 -2.0484 -0.0634
18525TIP3    H277067   3.094   1.082  11.259  0.1044 -0.5604 -0.0569
18526TIP3   OH277068   1.298   2.618  12.205  0.0081 -0.1702  0.4345
18526TIP3    H177069   1.344   2.689  12.160  0.6073 -0.3728  0.7224
18526TIP3    H277070   1.234   2.663  12.260  0.3810  0.1565  0.6120
18527TIP3   OH277071   0.901   6.730  12.785  0.3364  0.8237 -0.4791
18527TIP3    H177072   0.970   6.781  12.827  0.4547 -0.8773  1.6128
18527TIP3    H277073   0.945   6.650  12.757 -0.4306  0.5056 -0.7859
18528TIP3   OH277074   5.004   3.281   3.283  0.3510  0.0942  0.6446
18528TIP3    H177075   5.043   3.194   3.289 -0.4568 -0.2411  1.2100
18528TIP3    H277076   4.934   3.271   3.218  0.6345  0.4792  0.2709
18529TIP3   OH277077   6.185   4.140   4.598  0.0056  0.2232  0.0272
18529TIP3    H177078   6.090   4.132   4.609 -0.2948 -0.5384 -2.5733
18529TIP3    H277079   6.219   4.054   4.623 -0.0492  0.2805  0.3032
18530TIP3   OH277080   2.012   2.828   1.281 -0.0893 -0.4694  0.3306
18530TIP3    H177081   1.933   2.882   1.275 -0.4246 -0.8620  1.0832
18530TIP3    H277082   1.984   2.741   1.253  0.2211 -0.4784  0.0359
18531TIP3   OH277083   4.600   0.511   5.323 -0.2336  0.2015  0.3757
18531TIP3    H177084   4.678   0.489   5.272 -1.7919 -0.3667 -1.9169
18531TIP3    H277085   4.541   0.436   5.311 -2.0363  1.5898  0.0878
18532TIP3   OH277086   2.110   3.363   4.280 -0.3712 -0.1668 -0.3295
18532TIP3    H177087   2.072   3.365   4.368  2.3023 -0.9862  0.9639
18532TIP3    H277088   2.168   3.439   4.278 -0.6341  0.0159 -1.5285
18533TIP3   OH277089   0.432   3.041   4.884 -0.4736  0.2090 -0.0744
18533TIP3    H177090   0.424   3.134   4.864  0.0227  0.3773  0.4712
18533TIP3    H277091   0.505   3.036   4.946 -2.3242 -0.2099  2.1883
18534TIP3   OH277092   3.085   5.566  15.819 -0.3156  0.2048 -0.5571
18534TIP3    H177093   3.139   5.557  15.740  0.0180  0.6595 -0.3823
18534TIP3    H277094   3.033   5.485  15.822 -2.3288  1.2766 -2.7513
18535TIP3   OH277095   3.230   4.650  11.510  0.7432 -0.5070 -0.4059
18535TIP3    H177096   3.294   4.642  11.439  1.3248 -1.5146  0.1957
18535TIP3    H277097   3.224   4.561  11.545 -1.4566 -0.5744 -0.8333
18536TIP3   OH277098   5.538   5.639  14.283  0.0834 -0.3439 -0.2203
18536TIP3    H177099   5.520   5.675  14.369  1.5280  0.3989 -0.1991
18536TIP3    H277100   5.566   5.714  14.231  0.9167 -1.0660 -0.8380
18537TIP3   OH277101   3.787   5.523   4.893  0.2599 -0.2006  0.0349
18537TIP3    H177102   3.882   5.531   4.894  0.2417  0.4656 -1.2832
18537TIP3    H277103   3.764   5.510   4.801 -0.8942 -0.9431  0.3912
18538TIP3   OH277104   1.718   1.812   3.247 -0.0871  0.6659  0.5015
18538TIP3    H177105   1.805   1.771   3.246  0.4144  1.6736  1.1614
18538TIP3    H277106   1.736   1.906   3.246 -1.1145  0.9082  2.0155
18539TIP3   OH277107   3.564   2.160  15.017  0.5708 -0.4820  0.2022
18539TIP3    H177108   3.523   2.222  14.957  0.0828 -1.1162 -0.1240
18539TIP3    H277109   3.576   2.210  15.098 -0.2993 -0.1153  0.1091
18540TIP3   OH277110   6.213   3.643  12.110  0.0399 -0.0251 -0.6114
18540TIP3    H177111   6.163   3.582  12.056 -0.8428  0.2790 -0.1500
18540TIP3    H277112   6.227   3.719  12.053 -0.8140  0.2590 -0.4451
18541TIP3   OH277113   1.251   1.383  11.379 -0.0950  0.0586 -0.6347
18541TIP3    H177114   1.187   1.451  11.356  1.7782  1.8056 -1.0035
18541TIP3    H277115   1.334   1.416  11.346  0.6615 -3.4385 -2.7119
18542TIP3   OH277116   2.362   6.449  11.848 -0.2093 -0.1571 -0.2442
18542TIP3    H177117   2.312   6.460  11.929  1.4005  1.0822  0.6526
18542TIP3    H277118   2.305   6.485  11.779 -1.0544  0.0396  0.5445
18543TIP3   OH277119   0.665   0.487  16.072 -0.4489  0.5214 -0.3756
18543TIP3    H177120   0.706   0.572  16.085  2.6998 -1.0043  0.8239
18543TIP3    H277121   0.676   0.469  15.979 -1.4759  1.5514 -0.7071
18544TIP3   OH277122   4.003   5.204  15.758 -0.1982 -0.7543  0.2332
18544TIP3    H177123   4.025   5.145  15.830 -0.3347  2.2184  2.9699
18544TIP3    H277124   3.913   5.182  15.735 -0.5971 -0.9858  1.8940
18545TIP3   OH277125   1.489   2.750   2.067  0.0910  0.7499  0.2021
18545TIP3    H177126   1.570   2.785   2.031  0.5689 -1.1544 -0.7276
18545TIP3    H277127   1.421   2.781   2.007  0.5058  0.1520 -0.6082
18546TIP3   OH277128   2.966   6.715  14.411  0.0719 -0.4740 -0.2352
18546TIP3    H177129   2.885   6.667  14.394 -0.3336 -0.3591  1.2247
18546TIP3    H277130   2.985   6.699  14.504  1.9049 -0.7580 -0.6133
18547TIP3   OH277131   3.864   6.642   1.221 -0.5356  0.4205 -0.4954
18547TIP3    H177132   3.907   6.579   1.162  0.6795  0.7399  0.0179
18547TIP3    H277133   3.824   6.706   1.163 -1.7792 -0.7920 -1.0302
18548TIP3   OH277134   6.646   4.566  10.643  0.0704  0.7554  0.0486
18548TIP3    H177135   6.666   4.631  10.711  0.3653  1.0284 -0.2958
18548TIP3    H277136   6.551   4.562  10.641  0.0161 -1.0022  2.1387
18549TIP3   OH277137   5.914   3.148   4.434  0.3135 -0.3485  0.0804
18549TIP3    H177138   5.897   3.171   4.525  3.0338  3.0882 -0.0696
18549TIP3    H277139   6.009   3.146   4.427  0.2996  1.7258 -3.0279
18550TIP3   OH277140   0.024   2.315  11.536  0.4331 -0.0904  0.1654
18550TIP3    H177141  -0.059   2.314  11.582  1.1816 -3.2084  1.7544
18550TIP3    H277142   0.005   2.279  11.450  0.0286 -0.2104  0.3056
18551TIP3   OH277143   5.019   0.235  15.467 -0.1212  0.1042  0.0342
18551TIP3    H177144   5.018   0.206  15.376  0.5045 -0.6058  0.2422
18551TIP3    H277145   4.931   0.269  15.482 -1.0942 -2.1869 -0.1014
18552TIP3   OH277146   4.774   1.181   0.299  0.3388  0.0256  0.0051
18552TIP3    H177147   4.806   1.091   0.305  0.8596  0.2439  0.6033
18552TIP3    H277148   4.688   1.173   0.257 -0.0497 -0.8547  0.9116
18553TIP3   OH277149   4.954   1.210   2.497  0.1072  0.0358  0.3353
18553TIP3    H177150   5.039   1.251   2.486 -0.4334  1.2204  0.3845
18553TIP3    H277151   4.940   1.163   2.415  0.3315  0.7679 -0.1392
18554TIP3   OH277152   6.546   6.096  14.226 -0.7851  0.1885  0.6407
18554TIP3    H177153   6.581   6.065  14.310 -0.2233 -0.7303  0.0703
18554TIP3    H277154   6.474   6.155  14.252 -0.9555 -0.4708  1.7645
18555TIP3   OH277155   3.335   4.047  16.567 -0.1092  0.0394  0.2497
18555TIP3    H177156   3.413   4.031  16.619 -0.0396 -1.8518 -0.3660
18555TIP3    H277157   3.352   4.002  16.484 -1.1775  1.0053 -0.5225
18556TIP3   OH277158   3.677   3.906   0.341 -0.3681  0.2870  0.1262
18556TIP3    H177159   3.717   3.822   0.320  0.3095  0.9160 -1.2334
18556TIP3    H277160   3.592   3.883   0.380 -0.2178 -1.0264 -0.2678
18557TIP3   OH277161   6.055   0.400  12.115  0.3207 -0.1871 -0.2595
18557TIP3    H177162   6.151   0.399  12.115  0.3341  0.7429 -0.0504
18557TIP3    H277163   6.031   0.385  12.024  0.6737  0.1391 -0.4081
18558TIP3   OH277164   5.827   4.050  11.576 -0.2951  0.4493  0.2211
18558TIP3    H177165   5.887   4.015  11.642  0.0336 -0.3676 -0.4901
18558TIP3    H277166   5.882   4.104  11.520 -0.1058 -0.7044 -0.7295
18559TIP3   OH277167   6.445   4.689   5.333 -0.1628  0.2563  0.0859
18559TIP3    H177168   6.365   4.721   5.291  0.1232  0.9060  0.0277
18559TIP3    H277169   6.433   4.594   5.336 -1.2581  0.3940  0.7340
18560TIP3   OH277170   2.410   2.394   4.956 -0.2873 -0.6357 -0.5822
18560TIP3    H177171   2.497   2.364   4.931 -0.3746 -0.0675 -1.6627
18560TIP3    H277172   2.417   2.490   4.956 -0.9985 -0.5709 -1.0912
18561TIP3   OH277173   0.967   4.144   2.081 -0.2998 -0.0363  0.1825
18561TIP3    H177174   0.954   4.156   2.175 -2.1920  1.6278 -0.2366
18561TIP3    H277175   0.879   4.137   2.045  0.3227  0.9342 -1.6468
18562TIP3   OH277176   2.720   3.587  15.567  0.1374  0.3673  0.1818
18562TIP3    H177177   2.743   3.650  15.499 -0.7530 -0.0879 -0.5699
18562TIP3    H277178   2.624   3.582  15.565  0.1846 -1.1408  0.0625
18563TIP3   OH277179   1.212   4.560  12.755 -0.0152 -0.1680  0.2236
18563TIP3    H177180   1.233   4.637  12.701 -1.8118  0.2971  0.1212
18563TIP3    H277181   1.147   4.512  12.704  0.1995 -1.1240  0.8280
18564TIP3   OH277182   0.292   6.595   1.156 -0.5078  0.3433 -0.4218
18564TIP3    H177183   0.286   6.646   1.075  0.1467  1.2342  0.0746
18564TIP3    H277184   0.370   6.540   1.144 -1.6976 -1.2471 -1.3170
18565TIP3   OH277185   0.502   1.542   3.898  0.0738  0.6784  0.3112
18565TIP3    H177186   0.526   1.630   3.870  1.0470  0.2180 -0.3570
18565TIP3    H277187   0.562   1.484   3.850 -3.2580 -0.6902 -2.7493
18566TIP3   OH277188   3.778   5.761   3.492  0.0331  0.1210 -0.1318
18566TIP3    H177189   3.820   5.732   3.573  0.2026  1.2070  0.1939
18566TIP3    H277190   3.837   5.732   3.422  0.5279  0.2601  0.2227
18567TIP3   OH277191   5.114   6.576  15.558  0.5640 -0.0421  0.4401
18567TIP3    H177192   5.147   6.659  15.595 -0.3183  0.8228 -0.6377
18567TIP3    H277193   5.019   6.586  15.558  0.3286 -1.7859  1.8763
18568TIP3   OH277194   5.844   5.193   1.595  0.4767  0.0443  0.8560
18568TIP3    H177195   5.748   5.197   1.600  0.5068  0.5947  1.1232
18568TIP3    H277196   5.872   5.184   1.686  0.7256  1.5141  0.9561
18569TIP3   OH277197   4.077   0.988   3.348 -0.5431 -0.3603  0.2301
18569TIP3    H177198   4.058   1.073   3.309 -3.1456  0.0551  2.1792
18569TIP3    H277199   4.023   0.926   3.300 -1.8330 -0.2273  1.4571
18570TIP3   OH277200   5.177   6.197  13.807 -0.3860 -0.4664  0.3283
18570TIP3    H177201   5.212   6.229  13.890  2.8320 -0.6393 -0.8040
18570TIP3    H277202   5.196   6.103  13.807 -0.9639 -0.5915 -0.3053
18571TIP3   OH277203   3.931   2.637   3.318  0.0129 -0.0254  0.6462
18571TIP3    H177204   3.975   2.707   3.366 -0.9698  0.0079  1.5207
18571TIP3    H277205   3.852   2.618   3.369 -1.6264  0.7210 -1.4587
18572TIP3   OH277206   0.378   0.199   4.183  0.0144  0.2430  0.2481
18572TIP3    H177207   0.355   0.125   4.240  4.8796 -0.7881  1.3559
18572TIP3    H277208   0.415   0.264   4.243  0.4971  1.3720 -1.2207
18573TIP3   OH277209   1.073   2.536  13.949 -1.1552 -0.2858 -0.3162
18573TIP3    H177210   1.081   2.621  13.906  0.3608  0.7500  1.8016
18573TIP3    H277211   0.983   2.534  13.981 -1.2039  0.5486 -0.3614
18574TIP3   OH277212   4.203   1.120  14.834  0.2824  0.0069  0.5652
18574TIP3    H177213   4.142   1.138  14.762  1.3274 -0.5325 -0.4716
18574TIP3    H277214   4.150   1.071  14.897 -0.0413 -1.6950 -0.9430
18575TIP3   OH277215   1.138   2.310  15.185 -0.2604  0.5025  0.7356
18575TIP3    H177216   1.072   2.283  15.248  0.6878 -0.1754  1.4548
18575TIP3    H277217   1.221   2.299  15.230  0.4943 -0.6209 -0.8488
18576TIP3   OH277218   6.503   4.059  12.595 -0.2748  0.0422  0.1002
18576TIP3    H177219   6.463   4.144  12.613  0.1537  0.0829  0.9627
18576TIP3    H277220   6.431   3.997  12.598 -0.3675  0.1746  1.1418
18577TIP3   OH277221   4.909   3.433  12.526  0.1055  0.7197  0.2309
18577TIP3    H177222   4.823   3.457  12.559 -1.2772 -0.3370 -2.2436
18577TIP3    H277223   4.950   3.516  12.503 -0.3982  1.2207  1.0787
18578TIP3   OH277224   3.276   0.929  14.418  0.8629  0.0602  0.4740
18578TIP3    H177225   3.275   0.840  14.453 -0.2928 -0.0909  0.0937
18578TIP3    H277226   3.186   0.946  14.392  1.4799  0.4742 -1.6446
18579TIP3   OH277227   3.566   0.118  11.528  0.4062  0.0578 -0.4399
18579TIP3    H177228   3.525   0.204  11.522 -2.6175 -1.0708  1.5552
18579TIP3    H277229   3.536   0.072  11.449 -2.9200 -0.8993  1.1954
18580TIP3   OH277230   1.686   3.932   4.908 -0.4542 -0.1108 -0.2189
18580TIP3    H177231   1.775   3.898   4.899 -0.3964  0.0487 -0.2639
18580TIP3    H277232   1.696   4.009   4.964 -0.2234  1.2263 -1.9966
18581TIP3   OH277233   4.998   5.924  15.503 -0.4050  0.4375 -0.2555
18581TIP3    H177234   4.959   5.879  15.578  0.1950 -0.8213 -0.6516
18581TIP3    H277235   5.062   5.984  15.542 -0.3929  0.1006  0.2624
18582TIP3   OH277236   0.858   5.819   2.798  0.3167 -0.8151  0.2820
18582TIP3    H177237   0.870   5.897   2.851 -0.2651 -0.1059 -0.6045
18582TIP3    H277238   0.945   5.797   2.766  0.2920  0.2350 -0.5208
18583TIP3   OH277239   5.829   4.218   5.444  0.4240  0.2440 -0.0339
18583TIP3    H177240   5.858   4.166   5.520  2.5668  1.1134 -0.1926
18583TIP3    H277241   5.745   4.254   5.471  2.3344  2.8833  3.2461
18584TIP3   OH277242   5.726   5.912  17.157 -0.8820  0.1894  0.4420
18584TIP3    H177243   5.753   5.911  17.066 -0.2134 -0.0931  0.6363
18584TIP3    H277244   5.737   6.003  17.184 -0.8544  0.2260  0.3070
18585TIP3   OH277245   1.286   3.241   2.527 -0.1204 -0.1105  0.4607
18585TIP3    H177246   1.341   3.182   2.578  1.8198  1.0487 -0.2045
18585TIP3    H277247   1.214   3.264   2.586  0.3615 -1.2458  1.5361
18586TIP3   OH277248   0.081   3.009   5.518  0.0829 -0.0996 -0.6110
18586TIP3    H177249   0.121   2.923   5.532 -0.6959 -0.2597  0.7254
18586TIP3    H277250   0.148   3.071   5.545  1.0184 -0.2105 -2.4874
18587TIP3   OH277251   2.123   2.002   2.330  0.3092  0.0222  0.3914
18587TIP3    H177252   2.050   1.974   2.385  0.0757 -0.0214  0.0601
18587TIP3    H277253   2.197   1.949   2.360  0.1990  0.0396  0.7023
18588TIP3   OH277254   0.498   3.057   1.511  0.0357 -0.1844 -0.3488
18588TIP3    H177255   0.538   3.003   1.579 -0.1456 -1.1854 -1.0132
18588TIP3    H277256   0.566   3.064   1.444 -0.5848 -1.2306 -1.1270
18589TIP3   OH277257   4.729   4.434  15.699 -0.3847  0.0384 -0.8395
18589TIP3    H177258   4.802   4.406  15.755 -0.2277  0.1069 -1.0073
18589TIP3    H277259   4.696   4.352  15.662 -0.1212  0.0440 -1.0920
18590TIP3   OH277260   2.337   5.833   0.835  0.6880  0.8316  0.0442
18590TIP3    H177261   2.290   5.787   0.904 -0.2623 -0.4995 -1.4164
18590TIP3    H277262   2.277   5.902   0.806 -0.1558 -0.4127 -1.3287
18591TIP3   OH277263   5.292   3.655  11.876  0.9718  0.1969 -0.1881
18591TIP3    H177264   5.239   3.687  11.804  2.1980  2.4850 -0.1746
18591TIP3    H277265   5.297   3.729  11.937  0.9185 -1.2807  1.7156
18592TIP3   OH277266   2.117   5.228   5.479 -0.1205 -0.2321 -0.5236
18592TIP3    H177267   2.095   5.316   5.448  0.2562  0.3219  0.7007
18592TIP3    H277268   2.173   5.243   5.555 -1.9485 -1.4645  1.1874
18593TIP3   OH277269   3.777   4.538   0.680  0.5751  0.2990 -0.2081
18593TIP3    H177270   3.760   4.495   0.596  0.8486 -1.4615  0.5836
18593TIP3    H277271   3.818   4.469   0.733 -2.2108  0.4331  2.3548
18594TIP3   OH277272   5.973   5.323   0.682 -0.2446 -0.3738  0.7403
18594TIP3    H177273   6.048   5.271   0.710  0.7670  0.7622  0.2633
18594TIP3    H277274   5.930   5.351   0.763 -1.4686 -2.7946  1.0038
18595TIP3   OH277275   1.294   5.793   4.957 -0.0663  0.3032 -0.8535
18595TIP3    H177276   1.214   5.820   5.002  1.6786  1.6137  1.7213
18595TIP3    H277277   1.269   5.714   4.908 -3.2796  1.6390 -1.5837
18596TIP3   OH277278   2.679   3.791  16.321  0.0156  0.1657  0.5988
18596TIP3    H177279   2.604   3.733  16.339  0.3272 -0.6478 -0.6061
18596TIP3    H277280   2.745   3.765  16.385 -0.2286 -0.0761  0.7587
18597TIP3   OH277281   3.373   2.889   0.891  0.4490 -0.0157 -0.2007
18597TIP3    H177282   3.389   2.841   0.810  2.3104 -1.2884  0.8566
18597TIP3    H277283   3.278   2.889   0.901  0.0050  1.7284 -3.2374
18598TIP3   OH277284   1.759   2.701  16.123 -0.0624 -0.5745  0.2897
18598TIP3    H177285   1.768   2.764  16.195 -1.0632 -1.9372  1.6707
18598TIP3    H277286   1.849   2.677  16.100  0.2805  0.1845  0.7920
18599TIP3   OH277287   6.203   0.192  14.092  0.1658  0.3195 -0.3480
18599TIP3    H177288   6.288   0.152  14.112 -0.0153  0.6158  1.1239
18599TIP3    H277289   6.139   0.132  14.129 -0.4185 -0.7450 -2.8337
18600TIP3   OH277290   1.266   3.864   3.767 -0.3359 -0.2649 -0.1913
18600TIP3    H177291   1.286   3.799   3.700  1.0081  0.3700 -0.4523
18600TIP3    H277292   1.281   3.948   3.724  2.2851  0.1544  1.3214
18601TIP3   OH277293   4.872   0.370  13.916  0.3738 -0.3924  0.1819
18601TIP3    H177294   4.782   0.350  13.945  0.2289  1.5757  1.2424
18601TIP3    H277295   4.863   0.453  13.868  1.3986 -1.0783 -1.2670
18602TIP3   OH277296   0.077   5.400  16.280  0.1370  0.2898 -0.0056
18602TIP3    H177297  -0.016   5.383  16.263 -0.0285 -0.8867  1.8508
18602TIP3    H277298   0.111   5.316  16.311  2.0888  0.4293 -1.5960
18603TIP3   OH277299   5.648   0.815  16.946  0.0801 -0.0323 -0.0911
18603TIP3    H177300   5.572   0.771  16.982 -1.2757  0.4287 -2.2141
18603TIP3    H277301   5.690   0.749  16.890  0.0449  0.3178 -0.5364
18604TIP3   OH277302   3.408   5.644   5.462  0.3735  0.4345  0.3485
18604TIP3    H177303   3.428   5.738   5.460  0.4151  0.4250 -1.6570
18604TIP3    H277304   3.411   5.617   5.370  0.6188 -1.5981  0.9115
18605TIP3   OH277305   5.243   3.183  11.400  0.2626 -0.1741  0.0065
18605TIP3    H177306   5.314   3.239  11.430  0.1854 -1.1293  2.1357
18605TIP3    H277307   5.251   3.104  11.453 -1.8805 -0.6541 -0.3053
18606TIP3   OH277308   1.280   2.140   1.777 -0.5067  0.3217 -0.0798
18606TIP3    H177309   1.328   2.101   1.850  2.6226  1.0198 -1.5933
18606TIP3    H277310   1.268   2.231   1.802 -0.5994  0.2572  0.1091
18607TIP3   OH277311   6.267   1.687  17.185 -0.2333 -0.3007  0.3405
18607TIP3    H177312   6.254   1.658  17.275  1.9337 -1.0896  0.4573
18607TIP3    H277313   6.246   1.611  17.132 -0.5849 -0.1229  0.2172
18608TIP3   OH277314   5.253   5.895  13.836 -0.2170 -0.8664 -0.4654
18608TIP3    H177315   5.216   5.875  13.922  1.8242  1.3793  1.0446
18608TIP3    H277316   5.336   5.846  13.834  0.5006  0.3133 -0.4551
18609TIP3   OH277317   0.979   3.803   5.604 -0.6398  0.0141  0.4662
18609TIP3    H177318   1.013   3.779   5.691  0.0949 -0.0744  0.1591
18609TIP3    H277319   1.050   3.852   5.564 -0.3459 -1.3021 -0.7044
18610TIP3   OH277320   1.678   1.554  11.085  0.0263  0.1981  0.1361
18610TIP3    H177321   1.758   1.593  11.120  0.9546  2.1746 -3.5830
18610TIP3    H277322   1.709   1.495  11.016 -1.6647 -1.1045  0.4350
18611TIP3   OH277323   4.184   0.281   1.286 -0.2733 -0.0024  0.0083
18611TIP3    H177324   4.183   0.335   1.365 -1.0111  1.0370 -0.6888
18611TIP3    H277325   4.255   0.318   1.233  2.0033 -2.3270  1.2261
18612TIP3   OH277326   2.600   6.321  15.822  0.1706  0.3783  0.8952
18612TIP3    H177327   2.605   6.416  15.814  0.7763  0.2585 -0.4066
18612TIP3    H277328   2.691   6.294  15.837  0.1978 -0.0800 -0.0191
18613TIP3   OH277329   4.995   3.314   0.603 -0.1784  0.1248  0.9121
18613TIP3    H177330   5.029   3.226   0.586  0.6763  0.8074 -1.2601
18613TIP3    H277331   4.957   3.308   0.691  3.0022 -1.4649  2.3458
18614TIP3   OH277332   6.727   1.709  14.389 -0.5273  0.3390 -0.3449
18614TIP3    H177333   6.754   1.617  14.379 -0.2712 -0.0663  2.9878
18614TIP3    H277334   6.633   1.705  14.406 -0.2603  0.4890  1.3423
18615TIP3   OH277335   4.515   0.851   5.449 -0.6479 -0.2450 -0.2742
18615TIP3    H177336   4.552   0.934   5.481 -0.4132 -0.2558 -0.5209
18615TIP3    H277337   4.467   0.875   5.370 -0.2518 -0.4056 -0.5666
18616TIP3   OH277338   0.870   3.900   1.338  0.2436 -0.4715 -0.4477
18616TIP3    H177339   0.961   3.908   1.308  0.6647 -0.5668  0.7638
18616TIP3    H277340   0.854   3.806   1.341  0.8080 -0.5442  1.3108
18617TIP3   OH277341   3.663   1.526   1.829  0.6827 -0.2240  0.0012
18617TIP3    H177342   3.676   1.431   1.833  1.4612 -0.1268  0.0424
18617TIP3    H277343   3.751   1.561   1.811  0.0379  0.3331 -2.4837
18618TIP3   OH277344   1.877   6.187   4.924  0.3129  0.1517 -0.1994
18618TIP3    H177345   1.839   6.193   4.836 -0.6072 -0.4313  0.1373
18618TIP3    H277346   1.970   6.168   4.909 -0.0661 -1.1751 -1.0612
18619TIP3   OH277347   0.086   4.542   5.833  0.0899  0.1882  0.2480
18619TIP3    H177348   0.029   4.469   5.856  0.8379 -0.6262 -0.4341
18619TIP3    H277349   0.171   4.521   5.872 -0.1418  1.5789  1.5905
18620TIP3   OH277350   2.276   5.902   0.339 -0.0228 -0.1230  0.0645
18620TIP3    H177351   2.333   5.836   0.378  1.0885  1.2864  0.9148
18620TIP3    H277352   2.294   5.982   0.388 -0.9717  0.9468 -1.2506
18621TIP3   OH277353   4.199   5.356   3.750  0.2622 -0.3366 -0.6078
18621TIP3    H177354   4.245   5.391   3.673  2.4710 -1.4940  0.0888
18621TIP3    H277355   4.253   5.385   3.824  0.5778 -2.7461  0.1725
18622TIP3   OH277356   6.363   3.000   3.770  0.2845 -0.3418  0.1032
18622TIP3    H177357   6.302   2.978   3.700 -0.8422  2.4227  0.0691
18622TIP3    H277358   6.446   3.015   3.725 -0.0324 -0.1751 -0.4419
18623TIP3   OH277359   4.948   1.597   1.187 -0.1101  0.2003  0.1326
18623TIP3    H177360   4.935   1.558   1.274  2.0136 -2.5125 -0.6696
18623TIP3    H277361   5.042   1.594   1.173 -0.5076 -0.8940 -2.8980
18624TIP3   OH277362   3.556   4.374  13.845  0.3437 -0.0607  0.6459
18624TIP3    H177363   3.462   4.391  13.852 -0.1441 -0.2267 -3.3185
18624TIP3    H277364   3.561   4.282  13.819  1.6455 -0.1121  1.0130
18625TIP3   OH277365   4.683   5.769  11.013 -0.3464  0.0492  0.3102
18625TIP3    H177366   4.599   5.725  11.024 -0.4466  0.2916  0.5249
18625TIP3    H277367   4.714   5.741  10.926 -1.1990  0.8623 -0.2743
18626TIP3   OH277368   5.004   6.598   2.394  0.5404 -0.0896  0.0200
18626TIP3    H177369   4.976   6.650   2.319  1.0739  0.0999 -0.0566
18626TIP3    H277370   5.044   6.520   2.356 -0.9000 -0.9190  0.1466
18627TIP3   OH277371   1.825   3.796   6.224  0.3847 -0.0126  0.0029
18627TIP3    H177372   1.896   3.860   6.224 -0.1549  0.5951 -0.1103
18627TIP3    H277373   1.866   3.716   6.257  1.1001  0.3492  0.0262
18628TIP3   OH277374   4.409   5.521  16.402  0.1174 -0.1182  0.6186
18628TIP3    H177375   4.388   5.428  16.391  0.0855 -0.0343 -0.1242
18628TIP3    H277376   4.478   5.522  16.469  1.0571 -0.8072 -0.2936
18629TIP3   OH277377   1.071   2.726   2.149  0.3545  0.4476  0.5824
18629TIP3    H177378   1.122   2.751   2.072  0.1928 -1.3147 -0.1200
18629TIP3    H277379   1.121   2.656   2.190 -1.0165 -0.7139  0.3706
18630TIP3   OH277380   6.364   2.793  10.792 -0.2373  0.0722 -0.5519
18630TIP3    H177381   6.269   2.802  10.791 -0.6889 -3.0148  1.4748
18630TIP3    H277382   6.380   2.700  10.809  3.2045  0.1645 -2.2449
18631TIP3   OH277383   5.763   1.670  12.273  0.1502  0.4227 -0.1481
18631TIP3    H177384   5.716   1.731  12.329 -0.1286  0.0716  0.0072
18631TIP3    H277385   5.855   1.683  12.294 -0.0129 -0.7248  1.4682
18632TIP3   OH277386   1.826   3.679   1.661  0.1721 -0.4170 -0.1745
18632TIP3    H177387   1.836   3.726   1.578  0.4910 -0.1108  0.0371
18632TIP3    H277388   1.737   3.643   1.656 -0.3069  0.6992 -0.0976
18633TIP3   OH277389   0.881   4.637   6.350 -0.5968  0.2544  0.7961
18633TIP3    H177390   0.833   4.710   6.389  3.4624  2.3949  2.2786
18633TIP3    H277391   0.905   4.582   6.425  0.5727  0.0917  0.3160
18634TIP3   OH277392   3.060   4.325  13.304 -0.5178 -0.5434  0.0133
18634TIP3    H177393   3.083   4.413  13.273 -0.1170 -0.8287 -0.5307
18634TIP3    H277394   2.996   4.339  13.373 -0.2932  0.1885  0.0770
18635TIP3   OH277395   4.330   3.173  11.535 -0.1813  0.4673 -0.2118
18635TIP3    H177396   4.365   3.093  11.497  5.0159  2.1098  0.3939
18635TIP3    H277397   4.311   3.229  11.460 -1.4725 -0.3648 -0.5460
18636TIP3   OH277398   6.043   0.217  16.687  0.7607 -0.6061 -0.0772
18636TIP3    H177399   5.955   0.192  16.717  0.2832  0.7835 -0.2549
18636TIP3    H277400   6.041   0.313  16.686  1.9571 -0.5787 -1.0633
18637TIP3   OH277401   2.838   1.047   6.033 -0.0380 -0.4399 -0.0284
18637TIP3    H177402   2.867   1.078   6.119 -1.5687  0.1301  0.3267
18637TIP3    H277403   2.770   0.983   6.052  1.1306 -1.9747 -0.8155
18638TIP3   OH277404   1.515   1.722  16.677  0.4489 -0.1458 -0.2550
18638TIP3    H177405   1.512   1.637  16.632  2.2471  0.0889 -0.9150
18638TIP3    H277406   1.539   1.700  16.767 -0.2561 -0.4048 -0.1230
18639TIP3   OH277407   6.811   6.539  15.519  0.4308  1.0194  0.0437
18639TIP3    H177408   6.844   6.494  15.597  0.6474  2.4143  0.7931
18639TIP3    H277409   6.889   6.581  15.482  0.4757 -0.2509 -1.3864
18640TIP3   OH277410   3.492   5.949  17.035 -0.1003  0.1753  0.3109
18640TIP3    H177411   3.435   5.879  17.068 -0.1129 -0.0731 -0.2201
18640TIP3    H277412   3.440   6.029  17.044 -0.4837 -0.0287 -0.0257
18641TIP3   OH277413   5.628   3.086  11.761  0.0275 -0.3751 -0.1806
18641TIP3    H177414   5.715   3.096  11.721  0.1935 -1.6222 -0.1729
18641TIP3    H277415   5.610   2.992  11.754 -0.5037 -0.4216  1.5150
18642TIP3   OH277416   5.807   6.179  11.386  0.3234 -0.0899  0.5645
18642TIP3    H177417   5.718   6.145  11.392 -1.1289  2.8849 -1.6401
18642TIP3    H277418   5.831   6.199  11.477 -1.6944  0.0483  1.1132
18643TIP3   OH277419   0.409   3.397   4.176  0.2198  0.3606 -0.3232
18643TIP3    H177420   0.498   3.411   4.207  1.1416  1.1550 -3.0835
18643TIP3    H277421   0.406   3.303   4.156  0.1459  0.1785  0.4826
18644TIP3   OH277422   1.042   1.558   2.201 -0.2531  0.2695  0.0932
18644TIP3    H177423   1.127   1.524   2.229 -0.1476  2.0002  2.1255
18644TIP3    H277424   0.992   1.568   2.282 -1.9537  0.4863 -0.9312
18645TIP3   OH277425   5.109   4.087  15.570  0.3994  0.0337  0.4622
18645TIP3    H177426   5.042   4.105  15.637 -0.5016  1.4927 -0.7730
18645TIP3    H277427   5.122   4.171  15.526 -0.1293 -1.1634 -2.1605
18646TIP3   OH277428   1.664   6.747   4.734 -0.2251 -0.0823 -0.5042
18646TIP3    H177429   1.690   6.765   4.824 -1.8814 -3.3149  0.7791
18646TIP3    H277430   1.745   6.725   4.689  0.5336  0.8992  0.3503
18647TIP3   OH277431   0.538   5.640   5.361 -0.0106 -0.5914 -0.6998
18647TIP3    H177432   0.617   5.599   5.325  0.6313  0.7586 -0.8688
18647TIP3    H277433   0.481   5.566   5.382  2.0963 -1.7707  1.3811
18648TIP3   OH277434   1.855   2.582  14.883 -0.0591  0.4325 -0.4803
18648TIP3    H177435   1.788   2.638  14.922  0.4313  1.5948 -1.2481
18648TIP3    H277436   1.865   2.616  14.794  2.2258  0.9234 -0.1031
18649TIP3   OH277437   2.512   6.405  12.218  0.1511  0.3707 -0.1584
18649TIP3    H177438   2.544   6.489  12.251  1.5241 -0.0013 -0.4873
18649TIP3    H277439   2.583   6.371  12.163 -0.1693 -1.2169  0.3312
18650TIP3   OH277440   2.722   4.789   5.197 -0.1203  0.2551 -0.3246
18650TIP3    H177441   2.809   4.813   5.165  0.2938  0.6663  1.0748
18650TIP3    H277442   2.695   4.861   5.253 -2.3776  1.2386 -2.4715
18651TIP3   OH277443   0.255   1.705   6.183 -0.2751 -0.1186  0.7214
18651TIP3    H177444   0.198   1.777   6.210  0.1897  0.2557  0.7432
18651TIP3    H277445   0.277   1.660   6.265 -0.6975 -0.3850  0.6876
18652TIP3   OH277446   5.466   6.163  12.912  0.4272 -0.0146 -0.2766
18652TIP3    H177447   5.561   6.157  12.920  0.6641  1.2397 -1.7352
18652TIP3    H277448   5.442   6.237  12.969  0.1555 -1.0451  0.9884
18653TIP3   OH277449   3.690   1.461   3.202 -0.6307 -0.0420  0.0386
18653TIP3    H177450   3.703   1.426   3.290 -1.5880 -0.4215  0.0409
18653TIP3    H277451   3.774   1.447   3.158 -0.5783 -1.1367  0.4541
18654TIP3   OH277452   3.982   3.722   6.519  0.1575  0.3415  0.2208
18654TIP3    H177453   3.910   3.684   6.470 -0.9775  0.6326  1.6120
18654TIP3    H277454   4.040   3.648   6.537  0.4036  0.1630 -1.1727
18655TIP3   OH277455   1.239   2.768  13.472 -0.0345 -0.0030 -0.1939
18655TIP3    H177456   1.209   2.700  13.533  0.0611 -0.6995 -0.9077
18655TIP3    H277457   1.183   2.843  13.492 -0.2267 -0.3243  0.5275
18656TIP3   OH277458   6.094   4.063  15.056 -0.3444  0.4973  0.1903
18656TIP3    H177459   6.129   4.152  15.047 -0.8444  0.7650  0.8207
18656TIP3    H277460   6.065   4.039  14.968  1.7767  0.0947 -0.4728
18657TIP3   OH277461   6.538   2.837   0.113 -0.4386  0.1172 -0.2212
18657TIP3    H177462   6.628   2.845   0.147 -0.4689  0.3318 -0.1883
18657TIP3    H277463   6.549   2.820   0.019 -0.3638  0.1701 -0.2222
18658TIP3   OH277464   5.899   2.765   4.340 -0.9223  0.1417  0.2514
18658TIP3    H177465   5.860   2.850   4.319  0.8069  0.9553  0.2025
18658TIP3    H277466   5.830   2.702   4.319 -2.2861  1.5231  0.4129
18659TIP3   OH277467   0.566   6.726   0.628 -0.1426 -0.1515  0.0327
18659TIP3    H177468   0.661   6.737   0.627 -0.2127  0.4521 -1.1519
18659TIP3    H277469   0.553   6.631   0.631  0.5413 -0.3898 -2.5291
18660TIP3   OH277470   4.444   4.494  12.111  0.2390  0.3510 -0.4478
18660TIP3    H177471   4.400   4.526  12.032  0.1054 -0.7121 -0.8102
18660TIP3    H277472   4.373   4.464  12.168  0.3149  1.3583  0.2081
18661TIP3   OH277473   1.876   2.916  11.204  0.1188  0.4211 -0.2080
18661TIP3    H177474   1.876   2.833  11.251  0.5724 -0.1229 -1.1264
18661TIP3    H277475   1.904   2.893  11.115 -3.3105  0.9524 -1.5812
18662TIP3   OH277476   6.736   1.676  10.979 -0.6946 -0.2559  0.3723
18662TIP3    H177477   6.757   1.589  10.946 -0.0757 -0.1594  0.5143
18662TIP3    H277478   6.704   1.724  10.903 -1.7789 -0.8348  0.4384
18663TIP3   OH277479   1.701   0.756   5.385  0.6393 -0.8553 -0.0794
18663TIP3    H177480   1.751   0.777   5.464  0.9957 -0.1886 -0.4700
18663TIP3    H277481   1.767   0.741   5.318  0.3398 -1.4807 -0.2421
18664TIP3   OH277482   3.556   2.941   4.182 -0.4360 -0.3792  0.0563
18664TIP3    H177483   3.569   2.899   4.266 -2.0442 -2.2601 -0.5596
18664TIP3    H277484   3.587   2.878   4.118  1.7104  1.4121 -0.8046
18665TIP3   OH277485   4.827   1.687  12.607  0.7279 -0.0951 -0.5908
18665TIP3    H177486   4.762   1.740  12.561  1.0889 -0.6087 -1.7455
18665TIP3    H277487   4.890   1.750  12.642  0.0722  0.3499 -0.1963
18666TIP3   OH277488   3.344   2.274  15.566  0.1308  0.1879 -0.0728
18666TIP3    H177489   3.366   2.240  15.479  2.9184  0.6414  0.3448
18666TIP3    H277490   3.358   2.199  15.624 -1.7020 -0.1053  0.0302
18667TIP3   OH277491   4.412   1.885   2.007 -0.4603  0.4137 -0.0625
18667TIP3    H177492   4.331   1.836   2.005  0.5621 -1.3598  0.1549
18667TIP3    H277493   4.386   1.973   2.035 -2.3239 -0.0144 -0.3258
18668TIP3   OH277494   3.310   3.279  17.225  0.2086  0.2030 -0.0865
18668TIP3    H177495   3.356   3.217  17.169 -1.0374 -0.9293  0.0708
18668TIP3    H277496   3.251   3.224  17.278 -0.4669  1.4646  0.5251
18669TIP3   OH277497   3.174   0.144   6.472 -0.5409 -0.5692  0.0326
18669TIP3    H177498   3.264   0.113   6.477 -0.3750 -0.0393  0.3519
18669TIP3    H277499   3.169   0.216   6.534 -1.3050 -0.8670  0.3409
18670TIP3   OH277500   3.309   6.035  13.611 -0.1472  0.1352  0.1316
18670TIP3    H177501   3.217   6.049  13.632 -0.4944 -1.3888 -0.2974
18670TIP3    H277502   3.329   6.100  13.543 -1.2732 -0.4370 -0.7527
18671TIP3   OH277503   3.643   5.470   5.739  0.2269  0.2705 -0.2632
18671TIP3    H177504   3.552   5.497   5.726 -0.2131 -0.9143  0.2506
18671TIP3    H277505   3.637   5.390   5.792  1.4065 -1.2719 -2.2913
18672TIP3   OH277506   5.739   6.181  13.017  0.2672  0.0202 -0.2044
18672TIP3    H177507   5.785   6.111  12.970 -0.2799  0.9189 -2.1830
18672TIP3    H277508   5.774   6.262  12.980  0.4556  0.8235  1.6211
18673TIP3   OH277509   1.086   0.901  11.960  0.4459 -0.2329 -0.0508
18673TIP3    H177510   1.167   0.900  11.909  0.6833 -2.5680  0.2485
18673TIP3    H277511   1.111   0.865  12.045 -0.6947  0.0578  0.4248
18674TIP3   OH277512   1.389   4.394   0.615  0.0978  0.0966  0.0232
18674TIP3    H177513   1.378   4.313   0.566  0.9094 -0.2591  0.4186
18674TIP3    H277514   1.352   4.376   0.701  0.8135 -0.0580  0.3054
18675TIP3   OH277515   5.091   2.381   4.435  0.3997 -0.2975 -0.0354
18675TIP3    H177516   5.092   2.375   4.339  0.4238 -1.4772  0.0302
18675TIP3    H277517   5.159   2.446   4.455 -0.4069  0.8330 -0.8586
18676TIP3   OH277518   3.391   2.938   3.129 -0.2993  0.5749 -0.2693
18676TIP3    H177519   3.302   2.904   3.126 -0.1082  0.1339 -1.4646
18676TIP3    H277520   3.381   3.031   3.148 -0.9641  0.3534  0.4890
18677TIP3   OH277521   6.775   5.147  11.231  0.2372  0.1125 -0.1638
18677TIP3    H177522   6.736   5.182  11.152 -0.3526  3.0361  1.2930
18677TIP3    H277523   6.721   5.071  11.253 -0.6324  0.2825 -1.6017
18678TIP3   OH277524   3.094   3.461  14.297  1.1433 -0.2139 -0.2280
18678TIP3    H177525   3.094   3.553  14.324  2.5084 -1.1172  3.5146
18678TIP3    H277526   3.006   3.431  14.318  0.4939  0.3224 -2.0501
18679TIP3   OH277527   5.151   3.699  15.874  0.2309 -0.7055 -0.0279
18679TIP3    H177528   5.145   3.674  15.782  1.4558 -1.8212  0.1675
18679TIP3    H277529   5.241   3.679  15.899 -0.2289 -0.9682  1.5754
18680TIP3   OH277530   5.033   0.548   4.319 -1.0718  0.2258  0.4003
18680TIP3    H177531   4.945   0.566   4.353 -1.2998 -1.6936  0.9420
18680TIP3    H277532   5.091   0.567   4.392 -1.3226 -1.2098  1.0136
18681TIP3   OH277533   2.984   6.097  16.724 -0.6328 -0.2850  0.7492
18681TIP3    H177534   2.895   6.062  16.720 -0.3344 -1.0866  0.8447
18681TIP3    H277535   3.016   6.070  16.810 -0.1567 -0.3594  0.5496
18682TIP3   OH277536   5.371   6.428   4.806 -0.3291  0.8725  0.8842
18682TIP3    H177537   5.373   6.472   4.891  0.7877  1.2886  0.6643
18682TIP3    H277538   5.462   6.405   4.789 -0.4004  1.5301 -0.5562
18683TIP3   OH277539   3.735   6.374   4.326  0.0307 -0.3477  0.1979
18683TIP3    H177540   3.676   6.363   4.252  0.7507  0.0520 -0.4559
18683TIP3    H277541   3.756   6.467   4.326  2.1346 -0.7595 -0.7736
18684TIP3   OH277542   2.597   2.039  16.380 -0.0434 -0.6551 -0.0138
18684TIP3    H177543   2.688   2.066  16.395 -0.1071  0.3180 -1.3101
18684TIP3    H277544   2.545   2.118  16.394 -0.6465 -1.0551  0.0715
18685TIP3   OH277545   1.210   0.369  14.043 -0.2195  0.4828  0.0180
18685TIP3    H177546   1.117   0.380  14.064 -0.3168 -0.2865  0.0044
18685TIP3    H277547   1.212   0.361  13.948 -0.1271  0.5516  0.0130
18686TIP3   OH277548   6.277   1.971   5.022  0.4183  0.7843 -0.2357
18686TIP3    H177549   6.299   2.001   4.934 -0.9862 -1.8219 -1.5798
18686TIP3    H277550   6.185   1.947   5.018  0.9733 -1.9996  1.1085
18687TIP3   OH277551   3.281   1.446   0.195  0.3518 -0.2592 -0.0544
18687TIP3    H177552   3.301   1.469   0.286 -1.2478 -0.5690  0.4158
18687TIP3    H277553   3.323   1.515   0.143  1.2840 -0.0780  0.9216
18688TIP3   OH277554   6.345   0.556  11.822 -0.2823  0.0351  0.1981
18688TIP3    H177555   6.309   0.601  11.899  0.8009  0.3036  0.5623
18688TIP3    H277556   6.290   0.586  11.749 -0.9204  0.2737  0.7682
18689TIP3   OH277557   4.598   4.100  11.067 -0.2880 -0.0387 -0.2476
18689TIP3    H177558   4.687   4.132  11.056  0.1782 -1.4505 -0.7230
18689TIP3    H277559   4.564   4.150  11.142  1.5888 -0.8617  1.2403
18690TIP3   OH277560   3.075   4.953  10.325  0.0906 -0.0008 -0.1471
18690TIP3    H177561   3.008   4.887  10.308 -1.3151  1.3844 -0.2067
18690TIP3    H277562   3.027   5.028  10.360  1.5732  1.1622 -0.4848
18691TIP3   OH277563   1.399   3.164   6.221 -0.4868  0.2850  0.2403
18691TIP3    H177564   1.372   3.073   6.208  0.0633  0.3255 -1.5480
18691TIP3    H277565   1.319   3.209   6.249 -1.1826 -0.4539 -0.4799
18692TIP3   OH277566   3.733   2.449  11.172 -0.1670 -0.4567 -0.3722
18692TIP3    H177567   3.683   2.513  11.223  0.7794  0.8134 -0.9739
18692TIP3    H277568   3.775   2.501  11.104  0.4313 -1.7805 -1.0485
18693TIP3   OH277569   2.541   4.309   1.589 -0.0931  0.0304  0.2739
18693TIP3    H177570   2.550   4.357   1.507 -1.8419  1.0428  0.6220
18693TIP3    H277571   2.595   4.357   1.651  1.5377 -0.9563 -0.3369
18694TIP3   OH277572   5.841   1.188   6.292  0.0529 -0.5586 -0.2389
18694TIP3    H177573   5.872   1.102   6.320 -0.1578 -0.3544  0.6452
18694TIP3    H277574   5.763   1.204   6.345  0.5200  0.4990  0.1596
18695TIP3   OH277575   0.847   2.856  12.211 -1.1446 -0.6734 -0.6750
18695TIP3    H177576   0.923   2.812  12.250 -0.6210  0.1832 -0.6963
18695TIP3    H277577   0.838   2.816  12.125 -1.6296 -1.8107 -0.1132
18696TIP3   OH277578   2.763   0.301  16.638 -0.2238  0.3294 -0.0603
18696TIP3    H177579   2.708   0.319  16.714 -1.7049 -2.6176 -0.3052
18696TIP3    H277580   2.702   0.302  16.564  0.5677 -0.1818 -0.7369
18697TIP3   OH277581   4.647   6.480   3.055  0.2728  0.4718 -0.5175
18697TIP3    H177582   4.556   6.452   3.044  0.6463 -0.9294 -0.1968
18697TIP3    H277583   4.683   6.420   3.120  0.3714  3.4143  2.4423
18698TIP3   OH277584   6.621   2.934   2.033  0.0949  0.5839 -0.0078
18698TIP3    H177585   6.708   2.929   2.072  0.3814  1.6236 -0.4896
18698TIP3    H277586   6.614   2.856   1.979  1.2118  1.0996 -0.9288
18699TIP3   OH277587   2.104   3.984   4.832 -0.9151 -0.0706 -0.3183
18699TIP3    H177588   2.048   4.050   4.791  0.6238 -0.1633 -2.7252
18699TIP3    H277589   2.164   4.035   4.887 -0.6773  0.3872 -0.9999
18700TIP3   OH277590   4.760   2.738   5.233  0.0929 -0.0452 -0.0156
18700TIP3    H177591   4.847   2.766   5.263  0.0598  0.5253 -0.4421
18700TIP3    H277592   4.764   2.642   5.235  1.8893 -0.1783 -3.0962
18701TIP3   OH277593   5.800   4.673   0.606  0.3517 -0.2649  0.1441
18701TIP3    H177594   5.732   4.646   0.545 -1.0229  2.5679  0.2092
18701TIP3    H277595   5.768   4.644   0.692 -0.9938  1.2444  0.2040
18702TIP3   OH277596   0.993   5.460   5.300 -0.3246 -0.1193  0.0569
18702TIP3    H177597   1.002   5.464   5.205  0.5452  0.7590  0.1595
18702TIP3    H277598   0.952   5.375   5.317 -1.8879  0.3176 -1.1965
18703TIP3   OH277599   0.170   5.148   2.307 -0.4005 -0.2253  0.1816
18703TIP3    H177600   0.195   5.064   2.346  0.3813 -0.4419 -0.7682
18703TIP3    H277601   0.236   5.209   2.338 -0.8533  0.0090  0.7059
18704TIP3   OH277602   1.828   5.229  12.387  0.2159  0.0517  0.1144
18704TIP3    H177603   1.897   5.188  12.334  1.1334  0.1779  1.1836
18704TIP3    H277604   1.844   5.197  12.476 -0.7986  0.4941  0.4686
18705TIP3   OH277605   4.970   3.956  14.400 -0.7213 -0.3222  0.2096
18705TIP3    H177606   4.939   3.892  14.464 -1.7503  1.2144  1.3014
18705TIP3    H277607   4.891   3.997  14.366 -0.1089 -0.0589 -0.9421
18706TIP3   OH277608   3.285   5.616  14.326  0.1765  0.0001 -0.3288
18706TIP3    H177609   3.216   5.682  14.326 -0.3435 -0.5284 -1.0788
18706TIP3    H277610   3.347   5.645  14.393 -0.3500  0.9225 -0.2383
18707TIP3   OH277611   4.537   5.121  17.043  0.4197 -0.2319 -0.0146
18707TIP3    H177612   4.483   5.048  17.011  0.6518  0.0688 -1.1451
18707TIP3    H277613   4.474   5.187  17.072  0.2017 -1.0541  1.4984
18708TIP3   OH277614   4.401   3.532  15.773  0.3869  0.1676  0.2256
18708TIP3    H177615   4.427   3.559  15.685  0.1910  0.4452  0.2511
18708TIP3    H277616   4.397   3.613  15.823 -0.6389  0.1555  0.1869
18709TIP3   OH277617   2.205   3.622   0.684  0.6394  0.5466  0.1143
18709TIP3    H177618   2.129   3.659   0.640  1.1300  0.9867 -0.3917
18709TIP3    H277619   2.176   3.537   0.717  0.0293  0.5607 -0.3755
18710TIP3   OH277620   2.448   1.841   1.759 -0.0745 -0.3090 -0.2844
18710TIP3    H177621   2.494   1.925   1.760  1.2310 -0.9963 -0.5435
18710TIP3    H277622   2.363   1.860   1.720  1.0628  0.4783 -2.4908
18711TIP3   OH277623   6.768   5.261   1.214 -0.0045  0.1817  0.1818
18711TIP3    H177624   6.701   5.232   1.152 -0.5332  1.0025  0.3629
18711TIP3    H277625   6.781   5.354   1.195  1.3958 -0.0482 -0.1265
18712TIP3   OH277626   1.566   4.220  15.864 -0.0444  0.6110 -0.4618
18712TIP3    H177627   1.627   4.270  15.809 -0.7533  0.8990 -0.9909
18712TIP3    H277628   1.615   4.140  15.886  0.9181  1.3004 -0.0046
18713TIP3   OH277629   6.262   3.077  14.107  0.1457 -0.0702  0.1515
18713TIP3    H177630   6.230   2.992  14.138 -0.5102 -0.4605 -1.4885
18713TIP3    H277631   6.316   3.056  14.031  1.0505  0.9055  0.4977
18714TIP3   OH277632   1.148   0.411  13.468 -0.4489  0.4479 -0.1464
18714TIP3    H177633   1.198   0.341  13.426  0.1750  1.3497 -0.9567
18714TIP3    H277634   1.062   0.408  13.425 -0.1245  0.7525 -0.8374
18715TIP3   OH277635   5.312   6.636   2.960  0.0399 -0.2835 -0.1578
18715TIP3    H177636   5.250   6.707   2.978  0.7378  0.1816  0.4637
18715TIP3    H277637   5.394   6.665   2.999  1.0763 -0.2042 -2.2652
18716TIP3   OH277638   2.123   0.163  12.371 -0.0640  0.1630  0.3135
18716TIP3    H177639   2.174   0.086  12.348  0.1224 -0.0598  1.3847
18716TIP3    H277640   2.103   0.151  12.464 -3.2169 -0.4139 -0.3472
18717TIP3   OH277641   3.616   5.068   3.542 -0.9281  0.3725  0.2514
18717TIP3    H177642   3.642   5.160   3.544 -1.0722  0.4550 -0.9931
18717TIP3    H277643   3.531   5.068   3.500 -0.1123 -0.4909 -1.4972
18718TIP3   OH277644   3.027   0.999  17.181 -0.6083 -0.0441 -0.3856
18718TIP3    H177645   3.059   1.007  17.092 -1.5254 -0.9429 -0.8133
18718TIP3    H277646   2.934   0.978  17.172 -0.1276 -3.3128  0.6512
18719TIP3   OH277647   3.776   5.717   2.883  0.1252  0.2000 -0.5130
18719TIP3    H177648   3.816   5.782   2.940 -0.1341  0.0321 -0.1357
18719TIP3    H277649   3.828   5.637   2.896 -0.2429  0.0203 -0.1262
18720TIP3   OH277650   1.316   5.125  14.174  0.1810 -0.6633  0.0977
18720TIP3    H177651   1.303   5.139  14.080  0.6594 -2.0673 -0.2099
18720TIP3    H277652   1.264   5.193  14.216 -0.1312 -0.0812 -1.1857
18721TIP3   OH277653   6.731   6.136  13.575  0.0916  0.4305  0.0405
18721TIP3    H177654   6.805   6.084  13.606  0.6002  1.1830  0.1374
18721TIP3    H277655   6.717   6.107  13.485  0.2621  0.0155  0.1485
18722TIP3   OH277656   5.342   3.156   5.096  0.3652 -0.2241  0.0336
18722TIP3    H177657   5.256   3.177   5.061  0.3708  0.3473  0.3537
18722TIP3    H277658   5.324   3.110   5.178  0.3620 -0.8851 -0.3279
18723TIP3   OH277659   3.126   4.904  11.178  0.0669  0.5596 -0.0985
18723TIP3    H177660   3.218   4.878  11.168 -0.0150  0.0705  0.3738
18723TIP3    H277661   3.112   4.967  11.108  0.3006 -0.6107 -1.2342
18724TIP3   OH277662   4.496   0.400   1.946 -0.0218 -0.4633 -0.0812
18724TIP3    H177663   4.462   0.349   1.872 -0.2429  0.0487 -0.3381
18724TIP3    H277664   4.446   0.481   1.944 -3.9030 -2.3776  3.8509
18725TIP3   OH277665   2.323   0.789   2.412 -0.2369 -0.4559  0.1117
18725TIP3    H177666   2.407   0.752   2.442 -0.2048  0.8356  1.7147
18725TIP3    H277667   2.330   0.882   2.432 -2.6405 -0.5484  1.6982
18726TIP3   OH277668   4.377   1.059  13.226 -0.0272 -0.2074 -0.2104
18726TIP3    H177669   4.294   1.041  13.270 -0.8581  1.5451 -1.0054
18726TIP3    H277670   4.355   1.119  13.155  1.5869 -1.4793 -1.8782
18727TIP3   OH277671   2.541   2.296   0.506 -0.1137 -0.3216 -0.2303
18727TIP3    H177672   2.468   2.239   0.480 -0.2366 -0.4064  0.2969
18727TIP3    H277673   2.618   2.258   0.464 -0.5543  0.5098 -1.8732
18728TIP3   OH277674   2.181   5.971  15.648  0.0355  0.0658  0.0030
18728TIP3    H177675   2.089   5.971  15.623  0.1687  0.6578 -0.5202
18728TIP3    H277676   2.225   6.022  15.579  0.6792  0.2216  0.5124
18729TIP3   OH277677   5.519   5.682   1.759  0.0279 -0.3102 -0.2114
18729TIP3    H177678   5.533   5.627   1.836  0.1459  1.0099  0.7413
18729TIP3    H277679   5.513   5.771   1.794  1.3757  0.4764 -1.8328
18730TIP3   OH277680   2.851   5.261  12.174 -0.1643 -0.3278  0.2144
18730TIP3    H177681   2.843   5.328  12.106 -0.5827  0.2813  0.8482
18730TIP3    H277682   2.932   5.215  12.153 -0.8083 -0.8455 -1.2961
18731TIP3   OH277683   2.801   6.120  15.643  0.8548  0.7666 -0.2544
18731TIP3    H177684   2.712   6.107  15.677  0.8362  1.8657  0.1276
18731TIP3    H277685   2.857   6.078  15.708  0.6026 -0.5606 -0.8464
18732TIP3   OH277686   5.239   6.315  15.581 -0.1347  0.4706 -0.2588
18732TIP3    H177687   5.306   6.342  15.644 -1.6914 -1.3364  2.3309
18732TIP3    H277688   5.188   6.395  15.566 -0.0056  0.8475  1.1466
18733TIP3   OH277689   5.983   1.199   2.715 -0.1248  0.1305 -0.5507
18733TIP3    H177690   6.021   1.209   2.803  1.4590  0.2136 -1.2129
18733TIP3    H277691   5.889   1.196   2.730 -0.0241  2.3074  0.9600
18734TIP3   OH277692   5.955   4.692   2.674  0.6996 -0.3576  0.0267
18734TIP3    H177693   6.045   4.706   2.705  0.6912 -1.6050  0.6747
18734TIP3    H277694   5.948   4.597   2.665 -0.2415 -0.2009 -1.0166
18735TIP3   OH277695   4.725   5.409  11.398  0.6023 -0.5856  0.5500
18735TIP3    H177696   4.647   5.459  11.419  0.4638 -0.2754 -0.6158
18735TIP3    H277697   4.717   5.328  11.448 -1.1545 -1.1548 -0.5651
18736TIP3   OH277698   3.687   6.721  15.060 -0.4306  0.4015  0.1090
18736TIP3    H177699   3.768   6.684  15.094 -0.4216  0.4107  0.0982
18736TIP3    H277700   3.628   6.646  15.051 -1.2022  0.6801  2.3054
18737TIP3   OH277701   1.954   1.977  12.306 -0.3634 -0.3367 -0.2904
18737TIP3    H177702   1.937   2.071  12.305  0.9255 -0.0864 -0.1250
18737TIP3    H277703   1.912   1.946  12.387 -1.8232 -0.1345 -0.9357
18738TIP3   OH277704   0.276   3.241  15.997  0.2427 -0.2071 -0.4071
18738TIP3    H177705   0.216   3.307  15.962  1.9632  1.6325 -0.0459
18738TIP3    H277706   0.288   3.179  15.925 -2.6177 -1.0918 -0.2434
18739TIP3   OH277707   3.736   0.975   3.761  0.0071  0.3895  0.4269
18739TIP3    H177708   3.699   0.911   3.700 -0.2810  1.4538 -0.5714
18739TIP3    H277709   3.798   1.024   3.708 -1.4661  2.4541  0.4761
18740TIP3   OH277710   1.237   5.059   1.711 -0.2811 -0.2180  0.3308
18740TIP3    H177711   1.268   5.126   1.772  0.2540  0.6473 -0.8518
18740TIP3    H277712   1.142   5.066   1.713 -0.2104  1.7229 -0.9753
18741TIP3   OH277713   1.684   5.688   6.402  0.1453  0.4161 -0.0827
18741TIP3    H177714   1.742   5.727   6.467 -0.5319  1.8594 -0.3136
18741TIP3    H277715   1.616   5.753   6.388 -2.1788 -1.6442  0.9593
18742TIP3   OH277716   1.635   5.705  12.550  0.3723  0.5279 -0.2853
18742TIP3    H177717   1.611   5.732  12.461  1.0086 -0.2614 -0.7154
18742TIP3    H277718   1.700   5.636  12.537 -0.2341 -0.2776  0.7775
18743TIP3   OH277719   4.567   5.089  12.887 -0.1238 -0.4392 -0.2774
18743TIP3    H177720   4.554   5.165  12.830 -6.4605 -0.1155  0.8483
18743TIP3    H277721   4.520   5.018  12.843  1.3816 -2.3832  1.0703
18744TIP3   OH277722   3.653   2.520   1.293  0.3157  0.1373 -0.0332
18744TIP3    H177723   3.745   2.511   1.315  0.5368 -1.8679 -1.5490
18744TIP3    H277724   3.607   2.508   1.377  1.3876  0.2980  0.5903
18745TIP3   OH277725   5.286   5.974   5.285 -0.3011 -0.0540 -0.1893
18745TIP3    H177726   5.253   6.008   5.367 -0.7241  1.4753 -0.9581
18745TIP3    H277727   5.374   6.011   5.277 -1.3084  2.2216 -1.7311
18746TIP3   OH277728   1.938   4.407   6.060  0.5742  0.0242  0.0407
18746TIP3    H177729   1.956   4.447   5.976 -0.2439  1.7175  0.6372
18746TIP3    H277730   1.930   4.480   6.121 -2.4539 -0.8508  0.9093
18747TIP3   OH277731   4.694   0.109   5.871 -0.3228 -0.1977  0.0290
18747TIP3    H177732   4.681   0.190   5.920 -2.1949 -0.6834  0.4421
18747TIP3    H277733   4.769   0.067   5.912 -0.8902  0.1591  1.4743
18748TIP3   OH277734   4.662   1.603   2.764 -0.4879  0.3192 -0.3058
18748TIP3    H177735   4.654   1.569   2.854  0.5984  1.2125  0.1515
18748TIP3    H277736   4.622   1.536   2.710 -0.3114 -0.6940  0.7712
18749TIP3   OH277737   2.082   0.888   3.938  0.3381  0.5921  0.7091
18749TIP3    H177738   2.113   0.798   3.924 -1.5295 -0.2696  1.6848
18749TIP3    H277739   2.028   0.906   3.861 -0.3820  0.3520  1.1537
18750TIP3   OH277740   4.448   2.403  14.006  0.0439 -0.2408 -0.3020
18750TIP3    H177741   4.522   2.347  13.982  0.7064 -0.2652  1.5736
18750TIP3    H277742   4.480   2.492  13.994  0.2480 -0.2544  0.1272
18751TIP3   OH277743   2.269   0.598  12.988 -0.1020  0.1003  0.0799
18751TIP3    H177744   2.266   0.524  13.049 -0.2698 -1.0430 -1.2701
18751TIP3    H277745   2.194   0.652  13.012 -0.4996 -0.6269  0.5123
18752TIP3   OH277746   6.282   3.311   4.447 -0.2971 -0.2682  0.1330
18752TIP3    H177747   6.214   3.260   4.491  1.2359 -1.3243  1.4034
18752TIP3    H277748   6.356   3.251   4.442  1.2729  1.5225  0.7795
18753TIP3   OH277749   3.571   1.612  14.467  0.2305 -0.4605 -0.1036
18753TIP3    H177750   3.485   1.573  14.449  1.5331 -2.0575 -3.7977
18753TIP3    H277751   3.620   1.542  14.511 -0.3085  0.5297  2.2228
18754TIP3   OH277752   5.812   5.697  11.641 -0.5821 -0.7293  0.1259
18754TIP3    H177753   5.733   5.664  11.598 -0.0800 -0.6340 -0.8979
18754TIP3    H277754   5.875   5.625  11.634 -0.1690 -0.3388 -0.2112
18755TIP3   OH277755   6.294   3.666   2.368 -0.4696  0.2011  0.2086
18755TIP3    H177756   6.276   3.708   2.284  0.3914 -0.2058 -0.2012
18755TIP3    H277757   6.227   3.700   2.428 -1.0092  0.5998 -0.6063
18756TIP3   OH277758   1.863   1.758  15.249 -0.0788  0.5383 -0.6852
18756TIP3    H177759   1.771   1.771  15.274  0.1325 -0.5247  0.7354
18756TIP3    H277760   1.859   1.731  15.157 -1.3294 -0.9837 -0.2277
18757TIP3   OH277761   4.634   3.141  11.781 -0.1706  0.2137 -0.3863
18757TIP3    H177762   4.716   3.158  11.828 -0.2944  0.0803 -0.1224
18757TIP3    H277763   4.616   3.222  11.733 -0.2060  0.4576  0.0389
18758TIP3   OH277764   6.012   4.169  14.111  0.0031 -0.4895 -0.0447
18758TIP3    H177765   6.029   4.109  14.182  1.7139 -0.6805 -0.5771
18758TIP3    H277766   6.050   4.127  14.034 -0.6675  0.2992 -0.8342
18759TIP3   OH277767   2.503   1.793  17.171  0.0369 -0.5456  0.1385
18759TIP3    H177768   2.426   1.819  17.222 -0.0283 -0.3584 -0.0525
18759TIP3    H277769   2.467   1.744  17.097  0.0141  0.4782 -0.5453
18760TIP3   OH277770   6.271   5.940   1.094  1.1982 -0.5285 -0.2984
18760TIP3    H177771   6.296   5.848   1.087  0.8089 -0.5545 -1.5751
18760TIP3    H277772   6.197   5.940   1.156  1.0814 -1.1032 -0.4335
18761TIP3   OH277773   5.932   2.293   1.339  0.2341 -0.1817 -0.0405
18761TIP3    H177774   6.003   2.356   1.348  0.4879 -0.3738 -0.6837
18761TIP3    H277775   5.873   2.314   1.412  0.7184  0.2689  0.2303
18762TIP3   OH277776   5.232   1.675   0.316 -0.1979 -0.0015 -0.0844
18762TIP3    H177777   5.272   1.687   0.402 -0.6676  0.2746  0.0998
18762TIP3    H277778   5.290   1.614   0.271 -0.2713 -0.6139  0.6449
18763TIP3   OH277779   2.767   4.152   0.143  0.0875 -0.0950  0.6863
18763TIP3    H177780   2.787   4.113   0.228  1.7963 -2.8863 -0.8190
18763TIP3    H277781   2.672   4.149   0.136  0.0103 -1.2465  1.8907
18764TIP3   OH277782   4.512   4.691   1.069  0.4511 -0.4173 -0.2738
18764TIP3    H177783   4.488   4.729   0.984 -0.7066 -1.1196 -0.2785
18764TIP3    H277784   4.431   4.652   1.101  1.1756 -1.2365  0.5941
18765TIP3   OH277785   6.325   6.464   2.204 -0.7564  0.1872  0.0541
18765TIP3    H177786   6.377   6.405   2.258  0.8396  1.0870 -0.4273
18765TIP3    H277787   6.384   6.490   2.133 -1.2997  2.5442  0.3810
18766TIP3   OH277788   3.631   6.367  12.914  0.7383 -0.0717 -0.0240
18766TIP3    H177789   3.674   6.294  12.868  1.7581  0.5950 -0.1552
18766TIP3    H277790   3.551   6.382  12.863  1.8516  0.6685 -1.6717
18767TIP3   OH277791   3.579   4.007  15.343 -0.3544 -0.6380 -0.1770
18767TIP3    H177792   3.595   4.075  15.408  0.7307  0.2457 -1.3078
18767TIP3    H277793   3.489   4.023  15.313 -0.3464 -0.1511  0.0536
18768TIP3   OH277794   5.056   4.391  12.669  0.4033  0.1314  0.0665
18768TIP3    H177795   4.966   4.395  12.635  0.4688 -0.0152 -0.1291
18768TIP3    H277796   5.048   4.343  12.752 -0.0944  2.4768  1.4484
18769TIP3   OH277797   0.776   2.404   2.692 -0.2959 -0.3976 -0.1385
18769TIP3    H177798   0.727   2.330   2.656 -2.0196 -0.2664  1.7664
18769TIP3    H277799   0.813   2.371   2.774 -0.3167  0.5542  0.2725
18770TIP3   OH277800   1.370   4.221  14.921  0.5078  0.1487 -0.4629
18770TIP3    H177801   1.384   4.220  14.827 -2.5276 -1.5188 -1.0317
18770TIP3    H277802   1.342   4.132  14.942  3.1518 -0.1644  2.4665
18771TIP3   OH277803   0.601   1.675  16.239  0.1328  0.0413 -0.6244
18771TIP3    H177804   0.509   1.674  16.266  0.3275  0.3478  0.0629
18771TIP3    H277805   0.626   1.767  16.245 -0.0630  0.2891 -2.7433
18772TIP3   OH277806   2.318   3.213   0.626  0.3365  0.1690  0.0357
18772TIP3    H177807   2.349   3.285   0.571  0.4531  1.8604  2.1915
18772TIP3    H277808   2.242   3.248   0.672 -0.5179 -1.6054  0.0686
18773TIP3   OH277809   3.425   3.790   2.016  0.2274  0.0159 -0.1068
18773TIP3    H177810   3.399   3.749   2.098 -0.9216 -0.5682 -0.7349
18773TIP3    H277811   3.438   3.882   2.038  0.4015 -0.2203  0.8160
18774TIP3   OH277812   0.892   4.883  13.005 -0.4567 -0.3025  0.5380
18774TIP3    H177813   0.922   4.823  12.937 -0.8452  0.7795 -0.6287
18774TIP3    H277814   0.940   4.964  12.989 -0.2810 -0.1365  1.7998
18775TIP3   OH277815   4.179   3.627   2.631 -0.3577  0.1781  0.7445
18775TIP3    H177816   4.254   3.671   2.592 -2.5423  0.4105 -3.9259
18775TIP3    H277817   4.200   3.534   2.627 -0.5535  0.1745 -1.4545
18776TIP3   OH277818   1.479   3.427   2.454  0.6084 -0.6374 -0.0675
18776TIP3    H177819   1.496   3.474   2.536  0.4963 -0.6960 -0.0116
18776TIP3    H277820   1.412   3.363   2.476 -0.6153  0.4248 -0.5717
18777TIP3   OH277821   5.433   1.092   1.101  0.1971 -0.4039  0.1327
18777TIP3    H177822   5.438   0.998   1.086 -1.5481 -0.1388 -2.8110
18777TIP3    H277823   5.523   1.123   1.086  0.2284 -1.3038 -1.8640
18778TIP3   OH277824   5.461   3.111  11.166  0.3425  0.3501 -0.0222
18778TIP3    H177825   5.506   3.156  11.238 -2.0937  0.2632  1.6609
18778TIP3    H277826   5.530   3.060  11.123  2.3087  2.1449  0.8122
18779TIP3   OH277827   4.932   6.105   3.158  0.2356  0.2929  0.3157
18779TIP3    H177828   4.964   6.122   3.070  0.1097  0.1256  0.2378
18779TIP3    H277829   5.011   6.081   3.208  0.1368 -0.8508 -0.0516
18780TIP3   OH277830   2.797   2.455   2.251  0.0823 -0.0895  0.1090
18780TIP3    H177831   2.757   2.526   2.300 -1.3828 -0.6814 -0.1975
18780TIP3    H277832   2.818   2.388   2.317 -0.3510 -0.1914  0.1432
18781TIP3   OH277833   1.007   6.081   3.240  0.0935  0.0111 -0.2302
18781TIP3    H177834   0.933   6.043   3.192 -0.5030  0.9239 -0.0632
18781TIP3    H277835   0.994   6.176   3.232  1.1613  0.1809 -0.0526
18782TIP3   OH277836   4.674   2.044   2.059 -0.0454 -0.2506  0.3724
18782TIP3    H177837   4.676   2.004   2.146  0.4491  0.6845  0.8006
18782TIP3    H277838   4.583   2.073   2.049 -0.2533 -0.9033  0.3198
18783TIP3   OH277839   5.632   6.408  12.915  0.6240 -0.3356  0.0428
18783TIP3    H177840   5.670   6.496  12.916 -0.4621  0.1449  1.8468
18783TIP3    H277841   5.568   6.411  12.844  1.3523 -0.0307 -0.6210
18784TIP3   OH277842   3.781   0.898  15.809  0.0757 -0.1887  0.5972
18784TIP3    H177843   3.803   0.980  15.764  0.6302 -1.1436 -0.9464
18784TIP3    H277844   3.815   0.911  15.898 -0.4377  1.4949  0.5915
18785TIP3   OH277845   2.361   5.286  15.991  0.3088 -0.1424  0.7290
18785TIP3    H177846   2.273   5.249  15.987  0.8817 -1.6128  1.4516
18785TIP3    H277847   2.363   5.349  15.918 -0.9666 -0.8935  0.0135
18786TIP3   OH277848   5.798   1.487  16.847  0.6941 -0.6486  0.2327
18786TIP3    H177849   5.774   1.468  16.756 -3.4426  3.1287  0.2166
18786TIP3    H277850   5.756   1.419  16.899 -0.8435 -0.2977 -0.5068
18787TIP3   OH277851   1.602   4.088   1.851 -0.4980  0.1355  0.2835
18787TIP3    H177852   1.559   4.144   1.787  0.0678 -0.4414 -0.6263
18787TIP3    H277853   1.695   4.111   1.845 -0.4752  0.3271  1.1674
18788TIP3   OH277854   5.903   4.461  16.882 -0.4318 -0.5081 -0.4996
18788TIP3    H177855   5.873   4.495  16.797 -1.6651 -0.3291 -0.0195
18788TIP3    H277856   5.883   4.368  16.878 -2.0617 -0.2241  0.1961
18789TIP3   OH277857   1.149   3.681   5.789 -0.0284  0.1852  0.1138
18789TIP3    H177858   1.120   3.756   5.841 -0.2642  1.0282 -1.2028
18789TIP3    H277859   1.244   3.680   5.800 -0.1464 -0.2747  1.3504
18790TIP3   OH277860   3.335   4.722  14.503  0.5950  0.6030 -0.0908
18790TIP3    H177861   3.245   4.711  14.472  0.6941  0.3484 -0.2868
18790TIP3    H277862   3.377   4.637  14.486  0.9892  0.8546 -0.3876
18791TIP3   OH277863   3.336   2.046  15.783  0.4540  1.0764 -0.3821
18791TIP3    H177864   3.312   2.032  15.874 -0.5221  3.2122 -0.2399
18791TIP3    H277865   3.428   2.023  15.778 -0.2021 -2.0707  0.3650
18792TIP3   OH277866   4.546   2.083   5.689  0.1164 -0.4364  0.4958
18792TIP3    H177867   4.607   2.149   5.723 -0.3888 -0.3403  1.2435
18792TIP3    H277868   4.517   2.119   5.605  3.0446 -1.6987 -1.1855
18793TIP3   OH277869   1.978   2.030   3.701  0.2164 -0.2354  0.5039
18793TIP3    H177870   2.023   1.956   3.742  1.2710  0.7656  1.2151
18793TIP3    H277871   1.992   2.018   3.607  1.8467 -0.0522  0.6930
18794TIP3   OH277872   6.158   3.751   4.467 -0.2854 -0.0253  0.0753
18794TIP3    H177873   6.194   3.789   4.386 -0.8203 -1.0029 -0.6430
18794TIP3    H277874   6.219   3.777   4.535  0.2234  0.7557 -0.6588
18795TIP3   OH277875   1.191   6.524   4.574  0.1432 -0.9518 -0.5562
18795TIP3    H177876   1.127   6.457   4.550 -0.3306 -1.2629  1.3872
18795TIP3    H277877   1.260   6.476   4.620 -0.3164 -0.1308  1.0789
18796TIP3   OH277878   5.071   3.816  12.930  0.2600  0.5884 -0.1443
18796TIP3    H177879   5.023   3.743  12.970  0.0159  0.3897 -0.7969
18796TIP3    H277880   5.124   3.775  12.862 -0.9006  1.1804 -1.4370
18797TIP3   OH277881   5.165   1.953   6.207 -0.4510  0.0490  0.6888
18797TIP3    H177882   5.086   1.948   6.262 -0.2522  0.4066  1.0133
18797TIP3    H277883   5.229   1.999   6.262 -0.3385  0.6770  0.0516
18798TIP3   OH277884   0.105   1.649  10.679  0.4503 -0.6143 -0.6142
18798TIP3    H177885   0.172   1.718  10.680  0.9883 -1.1061  1.2204
18798TIP3    H277886   0.028   1.689  10.719  0.2818 -0.6682 -0.8754
18799TIP3   OH277887   5.070   4.891  15.851  0.7566 -0.8282  0.0465
18799TIP3    H177888   5.021   4.830  15.907  2.1798 -0.3979  1.8375
18799TIP3    H277889   5.162   4.877  15.874  1.1445  2.1243  0.7679
18800TIP3   OH277890   1.896   2.493  13.442 -0.0032 -0.1657 -0.6699
18800TIP3    H177891   1.920   2.401  13.451  1.8086  0.4937  4.3922
18800TIP3    H277892   1.980   2.538  13.430 -0.7256  0.9942 -1.6349
18801TIP3   OH277893   2.145   0.656  14.672 -0.2690  0.5519 -0.1227
18801TIP3    H177894   2.090   0.591  14.716 -0.4085 -0.6870 -1.9771
18801TIP3    H277895   2.171   0.613  14.590  0.4624  2.4877 -0.9651
18802TIP3   OH277896   0.649   1.904   4.026 -0.3160 -0.4002 -0.4044
18802TIP3    H177897   0.695   1.977   3.988 -2.0616  1.5623  0.9997
18802TIP3    H277898   0.598   1.866   3.954  3.0183 -2.4558 -1.9138
18803TIP3   OH277899   6.817   5.281  14.561 -0.1638 -0.3453 -0.1280
18803TIP3    H177900   6.823   5.186  14.567  0.2413 -0.3689 -0.8414
18803TIP3    H277901   6.725   5.300  14.583 -0.8810 -1.0994 -2.1865
18804TIP3   OH277902   0.094   3.960  14.479  0.2267  1.2500  0.1094
18804TIP3    H177903   0.042   3.884  14.455 -1.3241  2.1044  0.6459
18804TIP3    H277904   0.185   3.928  14.478 -0.3499 -0.4890 -0.0184
18805TIP3   OH277905   1.903   4.934  10.927  0.0927 -0.2533 -0.1891
18805TIP3    H177906   1.930   5.023  10.949  0.7528 -0.6101  0.5062
18805TIP3    H277907   1.951   4.913  10.847 -0.8934  0.3855 -0.9786
18806TIP3   OH277908   5.537   1.567   0.059 -0.5794  0.0327 -0.3013
18806TIP3    H177909   5.607   1.604   0.113 -1.3593  0.0433  0.7149
18806TIP3    H277910   5.468   1.544   0.120 -1.0967 -0.8743 -1.1880
18807TIP3   OH277911   1.330   5.535  15.316  0.0527 -0.1033  0.2396
18807TIP3    H177912   1.236   5.553  15.313 -0.0678 -0.6795  0.4199
18807TIP3    H277913   1.346   5.508  15.406  0.6675  1.3643  0.6040
18808TIP3   OH277914   2.839   3.461  16.839 -0.1407 -0.1200 -0.0499
18808TIP3    H177915   2.826   3.508  16.921 -0.8520 -0.5277  0.0850
18808TIP3    H277916   2.754   3.467  16.794  0.3426  0.3840 -0.9087
18809TIP3   OH277917   6.235   4.748  12.661  0.1131  0.6386 -0.2940
18809TIP3    H177918   6.258   4.839  12.645 -0.8330  1.4593  2.4576
18809TIP3    H277919   6.146   4.752  12.695  0.7277 -1.0812  1.6995
18810TIP3   OH277920   2.513   5.837   3.599 -0.2830 -0.2262  0.1897
18810TIP3    H177921   2.511   5.844   3.503 -1.1255  1.8320  0.3062
18810TIP3    H277922   2.451   5.767   3.619 -0.7235 -0.1263 -0.7503
18811TIP3   OH277923   2.969   3.306   5.636 -0.0631 -0.1497  0.1264
18811TIP3    H177924   2.910   3.242   5.596 -0.6453  1.5901 -2.0141
18811TIP3    H277925   3.055   3.265   5.635 -0.4944 -1.0660 -0.7989
18812TIP3   OH277926   4.003   0.654  11.926 -0.4191 -0.4608  0.2750
18812TIP3    H177927   4.076   0.712  11.949  0.7666 -2.5148  2.0897
18812TIP3    H277928   3.926   0.710  11.928  0.8443  1.3763  0.2524
18813TIP3   OH277929   2.736   3.086  13.327  0.3414 -0.0793  0.0233
18813TIP3    H177930   2.800   3.140  13.374  0.8700  1.6199 -2.4511
18813TIP3    H277931   2.789   3.027  13.273 -0.1742 -0.0521 -0.5291
18814TIP3   OH277932   1.248   1.028  12.904 -0.1262 -0.4513  0.1217
18814TIP3    H177933   1.235   0.942  12.864 -0.3842 -0.2192 -0.3044
18814TIP3    H277934   1.250   1.010  12.998 -1.8979 -0.7288  0.1423
18815TIP3   OH277935   1.718   2.098   2.942 -0.2395 -0.0001 -0.9373
18815TIP3    H177936   1.793   2.042   2.921 -0.4749 -0.7552  0.1598
18815TIP3    H277937   1.654   2.038   2.980 -1.0729  0.7837 -1.0931
18816TIP3   OH277938   3.688   0.515   3.887  0.0726  0.6415  0.3207
18816TIP3    H177939   3.726   0.431   3.916 -0.0476 -0.1145 -1.5517
18816TIP3    H277940   3.764   0.573   3.878  0.2999  0.3766  0.5022
18817TIP3   OH277941   0.059   5.437   6.119 -0.7535  0.1529 -0.0754
18817TIP3    H177942   0.090   5.456   6.031  0.6042 -1.0855  0.0862
18817TIP3    H277943   0.054   5.342   6.122 -2.5437  0.2445  0.6340
18818TIP3   OH277944   0.655   4.003  11.161  0.0141  0.3989 -0.5317
18818TIP3    H177945   0.597   3.931  11.183 -0.9806  0.8892 -1.4539
18818TIP3    H277946   0.604   4.058  11.102  0.7599  1.8336  0.1008
18819TIP3   OH277947   1.491   3.647  11.917 -0.0281 -0.5711  0.2562
18819TIP3    H177948   1.544   3.695  11.853  0.4254 -0.8023  0.4499
18819TIP3    H277949   1.407   3.633  11.873 -0.5051  1.1989  0.5483
18820TIP3   OH277950   0.558   0.034   4.741  0.0346  0.1851 -0.4232
18820TIP3    H177951   0.580   0.055   4.832  3.9242  1.9489 -1.5726
18820TIP3    H277952   0.521   0.114   4.706  4.2030  1.7824 -1.7835
18821TIP3   OH277953   3.017   6.400   4.961  0.6485 -0.0796 -0.0684
18821TIP3    H177954   2.951   6.379   4.895  0.6271  0.9556 -0.3911
18821TIP3    H277955   3.038   6.316   5.001  2.5658 -1.2368 -3.1318
18822TIP3   OH277956   5.468   3.506   4.242 -0.9745  0.2824  0.4674
18822TIP3    H177957   5.394   3.544   4.290 -0.7423  2.7070 -0.9353
18822TIP3    H277958   5.545   3.545   4.283 -0.5917 -0.4988  0.4899
18823TIP3   OH277959   4.197   1.948   5.738  0.5562  0.2545  0.4058
18823TIP3    H177960   4.164   1.970   5.650  1.0585 -0.5507  0.0026
18823TIP3    H277961   4.131   1.890   5.775  0.6124  0.1469  0.3382
18824TIP3   OH277962   4.131   5.120   2.663 -0.3426  0.4469 -0.6285
18824TIP3    H177963   4.167   5.149   2.747  1.0849 -2.2094 -0.1997
18824TIP3    H277964   4.169   5.179   2.598  1.4868  0.3396  0.2739
18825TIP3   OH277965   3.799   3.298  16.968 -0.1155 -0.3367  0.5243
18825TIP3    H177966   3.879   3.344  16.942 -1.0521  1.4258  0.6004
18825TIP3    H277967   3.728   3.356  16.938 -1.3386 -1.3157  1.4509
18826TIP3   OH277968   5.040   2.604  10.781 -0.0740  0.1688  0.0850
18826TIP3    H177969   4.983   2.676  10.808  0.3364 -0.0608  1.6482
18826TIP3    H277970   5.108   2.645  10.728 -1.0028  0.6129 -0.7884
18827TIP3   OH277971   0.591   5.210  14.383 -0.0214 -0.2107  0.1587
18827TIP3    H177972   0.647   5.280  14.416  0.9468 -1.0911  0.4246
18827TIP3    H277973   0.573   5.156  14.460  0.8238 -1.3124 -0.3889
18828TIP3   OH277974   4.826   0.360   0.281  0.2679 -0.3820 -0.3290
18828TIP3    H177975   4.819   0.407   0.198 -1.0494  0.8693  0.4447
18828TIP3    H277976   4.797   0.271   0.261  0.8780 -0.3567 -1.3939
18829TIP3   OH277977   2.965   4.526   2.594  0.4639 -0.1568 -0.4644
18829TIP3    H177978   2.918   4.442   2.587  1.8285 -1.0030  0.2489
18829TIP3    H277979   2.977   4.553   2.503 -0.8484 -0.2274 -0.6792
18830TIP3   OH277980   3.025   1.506   2.965  0.3191  0.3295 -0.2571
18830TIP3    H177981   3.081   1.492   3.042 -1.1900  1.9584  1.2247
18830TIP3    H277982   3.086   1.528   2.895  1.6566  0.1903  0.8153
18831TIP3   OH277983   0.369   5.112  16.259  0.3419 -0.2426 -0.2126
18831TIP3    H177984   0.274   5.107  16.273  0.4715 -0.5791  0.6158
18831TIP3    H277985   0.399   5.022  16.269  0.8965  0.0293  0.6809
18832TIP3   OH277986   2.128   3.323  11.368  0.0044  0.0638 -0.4836
18832TIP3    H177987   2.116   3.320  11.463  1.4149  0.5698 -0.2580
18832TIP3    H277988   2.185   3.248  11.349  3.3149  2.3102 -0.2623
18833TIP3   OH277989   3.352   2.767  14.394 -0.2317  0.5183  0.3269
18833TIP3    H177990   3.258   2.780  14.399 -0.3970 -0.6399  0.6143
18833TIP3    H277991   3.371   2.704  14.464  0.4981 -0.4799 -0.7298
18834TIP3   OH277992   5.903   0.894  13.128  0.0150 -0.2642 -0.4478
18834TIP3    H177993   5.930   0.985  13.129 -1.0748  0.0766 -0.6641
18834TIP3    H277994   5.934   0.858  13.211  0.8363  0.1735 -0.5585
18835TIP3   OH277995   6.619   4.119  13.914  0.3785  0.3968 -0.8126
18835TIP3    H177996   6.674   4.157  13.846  0.9427 -1.1406 -1.2515
18835TIP3    H277997   6.640   4.026  13.913 -1.3765 -0.0453 -0.1896
18836TIP3   OH277998   6.194   2.250  13.405 -0.6029 -0.2413 -0.1771
18836TIP3    H177999   6.165   2.262  13.314  2.0290  1.1725 -0.9393
18836TIP3    H278000   6.264   2.186  13.398  1.4843  1.8465  0.3488
18837TIP3   OH278001   1.289   1.613  14.069  0.0957 -0.1881  0.3217
18837TIP3    H178002   1.326   1.695  14.102 -0.4651  0.1228  0.1815
18837TIP3    H278003   1.288   1.624  13.974 -1.3396  0.2356  0.3744
18838TIP3   OH278004   3.753   6.159  13.718 -0.1561 -0.0633 -1.2677
18838TIP3    H178005   3.763   6.254  13.711  0.2143 -0.0391 -0.5483
18838TIP3    H278006   3.735   6.130  13.629 -2.4023  0.9213 -1.1931
18839TIP3   OH278007   2.425   2.265  16.411  0.0041 -0.5910 -0.3907
18839TIP3    H178008   2.365   2.331  16.446  0.7765 -0.0539 -0.0552
18839TIP3    H278009   2.369   2.206  16.362 -0.6158  0.7548 -1.3688
18840TIP3   OH278010   4.404   3.140  13.384  0.8564  0.8178  0.5041
18840TIP3    H178011   4.441   3.223  13.354  0.8611  0.0574 -1.7437
18840TIP3    H278012   4.316   3.138  13.348  0.9663 -0.2774  0.2597
18841TIP3   OH278013   0.052   4.638  11.269  0.0291 -0.0612 -0.4570
18841TIP3    H178014   0.096   4.598  11.194  1.5112  2.1251 -0.8206
18841TIP3    H278015  -0.041   4.622  11.253  0.2812  0.4969 -2.8859
18842TIP3   OH278016   3.472   3.936   2.622 -0.2163  0.1461 -1.1796
18842TIP3    H178017   3.567   3.925   2.626 -0.2062  0.4775  1.1009
18842TIP3    H278018   3.438   3.857   2.665 -0.8071  1.1880  0.3667
18843TIP3   OH278019   5.505   3.676   6.168  0.6218 -0.1550  0.1572
18843TIP3    H178020   5.522   3.716   6.253  0.3276  1.4689 -0.5178
18843TIP3    H278021   5.426   3.625   6.181 -0.6719  1.7894  0.3738
18844TIP3   OH278022   0.579   1.643  12.285 -0.8662 -0.3989  0.1128
18844TIP3    H178023   0.573   1.736  12.267  1.7808 -0.6392 -2.9744
18844TIP3    H278024   0.609   1.638  12.375 -0.5275  1.7684  0.1758
18845TIP3   OH278025   1.781   4.002  12.161  0.1129  0.0737  0.3430
18845TIP3    H178026   1.778   3.926  12.104  0.0318  0.3218  0.0105
18845TIP3    H278027   1.869   4.039  12.149  0.6207 -0.7115  1.4984
18846TIP3   OH278028   0.917   3.654  12.375  0.4249 -0.2857  0.7705
18846TIP3    H178029   0.861   3.651  12.453  0.1257 -0.0643  0.5676
18846TIP3    H278030   0.937   3.747  12.364  1.2707 -0.4173  1.1470
18847TIP3   OH278031   2.745   2.227  15.759  0.4060  0.1710 -0.1603
18847TIP3    H178032   2.816   2.290  15.744 -0.0144  0.1012 -2.9996
18847TIP3    H278033   2.674   2.280  15.796  1.4992  0.4709  1.5835
18848TIP3   OH278034   2.748   2.687   4.973 -0.1113  0.6380 -0.2910
18848TIP3    H178035   2.680   2.679   4.907 -1.7298 -0.1638  1.3907
18848TIP3    H278036   2.722   2.627   5.043  1.6645  1.2364  0.9826
18849TIP3   OH278037   2.516   0.746   5.650 -0.0573 -0.0396 -0.0422
18849TIP3    H178038   2.553   0.736   5.562  1.1589  0.9933  0.3312
18849TIP3    H278039   2.538   0.665   5.695  0.4266 -0.0486 -0.2971
18850TIP3   OH278040   1.409   0.723   5.782 -0.3894  0.3815  0.3592
18850TIP3    H178041   1.481   0.779   5.813  0.5547 -1.6139  1.9984
18850TIP3    H278042   1.429   0.708   5.690  1.9391 -0.9283  1.0016
18851TIP3   OH278043   4.664   4.173  16.803 -0.2760 -0.4294 -0.1026
18851TIP3    H178044   4.663   4.269  16.802 -0.2066 -0.4104 -1.8819
18851TIP3    H278045   4.580   4.148  16.841  0.1380  0.3155  1.3541
18852TIP3   OH278046   0.159   0.314   0.688 -0.4540 -0.0023  0.0540
18852TIP3    H178047   0.175   0.348   0.600  0.5210 -0.0131  0.2163
18852TIP3    H278048   0.241   0.328   0.735 -0.8436 -0.3262  0.8591
18853TIP3   OH278049   4.625   5.737   3.936 -0.5608  0.1158 -0.1361
18853TIP3    H178050   4.651   5.827   3.916  2.3196 -0.0374  2.0952
18853TIP3    H278051   4.563   5.746   4.008 -0.6987  0.3333 -0.2811
18854TIP3   OH278052   4.596   4.246  14.868  0.3299  0.1230  0.6086
18854TIP3    H178053   4.585   4.315  14.934 -2.9821  0.2416  0.1008
18854TIP3    H278054   4.593   4.291  14.784 -0.9625 -0.4805  0.2975
18855TIP3   OH278055   5.079   1.717   3.913  0.1057 -0.1298 -0.0808
18855TIP3    H178056   5.053   1.802   3.878 -1.7662  0.4427  2.3835
18855TIP3    H278057   5.058   1.654   3.844 -2.2624  1.0272 -0.5078
18856TIP3   OH278058   0.861   1.313   2.404  0.1688 -0.4254 -0.0348
18856TIP3    H178059   0.854   1.223   2.434 -0.2621 -0.3281  0.1735
18856TIP3    H278060   0.826   1.311   2.314 -0.2954 -0.3841  0.1397
18857TIP3   OH278061   2.863   2.391  11.886  0.3698  0.5577 -0.0817
18857TIP3    H178062   2.810   2.465  11.856  0.1607  0.2487 -0.4965
18857TIP3    H278063   2.911   2.424  11.961 -0.3536  0.8793  0.2551
18858TIP3   OH278064   5.555   4.615   1.933 -0.5858  0.6106  0.0261
18858TIP3    H178065   5.591   4.650   1.851  0.2385 -1.5278 -0.5906
18858TIP3    H278066   5.470   4.579   1.909 -0.7551  0.8008  0.3301
18859TIP3   OH278067   3.947   0.568   0.298 -0.2476 -0.5171  0.0003
18859TIP3    H178068   3.920   0.540   0.210  0.4942 -1.8294  0.1675
18859TIP3    H278069   3.925   0.495   0.355  0.2282 -0.0927  0.7486
18860TIP3   OH278070   3.795   2.965  14.074 -0.3322  0.0772  0.1246
18860TIP3    H178071   3.729   2.941  14.010 -1.9325 -1.3934  2.1755
18860TIP3    H278072   3.745   2.997  14.149  1.3603  0.2618  1.2387
18861TIP3   OH278073   2.402   4.232   4.412  0.7744  0.5740  0.0565
18861TIP3    H178074   2.475   4.179   4.381  0.2882  0.2006 -0.4526
18861TIP3    H278075   2.341   4.236   4.338  0.2118  0.7705  0.5212
18862TIP3   OH278076   6.624   1.854  17.062 -0.5736  0.0539 -0.6804
18862TIP3    H178077   6.610   1.768  17.101  0.2962  0.2827  0.1763
18862TIP3    H278078   6.551   1.907  17.096 -0.9232 -0.2500 -0.9481
18863TIP3   OH278079   1.190   1.549   4.329  0.1617 -0.3328 -0.2644
18863TIP3    H178080   1.280   1.571   4.350 -0.3083 -0.7476  2.5624
18863TIP3    H278081   1.186   1.454   4.339 -1.1866 -0.0561  2.6145
18864TIP3   OH278082   2.842   6.080  16.954  0.4538 -0.1254 -0.5262
18864TIP3    H178083   2.838   5.985  16.958 -0.4102 -0.0887 -0.2925
18864TIP3    H278084   2.751   6.109  16.968  0.3390  0.6643 -2.5204
18865TIP3   OH278085   3.830   3.129   4.696  0.0893  0.0940  0.2420
18865TIP3    H178086   3.893   3.201   4.700 -1.8795  1.8466  2.3511
18865TIP3    H278087   3.794   3.134   4.608  1.4990  0.2907 -0.3482
18866TIP3   OH278088   4.643   4.838   1.585 -0.6860  0.6925  0.4346
18866TIP3    H178089   4.599   4.862   1.503  1.6274  0.5087 -0.9482
18866TIP3    H278090   4.614   4.748   1.603 -0.2746  0.2693 -0.9034
18867TIP3   OH278091   1.938   3.245   1.202  1.0194  0.3819  0.3925
18867TIP3    H178092   2.011   3.302   1.228  0.0857  1.7544  0.1129
18867TIP3    H278093   1.897   3.220   1.285  0.0957  1.9733  0.4473
18868TIP3   OH278094   1.076   5.622   3.523 -0.4337  0.0155 -0.2367
18868TIP3    H178095   1.025   5.548   3.557  0.2706  0.0129  0.8898
18868TIP3    H278096   1.073   5.687   3.593 -1.6324  1.3763 -1.5005
18869TIP3   OH278097   6.113   4.927   0.886 -0.9916 -0.6826 -0.4515
18869TIP3    H178098   6.129   5.021   0.881  0.9831 -0.8247  1.5537
18869TIP3    H278099   6.080   4.903   0.800  0.5595  1.4932 -1.7460
18870TIP3   OH278100   0.318   1.264  15.576 -0.3402  0.2412 -0.4298
18870TIP3    H178101   0.303   1.250  15.670 -1.0977  1.3436 -0.3685
18870TIP3    H278102   0.372   1.190  15.549  0.7503  0.4344  1.0976
18871TIP3   OH278103   1.124   4.110  13.192  0.1912 -0.2500  0.0384
18871TIP3    H178104   1.216   4.100  13.217  0.0522 -0.9796  0.2861
18871TIP3    H278105   1.088   4.021  13.197  0.1328 -0.4746 -2.7058
18872TIP3   OH278106   2.320   3.429   6.619 -0.3263  0.2450  0.6471
18872TIP3    H178107   2.245   3.371   6.632  0.4867 -0.8338  0.6710
18872TIP3    H278108   2.284   3.517   6.625 -1.7168 -0.2496 -0.0729
18873TIP3   OH278109   0.165   4.763   5.545 -0.1199  0.3223 -0.0462
18873TIP3    H178110   0.084   4.811   5.524 -0.8763 -0.1609  1.5737
18873TIP3    H278111   0.184   4.711   5.467 -1.2355  0.6340 -0.5421
18874TIP3   OH278112   2.593   1.233  12.629  1.0436 -0.5143 -0.2434
18874TIP3    H178113   2.568   1.325  12.632  2.0625 -0.2512  0.9679
18874TIP3    H278114   2.526   1.188  12.681  1.9347 -0.0731  1.3641
18875TIP3   OH278115   0.577   0.600   4.799 -0.0360 -0.1126 -0.7071
18875TIP3    H178116   0.502   0.560   4.755  0.2114 -1.5229  0.0798
18875TIP3    H278117   0.546   0.616   4.889 -0.2696  1.9440 -1.0973
18876TIP3   OH278118   1.106   5.892  15.296  0.6995 -0.3832  0.0133
18876TIP3    H178119   1.110   5.850  15.210 -1.1735  1.5193 -1.0999
18876TIP3    H278120   1.040   5.841  15.344 -1.2047  0.8696 -1.1548
18877TIP3   OH278121   2.804   2.490  16.985 -0.6754  0.1313  0.3056
18877TIP3    H178122   2.720   2.522  17.017  0.0043 -0.5080  2.9793
18877TIP3    H278123   2.869   2.529  17.044  0.8065 -0.2820 -0.9827
18878TIP3   OH278124   2.692   6.658  11.611 -0.6318 -0.7482  0.7840
18878TIP3    H178125   2.631   6.614  11.551 -1.4545  0.5812  0.5988
18878TIP3    H278126   2.670   6.624  11.697 -0.4586 -1.5536  0.5251
18879TIP3   OH278127   4.122   4.540  14.860 -0.6535 -0.5185  0.0599
18879TIP3    H178128   4.090   4.450  14.851  0.3422 -1.0505  1.5728
18879TIP3    H278129   4.047   4.589  14.893 -0.9894 -0.9543 -0.0483
18880TIP3   OH278130   2.920   5.119  12.984 -0.3252 -0.2831  0.2218
18880TIP3    H178131   2.864   5.196  12.971 -0.4020 -0.5648 -1.2889
18880TIP3    H278132   2.873   5.049  12.940 -0.0702 -1.1371  1.2716
18881TIP3   OH278133   0.636   6.595   0.909 -0.6528  0.9755 -0.3277
18881TIP3    H178134   0.722   6.607   0.949 -0.2735  0.2034 -0.9031
18881TIP3    H278135   0.653   6.578   0.817 -1.4657  1.5889 -0.6046
18882TIP3   OH278136   5.885   6.283   3.899  0.5631 -0.9727 -0.1042
18882TIP3    H178137   5.918   6.202   3.861 -2.7697 -1.7474 -1.6543
18882TIP3    H278138   5.829   6.321   3.831 -1.6973  0.2045  2.2385
18883TIP3   OH278139   0.818   5.382  12.845 -0.5030  0.1918 -0.6177
18883TIP3    H178140   0.770   5.306  12.879 -1.5148  0.8391 -0.5590
18883TIP3    H278141   0.799   5.381  12.751 -1.7398  1.1957 -0.4034
18884TIP3   OH278142   2.132   4.632  16.813  0.0691  0.1052 -0.3879
18884TIP3    H178143   2.069   4.699  16.839  1.5814  0.9540  1.3741
18884TIP3    H278144   2.215   4.680  16.804  0.7559 -1.1944 -1.2718
18885TIP3   OH278145   0.368   6.283  17.229 -0.3266 -0.3633 -0.1544
18885TIP3    H178146   0.446   6.266  17.177 -0.7389 -1.1087 -0.5686
18885TIP3    H278147   0.380   6.231  17.308 -0.4803 -0.6388 -0.3085
18886TIP3   OH278148   3.937   3.123   1.196  0.0752 -0.4958  0.1857
18886TIP3    H178149   3.867   3.062   1.175 -3.3854  3.4484 -1.2191
18886TIP3    H278150   3.941   3.182   1.120  3.6609  0.6797  1.0746
18887TIP3   OH278151   5.450   0.643   3.953  0.2807  0.7182 -0.1538
18887TIP3    H178152   5.531   0.635   3.903  2.4323  0.8816  3.0451
18887TIP3    H278153   5.456   0.729   3.994 -0.3665 -0.1836  1.9561
18888TIP3   OH278154   0.739   5.508   0.471  0.6212 -0.2538  0.3282
18888TIP3    H178155   0.829   5.503   0.439  0.4840 -0.9825  0.0160
18888TIP3    H278156   0.733   5.591   0.517  1.4264 -0.1589  0.2615
18889TIP3   OH278157   5.986   4.415   2.022 -0.1871  0.1708 -0.4047
18889TIP3    H178158   5.924   4.391   1.954 -0.8872  1.2975 -0.2032
18889TIP3    H278159   6.071   4.390   1.988 -0.7566 -1.5346 -0.6310
18890TIP3   OH278160   3.594   6.072  11.874  0.5732  0.0464  0.1928
18890TIP3    H178161   3.521   6.014  11.854  0.6437 -0.3256  0.9671
18890TIP3    H278162   3.644   6.079  11.793  0.3361 -0.6570 -0.0102
18891TIP3   OH278163   6.353   1.228   4.172  0.4096  0.4692 -0.0622
18891TIP3    H178164   6.396   1.277   4.242  3.5734  0.3776 -1.7277
18891TIP3    H278165   6.354   1.137   4.203  1.1296  0.5254  0.1152
18892TIP3   OH278166   0.861   5.794   4.691  0.3399 -0.0612 -0.7183
18892TIP3    H178167   0.908   5.817   4.611 -0.6507  1.7974 -0.8239
18892TIP3    H278168   0.778   5.841   4.684 -0.4515 -1.1675  0.6675
18893TIP3   OH278169   4.992   1.530  14.967 -0.0109  0.1707  0.2440
18893TIP3    H178170   4.992   1.503  14.875 -2.8891 -0.2229  0.2851
18893TIP3    H278171   4.940   1.610  14.969 -1.9287 -1.0133  1.7573
18894TIP3   OH278172   6.428   1.892  14.711  0.6799  0.6383  0.0985
18894TIP3    H178173   6.377   1.923  14.786 -2.0114  0.3759 -1.4996
18894TIP3    H278174   6.515   1.931  14.724  0.1147  1.2053  2.9220
18895TIP3   OH278175   3.634   3.933  10.488  0.3754  0.5045 -0.4129
18895TIP3    H178176   3.583   3.859  10.518 -0.9898  1.2205 -0.8780
18895TIP3    H278177   3.720   3.897  10.467  0.5833 -0.4554  1.8516
18896TIP3   OH278178   5.151   4.717  15.662  0.0374 -0.6354  0.1569
18896TIP3    H178179   5.064   4.678  15.648 -0.1904 -1.8563  3.8484
18896TIP3    H278180   5.132   4.800  15.705  0.6547 -0.9489  1.0577
18897TIP3   OH278181   3.630   0.736  12.921 -0.4619  0.4084  0.1106
18897TIP3    H178182   3.565   0.680  12.879  0.7596 -0.6877 -0.3601
18897TIP3    H278183   3.622   0.717  13.015 -0.2648 -0.3423 -0.0206
18898TIP3   OH278184   6.229   4.339  14.081  0.5366 -0.0710  0.0401
18898TIP3    H178185   6.309   4.294  14.106  0.4062  0.7068  2.0408
18898TIP3    H278186   6.159   4.276  14.099  0.5492  0.0008  0.3456
18899TIP3   OH278187   1.476   0.580  16.995  0.2765  0.1797  0.3346
18899TIP3    H178188   1.485   0.497  17.043  0.0126  0.4078  0.7822
18899TIP3    H278189   1.382   0.591  16.983  0.1380  1.4437  2.1297
18900TIP3   OH278190   2.680   3.236   5.353 -0.8306 -0.2005 -0.4797
18900TIP3    H178191   2.601   3.237   5.407  0.1025  2.4536  1.0236
18900TIP3    H278192   2.704   3.328   5.344  2.9023 -0.9231  0.3696
18901TIP3   OH278193   3.636   5.007  12.908 -0.4360  1.0362  0.0414
18901TIP3    H178194   3.611   4.955  12.984  1.1224  1.4557  0.8697
18901TIP3    H278195   3.703   4.955  12.864  0.0327  1.6370  0.0273
18902TIP3   OH278196   4.378   1.124   5.090 -0.2332  0.0006 -0.2906
18902TIP3    H178197   4.458   1.080   5.063  0.3703  0.7858  0.1783
18902TIP3    H278198   4.338   1.064   5.153  0.8266  0.3069  0.7066
18903TIP3   OH278199   1.059   2.294   6.039  0.1026  0.3117  0.3153
18903TIP3    H178200   1.056   2.387   6.019  3.4394  0.8538  1.6316
18903TIP3    H278201   1.022   2.287   6.128  2.0797  0.8536  1.2310
18904TIP3   OH278202   6.191   6.819  11.045 -0.2763  0.2644  0.1893
18904TIP3    H178203   6.123   6.769  10.997 -0.6571  0.1748  0.8130
18904TIP3    H278204   6.273   6.789  11.007 -0.6182  1.3886 -1.5591
18905TIP3   OH278205   6.107   1.483   2.696  0.4554 -0.2253 -0.0982
18905TIP3    H178206   6.159   1.409   2.666  1.1471 -0.0943  0.7315
18905TIP3    H278207   6.047   1.502   2.624  2.1498  0.1709 -1.4667
18906TIP3   OH278208   1.724   5.675  11.885 -0.1126 -1.1171 -0.0071
18906TIP3    H178209   1.793   5.615  11.858  0.8652 -0.1196  0.2342
18906TIP3    H278210   1.740   5.755  11.836 -1.2932 -0.9652 -0.1840
18907TIP3   OH278211   6.383   0.279   1.876  0.4749  0.0770  0.1063
18907TIP3    H178212   6.456   0.340   1.886 -1.9415  2.9916  1.2314
18907TIP3    H278213   6.359   0.285   1.784 -0.6456  2.0693  0.4749
18908TIP3   OH278214   5.990   6.664  11.262  0.3188 -0.5151  0.2800
18908TIP3    H178215   6.079   6.650  11.230  0.5918  0.0128  0.7911
18908TIP3    H278216   5.936   6.607  11.207  1.1568 -2.1819  1.1122
18909TIP3   OH278217   1.922   4.227   3.977 -0.5235  0.4886  0.3249
18909TIP3    H178218   1.827   4.223   3.978 -0.5762  1.3838  1.4643
18909TIP3    H278219   1.942   4.310   3.931 -0.4404  2.0392  2.9661
18910TIP3   OH278220   6.087   4.731   0.011 -0.1309  0.5692  0.5721
18910TIP3    H178221   6.158   4.746   0.074  1.1214 -0.0027 -0.6552
18910TIP3    H278222   6.131   4.713  -0.071 -1.7273  0.4558 -0.3037
18911TIP3   OH278223   5.076   2.533  14.196  0.0842 -0.1957  0.0452
18911TIP3    H178224   5.171   2.523  14.189  0.0656  0.5906 -1.6405
18911TIP3    H278225   5.065   2.602  14.262  0.4697 -3.3500  3.7555
18912TIP3   OH278226   1.589   0.824  16.058  0.1580 -0.4815 -0.4533
18912TIP3    H178227   1.648   0.749  16.063  2.0486  0.9659  0.4203
18912TIP3    H278228   1.502   0.788  16.071  0.9856 -2.5425 -0.3149
18913TIP3   OH278229   6.205   3.949   4.837 -0.4539 -0.3071  0.2206
18913TIP3    H178230   6.200   4.041   4.864  0.6682 -0.4706  1.0510
18913TIP3    H278231   6.139   3.905   4.892 -0.3627 -0.1382  0.4678
18914TIP3   OH278232   2.923   5.942   3.092 -0.2173  0.0159  0.2620
18914TIP3    H178233   3.011   5.909   3.077 -0.1986  0.4794 -0.7137
18914TIP3    H278234   2.927   5.985   3.177 -0.0606 -1.8094  1.2381
18915TIP3   OH278235   0.937   1.402   3.741  0.2286 -0.2366  0.1333
18915TIP3    H178236   0.913   1.342   3.670  1.8492  0.5354 -1.1260
18915TIP3    H278237   1.022   1.437   3.715  0.9681 -0.0609  2.5682
18916TIP3   OH278238   1.131   6.009  16.357 -0.8460 -0.2325 -0.3037
18916TIP3    H178239   1.195   5.977  16.294 -2.4564 -0.5978 -1.8641
18916TIP3    H278240   1.168   6.090  16.392  0.3349 -0.3082 -1.3262
18917TIP3   OH278241   2.906   3.824  10.566  0.4066 -0.1993  0.1209
18917TIP3    H178242   2.901   3.737  10.527 -0.3615 -0.0753 -0.0817
18917TIP3    H278243   2.816   3.845  10.590  0.7235  0.1473  1.0473
18918TIP3   OH278244   6.381   5.811   6.083  0.6765 -0.1689  0.1319
18918TIP3    H178245   6.357   5.817   6.176  1.7916  0.2769  0.4023
18918TIP3    H278246   6.433   5.730   6.078 -0.0030 -0.5896 -0.2554
18919TIP3   OH278247   5.593   5.195  11.489  0.1997  0.6386 -0.1253
18919TIP3    H178248   5.680   5.205  11.451  0.3233  0.4521  0.1065
18919TIP3    H278249   5.534   5.196  11.413  0.3383  1.4498 -0.2338
18920TIP3   OH278250   0.680   3.704   3.679 -0.2225 -0.5397  0.3194
18920TIP3    H178251   0.771   3.705   3.709 -0.9636 -1.2971  2.8957
18920TIP3    H278252   0.646   3.789   3.705 -0.5626 -0.7339  0.5133
18921TIP3   OH278253   3.979   6.456   1.044  0.6407 -0.7607 -0.3210
18921TIP3    H178254   3.927   6.516   0.991 -0.1578  0.3465  1.6195
18921TIP3    H278255   4.027   6.403   0.980  1.3235  1.8437 -2.1233
18922TIP3   OH278256   5.539   1.049  12.903 -0.1761  0.3129  0.0504
18922TIP3    H178257   5.562   0.984  12.837 -1.0093  0.4890 -0.4346
18922TIP3    H278258   5.623   1.078  12.939  0.2022 -1.3757  0.6299
18923TIP3   OH278259   3.929   5.662  16.703 -0.3653  0.1445  0.1982
18923TIP3    H178260   3.879   5.583  16.684 -0.1218  0.3573 -1.4629
18923TIP3    H278261   4.001   5.661  16.641  1.2178  0.3214  1.9304
18924TIP3   OH278262   2.730   2.224  14.664  0.5055 -0.5198 -0.0963
18924TIP3    H178263   2.707   2.131  14.663  0.5397 -0.5451  0.7037
18924TIP3    H278264   2.773   2.239  14.580 -0.6139 -0.9364 -0.7673
18925TIP3   OH278265   0.016   0.308  13.938 -0.2965  0.1528  0.0730
18925TIP3    H178266  -0.053   0.344  13.993 -1.0716 -0.2620 -0.6176
18925TIP3    H278267   0.021   0.216  13.964  2.1156  0.7776  2.2968
18926TIP3   OH278268   0.286   4.176  16.189  0.3273 -0.8139  0.4036
18926TIP3    H178269   0.357   4.143  16.135  0.6896 -1.5054  1.2791
18926TIP3    H278270   0.320   4.256  16.229  0.5631 -1.0819  0.7323
18927TIP3   OH278271   5.144   3.188   5.759 -1.0260 -0.1650  0.3531
18927TIP3    H178272   5.171   3.273   5.724 -0.0338 -0.2558  0.8654
18927TIP3    H278273   5.226   3.139   5.768 -1.2787 -0.2774  2.4429
18928TIP3   OH278274   3.656   4.536  12.676 -0.1407  1.0699 -0.7016
18928TIP3    H178275   3.566   4.566  12.674 -0.3287  0.4768 -1.5227
18928TIP3    H278276   3.698   4.580  12.603  0.7813  2.9046  0.8300
18929TIP3   OH278277   3.678   0.178   0.688  0.2668 -0.2961  0.1749
18929TIP3    H178278   3.625   0.193   0.767 -0.2598  3.3130 -0.6803
18929TIP3    H278279   3.767   0.197   0.715  0.2708 -0.3781  0.2181
18930TIP3   OH278280   2.287   6.672   3.604 -0.1350  0.5974 -0.2381
18930TIP3    H178281   2.366   6.694   3.554 -0.8891 -1.1997 -2.3927
18930TIP3    H278282   2.314   6.600   3.661  0.3976  1.7989  1.1065
18931TIP3   OH278283   5.271   2.333   1.465  0.6313 -0.2907 -0.3779
18931TIP3    H178284   5.204   2.328   1.396  0.4542 -0.5930 -0.1850
18931TIP3    H278285   5.321   2.413   1.444 -0.9049  0.9566  0.4844
18932TIP3   OH278286   6.489   1.439  14.462  0.2331 -0.0501  0.5420
18932TIP3    H178287   6.450   1.483  14.538  1.4998 -0.9352  1.7632
18932TIP3    H278288   6.583   1.436  14.482  0.8181  0.8961 -1.7114
18933TIP3   OH278289   1.627   2.723   2.642  0.3542 -0.2951 -0.0159
18933TIP3    H178290   1.700   2.717   2.581  0.2416  1.8070 -0.4398
18933TIP3    H278291   1.669   2.732   2.728  0.6172  0.4964 -0.2133
18934TIP3   OH278292   2.307   0.843  11.610  0.1313 -0.5789  0.2982
18934TIP3    H178293   2.242   0.875  11.547  0.3127  1.0748  0.9134
18934TIP3    H278294   2.379   0.812  11.556 -0.5315 -1.0214 -0.3544
18935TIP3   OH278295   2.073   0.634  10.955 -0.1443 -0.0559  0.2484
18935TIP3    H178296   2.104   0.719  10.987 -0.5802 -0.0702  0.7173
18935TIP3    H278297   2.138   0.608  10.890  1.5003 -0.6297  2.0101
18936TIP3   OH278298   6.147   2.220  16.599  0.3773 -0.5810  0.4349
18936TIP3    H178299   6.210   2.202  16.669  0.4658  0.1888  0.5571
18936TIP3    H278300   6.119   2.310  16.615  0.2237 -0.4831 -0.3831
18937TIP3   OH278301   5.774   0.375  13.568 -0.1510 -0.0770 -0.1725
18937TIP3    H178302   5.679   0.363  13.575 -0.0191 -0.3077  1.5630
18937TIP3    H278303   5.796   0.434  13.640  1.0281  0.0135 -0.5891
18938TIP3   OH278304   5.713   3.772   5.240 -0.0072 -0.7171 -0.1059
18938TIP3    H178305   5.759   3.805   5.317  1.8722 -1.6322 -0.7723
18938TIP3    H278306   5.772   3.707   5.202 -1.9009 -2.0487 -0.9942
18939TIP3   OH278307   0.433   1.797  15.216  0.1870  0.2277 -0.2660
18939TIP3    H178308   0.529   1.794  15.214  0.1649 -0.6456 -0.3082
18939TIP3    H278309   0.412   1.889  15.231  1.0360  0.4048 -0.1398
18940TIP3   OH278310   2.401   6.114  12.293 -0.4134 -0.3701  0.8788
18940TIP3    H178311   2.439   6.201  12.304 -0.0227 -0.6557  1.9696
18940TIP3    H278312   2.450   6.075  12.220 -1.6567  0.8711 -0.6692
18941TIP3   OH278313   4.937   5.094   4.830  0.5568 -0.1757  0.0592
18941TIP3    H178314   4.890   5.078   4.748  1.6241 -2.8585 -0.1351
18941TIP3    H278315   5.008   5.153   4.806 -0.3423  0.7041 -0.4892
18942TIP3   OH278316   3.339   1.149  15.543  0.2376 -0.1417  0.3736
18942TIP3    H178317   3.405   1.169  15.610 -0.0128  3.9239 -0.3323
18942TIP3    H278318   3.256   1.146  15.591  0.4819 -1.5761  0.7527
18943TIP3   OH278319   2.065   2.974  14.556 -0.0359 -0.1909  0.3077
18943TIP3    H178320   2.141   2.971  14.498  0.0538  1.5809  0.2784
18943TIP3    H278321   1.990   2.965  14.497  0.0989 -2.7414  0.4129
18944TIP3   OH278322   6.164   6.312  15.312 -0.1719 -0.6344  0.1115
18944TIP3    H178323   6.118   6.228  15.309 -0.5342 -0.4067 -1.0880
18944TIP3    H278324   6.174   6.337  15.221  1.5362 -0.2333  0.3688
18945TIP3   OH278325   6.197   5.459   0.081 -0.6677 -0.0415  0.0263
18945TIP3    H178326   6.161   5.436   0.166  0.5282 -1.2652  0.2325
18945TIP3    H278327   6.275   5.404   0.072 -0.8521 -0.0499 -1.9219
18946TIP3   OH278328   4.050   5.892  17.155 -0.0387 -0.4277 -0.0815
18946TIP3    H178329   4.069   5.813  17.106 -0.9757 -0.2355 -0.7975
18946TIP3    H278330   4.082   5.875  17.243  0.0112 -1.4941 -0.2979
18947TIP3   OH278331   5.232   2.047   5.479 -0.0938 -0.2224  0.1634
18947TIP3    H178332   5.222   1.960   5.519 -0.9730 -0.4941 -0.6206
18947TIP3    H278333   5.234   2.107   5.553 -3.2718 -0.5491  0.6402
18948TIP3   OH278334   4.910   1.101   0.040  0.0248 -0.1397  0.2315
18948TIP3    H178335   4.863   1.032  -0.007 -1.5622  0.3262  1.0655
18948TIP3    H278336   4.844   1.142   0.096  0.7945  2.4035 -0.5814
18949TIP3   OH278337   3.972   6.242  12.807  0.0569 -0.4541 -0.1355
18949TIP3    H178338   3.975   6.336  12.793  0.5043 -0.3393  0.6955
18949TIP3    H278339   4.063   6.215  12.816 -0.0288 -0.0980  4.9514
18950TIP3   OH278340   3.118   0.062   3.402 -0.2061  0.4011 -0.4354
18950TIP3    H178341   3.174  -0.001   3.447  1.5057  0.6297 -2.0769
18950TIP3    H278342   3.086   0.015   3.325 -0.8196  0.8315 -0.4477
18951TIP3   OH278343   1.691   6.716   6.416 -0.2356 -0.4020  0.1801
18951TIP3    H178344   1.711   6.793   6.470  0.6460 -1.3516  1.2596
18951TIP3    H278345   1.764   6.711   6.353  0.6668 -1.3210  1.2476
18952TIP3   OH278346   6.052   2.500   0.110  0.1522  0.3113  0.1796
18952TIP3    H178347   6.076   2.582   0.067 -1.1820  0.2422 -0.7248
18952TIP3    H278348   6.004   2.450   0.044 -1.2313 -0.1515  1.4777
18953TIP3   OH278349   0.685   0.155  11.836 -0.0253  0.0215 -0.2237
18953TIP3    H178350   0.661   0.155  11.743 -0.2698 -1.1834 -0.1809
18953TIP3    H278351   0.762   0.099  11.841  0.3249  0.5411  0.2267
18954TIP3   OH278352   3.013   5.759  14.317  0.3668  0.9801 -0.8805
18954TIP3    H178353   2.973   5.709  14.389  1.7127  2.2028  0.8022
18954TIP3    H278354   2.944   5.819  14.289 -0.0621  0.7407 -0.3720
18955TIP3   OH278355   1.361   3.111   3.034 -0.3076 -0.0846 -0.1860
18955TIP3    H178356   1.272   3.145   3.040 -0.4879 -0.0089 -2.4780
18955TIP3    H278357   1.409   3.178   2.985  0.5216 -0.9693 -0.6109
18956TIP3   OH278358   6.312   0.513   0.108  0.1446  0.0449 -0.0905
18956TIP3    H178359   6.239   0.542   0.053 -0.0252 -0.1412  0.0322
18956TIP3    H278360   6.352   0.441   0.058 -0.1631 -0.2893  0.1391
18957TIP3   OH278361   2.356   1.513  12.589 -0.4094 -0.0529 -0.2927
18957TIP3    H178362   2.427   1.535  12.649 -0.8481  0.6898 -0.0405
18957TIP3    H278363   2.388   1.539  12.503 -0.4182  0.3779 -0.1646
18958TIP3   OH278364   2.454   1.015  13.978 -0.1454  0.2528 -0.3182
18958TIP3    H178365   2.380   1.060  13.936 -1.1368 -0.8825  0.1298
18958TIP3    H278366   2.448   0.925  13.945  0.2563 -0.1688  0.7360
18959TIP3   OH278367   3.593   5.972  16.759  0.0966 -0.2327 -0.4874
18959TIP3    H178368   3.570   5.959  16.852  0.2722  0.2900 -0.3707
18959TIP3    H278369   3.631   6.060  16.756  0.8778 -0.5727 -0.9084
18960TIP3   OH278370   2.556   4.951   4.730 -0.3836  0.5018 -0.2356
18960TIP3    H178371   2.467   4.920   4.746 -0.8560  2.6868  2.1612
18960TIP3    H278372   2.591   4.969   4.817  1.8539  1.1848 -1.1994
18961TIP3   OH278373   5.264   2.811  12.930  0.4088 -0.1236 -0.4622
18961TIP3    H178374   5.218   2.774  13.006 -1.0993  2.3396 -0.0575
18961TIP3    H278375   5.326   2.873  12.968 -1.0181  1.8520 -1.1498
18962TIP3   OH278376   4.406   5.606  15.962 -0.1146 -0.3126  0.3138
18962TIP3    H178377   4.351   5.617  16.040 -0.7768  1.7844 -0.3791
18962TIP3    H278378   4.359   5.541  15.910 -0.3647 -0.7408  1.0532
18963TIP3   OH278379   6.373   5.436   1.777  0.3866 -0.0520  0.4518
18963TIP3    H178380   6.297   5.495   1.781  0.7888  0.7075 -1.8433
18963TIP3    H278381   6.447   5.492   1.800  0.3156 -0.8251  2.8263
18964TIP3   OH278382   6.736   3.511  11.201 -0.6376  0.7464 -0.2836
18964TIP3    H178383   6.740   3.535  11.108  1.2866 -1.1394 -0.7774
18964TIP3    H278384   6.800   3.569  11.244  0.0539  0.1919 -0.5404
18965TIP3   OH278385   0.604   5.741   2.853 -0.2613 -0.0019 -0.0824
18965TIP3    H178386   0.600   5.765   2.946 -0.3906  0.7409 -0.2763
18965TIP3    H278387   0.688   5.776   2.823 -1.2342  1.8580 -0.8018
18966TIP3   OH278388   5.992   0.955  14.991 -0.0299 -0.0355  0.5207
18966TIP3    H178389   6.084   0.979  14.986 -0.2338  1.1682  1.9007
18966TIP3    H278390   5.974   0.948  15.085 -1.1601 -1.0189  0.2550
18967TIP3   OH278391   5.261   3.191  14.077  0.2694 -0.0416 -0.1352
18967TIP3    H178392   5.329   3.129  14.101 -1.2658 -1.9873 -0.4940
18967TIP3    H278393   5.274   3.206  13.984  2.3326  2.4849  0.4448
18968TIP3   OH278394   3.039   6.480   3.790 -0.8038 -1.0828  0.0332
18968TIP3    H178395   2.951   6.507   3.814  0.0719  0.0932  2.2977
18968TIP3    H278396   3.088   6.486   3.872  1.8366  0.1776 -1.5092
18969TIP3   OH278397   5.904   4.548  16.568  0.2615 -0.0464 -0.5167
18969TIP3    H178398   5.926   4.458  16.592 -1.9292 -0.3876  0.4230
18969TIP3    H278399   5.880   4.543  16.476 -0.4170 -0.5683 -0.3241
18970TIP3   OH278400   6.367   0.298   2.148 -0.1766 -0.1053  0.5725
18970TIP3    H178401   6.379   0.294   2.053  1.1879 -1.8156  0.7723
18970TIP3    H278402   6.273   0.308   2.160 -0.5461 -1.4279 -0.9495
18971TIP3   OH278403   2.889   1.235  16.450  0.0024 -0.0216 -0.2171
18971TIP3    H178404   2.804   1.274  16.472 -0.1424  0.0760 -0.9523
18971TIP3    H278405   2.880   1.207  16.359 -0.2878 -2.8362  0.5894
18972TIP3   OH278406   4.329   3.405   2.587 -0.2903 -0.3571  0.1120
18972TIP3    H178407   4.307   3.319   2.551 -2.1817 -0.0871  0.5351
18972TIP3    H278408   4.420   3.419   2.561 -0.5585 -1.6105 -1.7138
18973TIP3   OH278409   5.864   6.236   4.273  0.0658  0.4141  0.3253
18973TIP3    H178410   5.931   6.287   4.319  1.3341 -1.4564  0.6855
18973TIP3    H278411   5.813   6.194   4.343  0.9907 -1.1734  0.1058
18974TIP3   OH278412   3.667   5.623  13.464 -0.4392 -0.0987 -0.2117
18974TIP3    H178413   3.672   5.530  13.443 -1.2776  0.0224 -1.0121
18974TIP3    H278414   3.577   5.648  13.442 -0.4156  0.7581  0.5926
18975TIP3   OH278415   3.913   2.344   5.272  0.6569 -0.0790 -0.1733
18975TIP3    H178416   3.990   2.302   5.233  0.7361  1.9313 -2.4693
18975TIP3    H278417   3.900   2.423   5.220 -2.3109  0.2592  0.8452
18976TIP3   OH278418   3.193   5.608  16.826 -0.1804 -0.2100 -0.1466
18976TIP3    H178419   3.206   5.671  16.897  0.0809  0.3185 -0.6586
18976TIP3    H278420   3.170   5.526  16.871  1.3516 -0.2584  0.6487
18977TIP3   OH278421   2.538   2.836   0.204  0.0416 -0.6422 -0.5169
18977TIP3    H178422   2.610   2.782   0.171  1.2179  0.1202  0.7410
18977TIP3    H278423   2.575   2.923   0.213 -0.8203 -0.3987  0.8607
18978TIP3   OH278424   6.223   4.464   1.222  0.1844 -0.3356 -0.0329
18978TIP3    H178425   6.300   4.521   1.221 -0.0562  0.0030  0.0740
18978TIP3    H278426   6.161   4.510   1.280 -0.5215 -0.0204 -1.0155
18979TIP3   OH278427   3.777   1.798  14.384  0.0339 -0.0613 -0.0568
18979TIP3    H178428   3.779   1.878  14.437 -0.8801  0.6604 -1.0481
18979TIP3    H278429   3.706   1.746  14.421 -0.0548  0.0634 -0.0527
18980TIP3   OH278430   1.059   4.540   5.698 -0.2730 -0.6666  0.2972
18980TIP3    H178431   1.104   4.550   5.614 -0.3508  0.6449  0.3883
18980TIP3    H278432   1.059   4.445   5.715  1.0069 -0.8263 -0.4844
18981TIP3   OH278433   6.204   1.627  15.678  0.4870 -0.7511  0.3825
18981TIP3    H178434   6.232   1.618  15.769 -1.7259  0.1849  1.2449
18981TIP3    H278435   6.145   1.553  15.664  0.0126 -0.3218  0.0670
18982TIP3   OH278436   3.475   0.116  15.060 -0.3339  0.2832 -0.1160
18982TIP3    H178437   3.569   0.107  15.044 -0.1830 -0.4614  1.0777
18982TIP3    H278438   3.443   0.026  15.066 -0.8321  0.5217  1.0612
18983TIP3   OH278439   3.228   4.861   0.564  0.6329  0.7967 -0.2193
18983TIP3    H178440   3.245   4.954   0.548 -0.1145  1.1269  0.7742
18983TIP3    H278441   3.266   4.816   0.489  2.1580  1.8021 -0.0909
18984TIP3   OH278442   0.347   2.928   1.919 -0.2503 -0.1423  0.0710
18984TIP3    H178443   0.416   2.953   1.857  0.2921 -1.2450  0.2123
18984TIP3    H278444   0.394   2.905   1.999 -0.9635  1.4769  0.9976
18985TIP3   OH278445   4.250   3.889   1.847 -0.2996 -0.3416 -0.4920
18985TIP3    H178446   4.212   3.817   1.898 -1.8174 -0.3247 -1.5047
18985TIP3    H278447   4.276   3.848   1.764 -0.2679  0.0883 -0.6966
18986TIP3   OH278448   1.972   4.309   1.069  0.3427  0.0979  0.1768
18986TIP3    H178449   1.932   4.344   0.990  0.4515  2.4431  1.0818
18986TIP3    H278450   1.931   4.224   1.081 -2.0333  1.0444 -0.6850
18987TIP3   OH278451   2.937   5.444   3.720 -0.2634  1.0256  0.1449
18987TIP3    H178452   2.942   5.349   3.732 -1.4501  0.8736 -0.3697
18987TIP3    H278453   2.926   5.479   3.808 -2.1546  0.4690  0.1916
18988TIP3   OH278454   1.029   2.291  10.719  0.2898 -0.6553  0.6340
18988TIP3    H178455   1.087   2.352  10.673 -1.6899  0.9139  0.1242
18988TIP3    H278456   1.059   2.204  10.689 -0.1829  0.2176 -2.8649
18989TIP3   OH278457   2.113   3.661   1.391  0.7426 -0.6068 -0.2454
18989TIP3    H178458   2.141   3.688   1.304 -2.6962 -0.2580 -1.3952
18989TIP3    H278459   2.128   3.738   1.446  0.8021 -0.0136 -1.0717
18990TIP3   OH278460   3.844   6.222  14.379  0.5753  0.5536 -0.0179
18990TIP3    H178461   3.825   6.197  14.469  2.0215 -1.9285 -0.2939
18990TIP3    H278462   3.760   6.251  14.344  0.0938  2.1476  2.2249
18991TIP3   OH278463   2.243   6.100  12.530 -0.4084  0.1504 -0.1168
18991TIP3    H178464   2.202   6.185  12.538 -3.1885 -1.1898  1.1223
18991TIP3    H278465   2.296   6.106  12.450 -1.3101  2.6963 -0.5938
18992TIP3   OH278466   2.405   4.767   4.942  0.0886 -0.4958 -0.5028
18992TIP3    H178467   2.471   4.701   4.922  0.3453  0.6305 -4.1443
18992TIP3    H278468   2.449   4.851   4.925 -1.2263  0.4696  0.6339
18993TIP3   OH278469   3.646   0.773   3.575  0.3594 -0.0396 -0.2375
18993TIP3    H178470   3.568   0.722   3.553  1.6942 -0.6613 -4.3020
18993TIP3    H278471   3.703   0.711   3.620 -0.9566  0.1632  1.8854
18994TIP3   OH278472   4.559   4.149   3.578  0.0741 -0.4696 -0.4580
18994TIP3    H178473   4.494   4.212   3.545  1.3616  0.3697 -1.4836
18994TIP3    H278474   4.584   4.184   3.664 -1.6284 -1.4357  0.4940
18995TIP3   OH278475   1.268   5.620  14.664 -0.4941 -0.5072 -0.0488
18995TIP3    H178476   1.310   5.602  14.747  0.6511  0.8566 -0.2868
18995TIP3    H278477   1.282   5.714  14.650 -4.6595  0.3803  0.4080
18996TIP3   OH278478   1.346   3.613   6.140 -0.2938  0.0034  0.4415
18996TIP3    H178479   1.274   3.623   6.079 -2.3847 -2.4656  2.2808
18996TIP3    H278480   1.305   3.580   6.221  3.0176 -3.6260  0.9547
18997TIP3   OH278481   2.172   2.065  15.251  0.4932  0.1960 -0.2878
18997TIP3    H178482   2.138   2.023  15.330 -0.4509  2.8251  0.8276
18997TIP3    H278483   2.098   2.069  15.192  0.6504  0.1107 -0.4945
18998TIP3   OH278484   4.728   4.784   2.637  0.6158  0.6194 -0.1106
18998TIP3    H178485   4.780   4.739   2.704  1.0316 -0.9374 -1.4214
18998TIP3    H278486   4.638   4.773   2.666  0.3468 -3.8854 -1.7682
18999TIP3   OH278487   1.651   6.356  16.553  0.8281  0.0938 -0.1685
18999TIP3    H178488   1.657   6.327  16.462  1.5756 -0.3420  0.0045
18999TIP3    H278489   1.679   6.448  16.552  1.3036 -0.0501 -0.3177
19000TIP3   OH278490   5.191   2.748   0.785  0.3090 -0.3204  0.0545
19000TIP3    H178491   5.130   2.734   0.858  0.2692 -0.0731  0.0691
19000TIP3    H278492   5.246   2.820   0.814 -0.3803  0.4809 -0.5951
19001TIP3   OH278493   4.527   0.589   3.973 -0.1049 -0.4614  0.2543
19001TIP3    H178494   4.451   0.574   3.916  0.7835 -1.5586 -0.6569
19001TIP3    H278495   4.582   0.512   3.962 -0.0619 -0.9033  2.9060
19002TIP3   OH278496   1.634   2.207  14.317 -0.1740 -0.0674 -0.2944
19002TIP3    H178497   1.688   2.196  14.239 -1.3185 -1.9070 -0.9069
19002TIP3    H278498   1.695   2.239  14.384  0.6236  2.7069 -2.1446
19003TIP3   OH278499   3.694   6.516  14.555  0.0920 -0.5757  0.6608
19003TIP3    H178500   3.754   6.540  14.485  0.7714 -0.5840  1.2356
19003TIP3    H278501   3.741   6.451  14.607 -0.6637 -1.0696  0.7492
19004TIP3   OH278502   6.781   4.991  12.868  0.0504 -0.1019 -0.0327
19004TIP3    H178503   6.824   5.063  12.913 -0.2535  0.3490 -0.4491
19004TIP3    H278504   6.810   4.999  12.777 -0.9737  0.2827 -0.3464
19005TIP3   OH278505   5.822   0.652   6.029 -0.0428  0.0376 -0.2581
19005TIP3    H178506   5.787   0.722   5.974 -1.2941 -0.3660 -0.0065
19005TIP3    H278507   5.832   0.693   6.115  0.3520  0.2264 -0.3935
19006TIP3   OH278508   5.128   4.538  11.478  0.2848  0.5111  0.1434
19006TIP3    H178509   5.100   4.614  11.528 -0.7200  0.0011  0.3761
19006TIP3    H278510   5.202   4.503  11.528 -0.5474  0.1508  1.1674
19007TIP3   OH278511   5.712   0.879   3.102 -0.2937  0.0253 -0.2963
19007TIP3    H178512   5.692   0.967   3.072 -0.0663  0.2282  0.1412
19007TIP3    H278513   5.788   0.852   3.051  1.5736  1.2550  1.6492
19008TIP3   OH278514   0.560   2.729   4.146  0.4915  0.2130 -0.0339
19008TIP3    H178515   0.530   2.788   4.077 -1.8530  0.0447  0.7447
19008TIP3    H278516   0.573   2.787   4.222  2.0772  0.2572 -0.3216
19009TIP3   OH278517   0.408   4.035   4.137  0.6629 -0.1080  0.3703
19009TIP3    H178518   0.355   3.957   4.117 -0.2391  0.5205  0.2792
19009TIP3    H278519   0.345   4.101   4.164  1.4105  0.6618  0.2723
19010TIP3   OH278520   2.461   5.906  14.773  0.0557  0.1350  0.1511
19010TIP3    H178521   2.484   5.980  14.829  4.4227 -1.9049  1.5093
19010TIP3    H278522   2.424   5.841  14.833  0.3994 -0.3515 -0.1477
19011TIP3   OH278523   0.837   0.869  12.205  0.2444 -0.5625 -0.5834
19011TIP3    H178524   0.864   0.777  12.204  0.3717 -0.5884  1.2651
19011TIP3    H278525   0.919   0.917  12.221  0.1731 -0.1202 -1.5071
19012TIP3   OH278526   1.506   4.188  16.243  0.2787  0.0857 -0.2426
19012TIP3    H178527   1.488   4.263  16.187  1.3604 -0.2480 -1.0579
19012TIP3    H278528   1.598   4.198  16.269  0.8203 -1.5499 -1.3325
19013TIP3   OH278529   0.243   1.051   0.978  0.0972 -0.0174  0.4012
19013TIP3    H178530   0.277   1.055   1.067  1.5275  2.2014 -0.1692
19013TIP3    H278531   0.149   1.065   0.987 -0.2331 -2.4632  1.7116
19014TIP3   OH278532   4.321   1.663  13.025 -0.1892  0.6976 -0.2265
19014TIP3    H178533   4.231   1.643  12.996 -0.2952  1.8674 -0.7580
19014TIP3    H278534   4.310   1.704  13.110 -0.0651 -0.1985  0.2329
19015TIP3   OH278535   5.768   0.419   3.980 -0.0745 -0.5960 -0.3304
19015TIP3    H178536   5.686   0.429   3.933  0.4867  0.6755 -1.0849
19015TIP3    H278537   5.769   0.490   4.044 -0.2873 -1.5969  0.8386
19016TIP3   OH278538   6.179   3.080  12.018 -0.0100 -0.2396 -0.7833
19016TIP3    H178539   6.263   3.097  11.975  0.3274 -1.0013 -0.4577
19016TIP3    H278540   6.114   3.125  11.964  0.7383  1.5042 -0.3079
19017TIP3   OH278541   4.949   6.769   5.244  0.3028 -1.0146  0.3999
19017TIP3    H178542   4.963   6.861   5.263 -0.8489 -0.6257 -0.4942
19017TIP3    H278543   4.887   6.769   5.171  1.5132 -2.4703 -0.7008
19018TIP3   OH278544   4.404   6.806   4.917 -0.2422  0.0249 -0.2017
19018TIP3    H178545   4.373   6.885   4.962 -1.6435 -0.1517 -0.8182
19018TIP3    H278546   4.433   6.838   4.831  0.7702  0.0948  0.1482
19019TIP3   OH278547   6.432   4.486   3.706  0.3062 -0.0953  0.2964
19019TIP3    H178548   6.470   4.403   3.735  1.9606  0.0528 -1.2744
19019TIP3    H278549   6.391   4.523   3.785  3.5983 -0.2137  2.2218
19020TIP3   OH278550   2.687   3.067   2.866 -0.0909  0.5398 -0.3762
19020TIP3    H178551   2.648   3.152   2.888 -0.0191  0.6579 -0.6974
19020TIP3    H278552   2.752   3.087   2.799  1.4795  0.5207  1.0862
19021TIP3   OH278553   0.269   3.905   5.850 -0.0167  0.4304 -1.0229
19021TIP3    H178554   0.208   3.970   5.886 -1.4929 -0.9199 -0.9647
19021TIP3    H278555   0.328   3.956   5.795  1.4188  2.3767  2.0842
19022TIP3   OH278556   3.017   2.630   2.116  0.1203  0.1166  0.5905
19022TIP3    H178557   3.100   2.608   2.157  1.5402  0.6620 -1.7551
19022TIP3    H278558   2.961   2.553   2.131  2.0227 -1.5076 -0.0994
19023TIP3   OH278559   6.485   1.932  15.729 -0.5266  0.2169 -0.5251
19023TIP3    H178560   6.539   1.856  15.753 -0.5622  0.2866 -0.2190
19023TIP3    H278561   6.546   1.993  15.687 -0.8958 -0.8844 -2.7951
19024TIP3   OH278562   2.982   1.768   4.993 -0.1155  0.1286 -0.0185
19024TIP3    H178563   2.946   1.752   4.906  0.5537 -0.6200 -0.1674
19024TIP3    H278564   3.040   1.694   5.009 -0.8528 -0.1639  1.4106
19025TIP3   OH278565   0.903   2.443  16.585 -0.0500  0.1354  0.2326
19025TIP3    H178566   0.840   2.492  16.638  1.5879  1.9964  0.5622
19025TIP3    H278567   0.980   2.499  16.581  0.7178 -0.9392 -2.2372
19026TIP3   OH278568   0.291   3.304  12.709 -0.2360  0.2038  0.6699
19026TIP3    H178569   0.204   3.263  12.708 -0.3772  0.4991  0.6491
19026TIP3    H278570   0.342   3.253  12.647 -0.7597  0.8104 -0.2955
19027TIP3   OH278571   3.867   4.589  16.950 -0.7026  0.5040 -0.1927
19027TIP3    H178572   3.865   4.522  16.882 -3.5685 -0.1745  0.4159
19027TIP3    H278573   3.892   4.669  16.905  0.0844 -0.4265 -1.4729
19028TIP3   OH278574   1.237   6.478   5.780  0.2736 -0.4266 -0.3557
19028TIP3    H178575   1.252   6.531   5.858  1.6507  0.2798 -1.0790
19028TIP3    H278576   1.191   6.536   5.720  0.4473 -0.5300 -0.5896
19029TIP3   OH278577   1.454   1.455  13.330 -0.4669 -0.2026 -0.4419
19029TIP3    H178578   1.466   1.439  13.423  0.8086  0.0568 -0.5387
19029TIP3    H278579   1.445   1.367  13.291 -0.4316 -0.3411 -0.1374
19030TIP3   OH278580   5.814   5.002  14.646 -0.1567  0.1015 -0.1855
19030TIP3    H178581   5.782   4.929  14.592  0.9116 -1.0955  0.7224
19030TIP3    H278582   5.783   5.080  14.601 -1.6449 -0.9123 -1.0203
19031TIP3   OH278583   6.737   6.538   3.280  0.1104 -0.6510 -0.3619
19031TIP3    H178584   6.806   6.484   3.317  2.4534  1.4576 -1.3677
19031TIP3    H278585   6.685   6.478   3.226  0.2997 -2.5319  1.4212
19032TIP3   OH278586   5.140   1.240   0.139  0.0725  0.6105  0.1393
19032TIP3    H178587   5.152   1.217   0.231 -0.8587 -0.4619  0.0039
19032TIP3    H278588   5.075   1.178   0.106 -1.2899  2.3824 -0.6733
19033TIP3   OH278589   4.404   1.568   5.568 -0.7797  0.3118  0.1210
19033TIP3    H178590   4.437   1.646   5.613 -1.5525  0.3223  0.6886
19033TIP3    H278591   4.344   1.528   5.631 -0.4381 -0.7108 -0.1803
19034TIP3   OH278592   1.843   1.024  11.417 -0.2571  0.2215  0.3536
19034TIP3    H178593   1.888   0.957  11.365 -0.7689 -0.3171  0.5916
19034TIP3    H278594   1.764   1.044  11.368 -0.9279 -0.5572  1.0862
19035TIP3   OH278595   1.521   0.246   0.568  0.1593 -0.4006  0.3763
19035TIP3    H178596   1.560   0.286   0.646 -1.5710  1.5410  0.3301
19035TIP3    H278597   1.445   0.197   0.601 -0.3588  0.1150 -0.0199
19036TIP3   OH278598   3.721   3.174  15.723 -0.8446 -0.3628 -0.2853
19036TIP3    H178599   3.726   3.156  15.817  0.0607 -0.6876 -0.3933
19036TIP3    H278600   3.743   3.267  15.715  0.7300 -0.7080 -0.3130
19037TIP3   OH278601   5.035   4.239  12.922 -0.2172 -0.5597  0.5374
19037TIP3    H178602   4.992   4.174  12.867  0.0789  1.4843 -2.3532
19037TIP3    H278603   5.055   4.193  13.003 -0.1288 -3.9990 -1.2738
19038TIP3   OH278604   4.581   6.211  15.032  0.4003  0.2333  0.3848
19038TIP3    H178605   4.626   6.217  14.948  0.4419  0.3373  0.4155
19038TIP3    H278606   4.625   6.138  15.077  0.5448  0.3413  0.4192
19039TIP3   OH278607   3.937   0.837  13.432  0.1978  0.1015 -0.1249
19039TIP3    H178608   3.933   0.878  13.518  1.5333  0.7809 -0.3467
19039TIP3    H278609   3.869   0.881  13.381  0.4898  0.8701  0.1310
19040TIP3   OH278610   4.033   5.944   2.451  0.1041 -0.0580  0.1408
19040TIP3    H178611   3.990   5.887   2.515 -0.3211 -2.1270 -1.8461
19040TIP3    H278612   3.960   5.981   2.400  0.5021 -0.6992 -0.9233
19041TIP3   OH278613   1.822   6.284   4.082 -0.4798 -0.3705  0.0845
19041TIP3    H178614   1.903   6.257   4.038 -1.9756  0.1688 -3.3232
19041TIP3    H278615   1.767   6.205   4.081 -1.1076  0.0709 -0.4359
19042TIP3   OH278616   1.678   2.633   4.436  0.5997 -0.0988 -0.2868
19042TIP3    H178617   1.687   2.606   4.344 -1.8577  0.3276 -0.7270
19042TIP3    H278618   1.675   2.728   4.432  0.0918 -0.0925  0.1707
19043TIP3   OH278619   6.582   5.252   3.072 -0.4344 -0.2060 -0.4361
19043TIP3    H178620   6.662   5.202   3.057 -1.1035 -0.8917 -1.8280
19043TIP3    H278621   6.581   5.266   3.167  0.0488 -2.3765 -0.0599
19044TIP3   OH278622   1.628   2.158   0.199  0.8127 -0.0746 -0.0447
19044TIP3    H178623   1.604   2.244   0.164  2.2564 -0.5002 -2.2796
19044TIP3    H278624   1.713   2.173   0.241  0.6578 -0.2632  0.3444
19045TIP3   OH278625   1.839   0.366  11.760 -0.4308 -0.2598  0.0310
19045TIP3    H178626   1.777   0.316  11.813 -0.1535 -0.5934  0.0395
19045TIP3    H278627   1.917   0.311  11.755 -0.1885  0.0908 -0.1094
19046TIP3   OH278628   1.251   4.379  13.580 -0.2701  0.0663  0.4090
19046TIP3    H178629   1.176   4.398  13.636  0.2779  0.0797  1.1581
19046TIP3    H278630   1.296   4.464  13.571 -0.3863  0.0757 -0.0995
19047TIP3   OH278631   5.873   6.532   6.231 -0.1755  0.1956 -0.3153
19047TIP3    H178632   5.793   6.541   6.282 -0.9897 -2.5535 -0.9493
19047TIP3    H278633   5.944   6.544   6.294 -1.1396 -2.9607  1.5989
19048TIP3   OH278634   1.592   0.791  15.427  0.3977  0.2003 -0.2829
19048TIP3    H178635   1.656   0.799  15.357  1.4672  1.8379  0.7975
19048TIP3    H278636   1.639   0.746  15.497 -0.3103 -0.4553 -0.2198
19049TIP3   OH278637   2.323   6.181  15.534 -0.0055 -0.2320 -0.3015
19049TIP3    H178638   2.391   6.239  15.499  0.8647 -0.1287  1.4584
19049TIP3    H278639   2.317   6.203  15.626 -0.4373 -2.1931  0.1940
19050TIP3   OH278640   0.459   3.059  11.234  0.0758 -0.0879 -0.0988
19050TIP3    H178641   0.378   3.100  11.204  0.3374  0.4688 -0.0618
19050TIP3    H278642   0.432   2.974  11.267 -0.3279 -0.4045 -1.2102
19051TIP3   OH278643   4.928   5.111  12.321  0.1152 -0.0204  0.0295
19051TIP3    H178644   4.930   5.180  12.388 -0.1509  0.4176 -0.4068
19051TIP3    H278645   5.006   5.058  12.339  0.7415  0.8323 -0.0745
19052TIP3   OH278646   1.035   5.579   0.159  0.0027  0.2724 -0.5425
19052TIP3    H178647   0.941   5.570   0.145  0.0139  2.2665 -2.6032
19052TIP3    H278648   1.073   5.502   0.117 -0.6822 -0.5778  0.3559
19053TIP3   OH278649   4.105   3.104  13.584  0.6820 -0.5462 -0.3400
19053TIP3    H178650   4.068   3.029  13.630 -0.2780 -0.1248 -0.4075
19053TIP3    H278651   4.193   3.076  13.560  1.2892 -0.7334  1.8717
19054TIP3   OH278652   3.636   5.349  16.126  0.5917  0.6675 -0.4461
19054TIP3    H178653   3.567   5.319  16.185 -0.0664 -0.4507 -1.7406
19054TIP3    H278654   3.652   5.440  16.152 -0.2064  0.4344  0.9423
19055TIP3   OH278655   6.619   4.867   6.474 -0.3690 -0.3901 -0.1792
19055TIP3    H178656   6.632   4.918   6.554 -2.2001  0.0360 -0.1221
19055TIP3    H278657   6.705   4.867   6.432  0.3549  0.3245  1.2229
19056TIP3   OH278658   0.436   6.278  11.397  0.0512  0.0004  0.4007
19056TIP3    H178659   0.383   6.216  11.347  0.8477  0.2112 -0.7709
19056TIP3    H278660   0.447   6.353  11.338  0.0926  0.7523  1.3337
19057TIP3   OH278661   4.648   4.896  10.802  0.2460 -0.0441 -0.3443
19057TIP3    H178662   4.689   4.831  10.745 -0.5670 -1.3321  0.4930
19057TIP3    H278663   4.561   4.908  10.765  1.4944  3.3786 -2.6729
19058TIP3   OH278664   0.996   5.548  16.651 -0.0208 -0.6762 -0.1758
19058TIP3    H178665   1.072   5.527  16.706 -1.2386 -2.0576  1.0421
19058TIP3    H278666   0.935   5.477  16.666 -1.7491  0.6127 -0.8186
19059TIP3   OH278667   3.631   6.521   5.096 -0.3183 -0.1696 -0.5222
19059TIP3    H178668   3.724   6.535   5.115 -0.5448  0.0720  0.4639
19059TIP3    H278669   3.590   6.606   5.113 -1.0583 -0.8655  1.3164
19060TIP3   OH278670   5.495   1.055  14.873 -0.8645  0.2445 -0.1366
19060TIP3    H178671   5.504   1.031  14.965 -3.0810 -0.7899 -0.1128
19060TIP3    H278672   5.420   1.115  14.872 -0.7416  0.3971 -1.2455
19061TIP3   OH278673   2.543   6.408  11.399 -0.2609  0.0881 -0.2679
19061TIP3    H178674   2.532   6.422  11.493  0.7686 -0.4227 -0.0604
19061TIP3    H278675   2.475   6.344  11.376 -0.8542  0.6109  0.0194
19062TIP3   OH278676   0.997   6.049  15.496  0.2582 -0.0117  0.1045
19062TIP3    H178677   1.021   6.140  15.480 -1.6712  0.1519 -2.5331
19062TIP3    H278678   1.050   5.998  15.434  2.3408 -0.9487  2.4859
19063TIP3   OH278679   5.657   1.730  16.941 -0.1927  0.5642  0.5903
19063TIP3    H178680   5.641   1.647  16.898  0.7511  1.1981 -1.0922
19063TIP3    H278681   5.753   1.737  16.946 -0.2682  0.9459  1.9579
19064TIP3   OH278682   0.573   3.293   6.407  0.5965 -0.1804  0.1645
19064TIP3    H178683   0.642   3.359   6.402 -1.4683  2.1022 -0.0661
19064TIP3    H278684   0.564   3.260   6.317  0.2923  0.7183 -0.1392
19065TIP3   OH278685   2.462   6.804   2.572  0.4118 -0.6089 -0.1761
19065TIP3    H178686   2.523   6.794   2.645 -0.3541 -1.9965  0.3098
19065TIP3    H278687   2.478   6.727   2.516 -2.1293 -2.0736  0.9464
19066TIP3   OH278688   6.557   4.547   5.639  0.1424  0.5490 -0.4375
19066TIP3    H178689   6.515   4.463   5.658  2.8593 -0.9560 -0.5256
19066TIP3    H278690   6.537   4.563   5.546  0.0387 -0.3001 -0.5725
19067TIP3   OH278691   4.427   4.423   2.382 -0.5666 -0.4623  0.3758
19067TIP3    H178692   4.495   4.462   2.437  0.6547 -0.2408 -1.2272
19067TIP3    H278693   4.351   4.480   2.393 -0.3854 -0.4672  1.8562
19068TIP3   OH278694   5.518   6.064   2.621 -0.0276  0.0952 -0.0549
19068TIP3    H178695   5.477   6.028   2.700  0.0956 -1.6683 -0.7391
19068TIP3    H278696   5.487   6.007   2.551  0.5593  1.0953 -1.1537
19069TIP3   OH278697   3.998   3.025   4.162  0.1807  0.0618  0.5629
19069TIP3    H178698   4.026   2.941   4.199 -0.6248 -0.3575  0.2362
19069TIP3    H278699   3.985   3.007   4.069 -0.1720  0.5080  0.5264
19070TIP3   OH278700   5.179   6.675   3.833 -0.5093 -0.5903 -1.1628
19070TIP3    H178701   5.090   6.703   3.853 -0.1847  0.6905 -1.3510
19070TIP3    H278702   5.213   6.643   3.916 -0.4307  1.0601 -0.5043
19071TIP3   OH278703   6.681   1.682   6.664  0.3417 -0.5557  0.5163
19071TIP3    H178704   6.594   1.704   6.697  0.6937 -0.0899  1.1500
19071TIP3    H278705   6.716   1.764   6.630 -0.1393 -1.0774 -1.3777
19072TIP3   OH278706   6.527   3.456  12.457 -0.1754 -0.2476  0.2811
19072TIP3    H178707   6.596   3.422  12.400 -0.2050 -0.0297  0.1157
19072TIP3    H278708   6.448   3.454  12.403 -0.2051 -0.0503  0.3158
19073TIP3   OH278709   2.758   2.697  13.639  0.5600  0.0859  0.3363
19073TIP3    H178710   2.671   2.686  13.677 -0.7870  0.8439 -2.2743
19073TIP3    H278711   2.794   2.774  13.683 -1.7016  2.0975 -1.0514
19074TIP3   OH278712   2.838   1.349  14.869 -0.1066 -0.6235  0.4107
19074TIP3    H178713   2.859   1.322  14.958  1.6099  0.0759  0.2521
19074TIP3    H278714   2.743   1.354  14.867 -0.1565  1.8617  2.9829
19075TIP3   OH278715   0.970   3.617  16.561  0.6307 -0.0881 -0.0909
19075TIP3    H178716   0.938   3.601  16.472  0.8026  0.4872 -0.2612
19075TIP3    H278717   1.034   3.687  16.551  1.2161 -0.5528  0.3879
19076TIP3   OH278718   1.685   5.426  11.111 -0.5811 -0.0462 -0.5139
19076TIP3    H178719   1.654   5.445  11.199  0.1366  1.6122 -0.5903
19076TIP3    H278720   1.606   5.427  11.057 -0.9234 -0.2380 -0.0212
19077TIP3   OH278721   3.615   0.542  14.255 -0.3957 -0.9997  0.1290
19077TIP3    H178722   3.534   0.562  14.208  0.2828  0.6085 -0.4524
19077TIP3    H278723   3.674   0.508  14.188 -0.1032 -0.7023  0.2321
19078TIP3   OH278724   0.765   2.015  13.928  0.7090  0.3382  0.3143
19078TIP3    H178725   0.797   2.104  13.945 -2.1031  1.5996 -0.4772
19078TIP3    H278726   0.754   2.010  13.833 -1.6561  0.1551  0.5355
19079TIP3   OH278727   4.949   0.656  10.950  0.2179 -0.4634 -0.0792
19079TIP3    H178728   5.025   0.613  10.910 -0.4008  0.6881 -2.7324
19079TIP3    H278729   4.874   0.607  10.918 -0.2971  0.4372 -0.3052
19080TIP3   OH278730   5.572   4.569   4.162  0.3533  0.3271  0.4067
19080TIP3    H178731   5.594   4.530   4.247 -0.3564  0.2044  0.5400
19080TIP3    H278732   5.490   4.527   4.137  0.9024 -0.1327 -0.6681
19081TIP3   OH278733   3.700   0.652  16.959  0.2190 -0.0639 -0.3541
19081TIP3    H178734   3.641   0.661  17.033  1.2014  1.5243  0.2790
19081TIP3    H278735   3.655   0.694  16.886 -0.3131 -0.7415 -0.4287
19082TIP3   OH278736   0.869   1.033   2.060  0.1820 -0.4420 -0.2425
19082TIP3    H178737   0.957   0.996   2.064 -0.5158 -2.4219 -1.4990
19082TIP3    H278738   0.820   0.986   2.127 -0.0916  0.1591 -0.0151
19083TIP3   OH278739   6.479   4.585   3.001 -0.4908 -0.4110 -0.2139
19083TIP3    H178740   6.531   4.654   2.960 -2.0407  0.3234 -1.0269
19083TIP3    H278741   6.529   4.505   2.986  0.6149  0.3123 -0.5465
19084TIP3   OH278742   3.869   3.176  12.917  0.1706 -0.2357 -0.4032
19084TIP3    H178743   3.791   3.121  12.911  0.5683 -0.7319 -1.0137
19084TIP3    H278744   3.885   3.183  13.012  0.4495 -1.6407 -0.3306
19085TIP3   OH278745   5.020   4.774  10.605 -0.3189 -0.0340  0.3213
19085TIP3    H178746   4.947   4.835  10.589  0.1196  0.6002  0.6732
19085TIP3    H278747   4.982   4.687  10.592 -1.2833  0.2597  1.0025
19086TIP3   OH278748   2.508   1.821  13.103 -0.3008  0.0546 -0.0436
19086TIP3    H178749   2.530   1.776  13.185  0.9019  1.8379  0.7006
19086TIP3    H278750   2.420   1.856  13.118  0.0649  0.7124  0.6963
19087TIP3   OH278751   5.370   1.377   2.944  0.2475 -0.4347  0.3180
19087TIP3    H178752   5.427   1.387   2.868  0.2808 -2.7761 -0.0269
19087TIP3    H278753   5.356   1.466   2.975 -0.7462  0.7946 -3.1492
19088TIP3   OH278754   6.824   1.963  16.125 -0.1577 -0.3281 -0.2013
19088TIP3    H178755   6.802   2.028  16.059  2.4582 -1.9797 -2.9578
19088TIP3    H278756   6.784   1.882  16.093 -0.1783 -0.8962  1.1575
19089TIP3   OH278757   5.927   1.450  14.664  0.3245  0.4973 -0.0088
19089TIP3    H178758   5.990   1.416  14.600  2.0354  0.1499  1.7398
19089TIP3    H278759   5.870   1.376  14.683 -0.0118  0.5185 -0.8923
19090TIP3   OH278760   6.526   0.055   6.288 -0.3737 -0.4398  0.0813
19090TIP3    H178761   6.529  -0.011   6.357 -0.4887 -2.2825 -1.5940
19090TIP3    H278762   6.529   0.138   6.335 -0.9605 -1.5938  2.3264
19091TIP3   OH278763   5.260   3.703   6.487 -0.1897  0.2769  0.0369
19091TIP3    H178764   5.345   3.704   6.443 -0.8961 -0.7569 -1.4123
19091TIP3    H278765   5.240   3.610   6.498 -1.4077  0.5031 -0.1719
19092TIP3   OH278766   1.015   5.406   3.769  0.4050 -0.2746  0.0498
19092TIP3    H178767   0.956   5.379   3.698 -0.1857 -0.6086  0.6566
19092TIP3    H278768   0.971   5.377   3.849  1.6619 -1.0363  0.4957
19093TIP3   OH278769   1.796   0.269  12.269 -0.6561  0.3112  0.2957
19093TIP3    H178770   1.815   0.176  12.258  0.0339  0.6295 -1.6185
19093TIP3    H278771   1.870   0.314  12.228 -0.1855  1.7660  2.5428
19094TIP3   OH278772   2.647   1.974  14.731 -0.2258 -0.1475 -0.2896
19094TIP3    H178773   2.558   1.998  14.753  0.1715  0.3041  0.8821
19094TIP3    H278774   2.640   1.883  14.701 -0.6404 -1.4849  3.3435
19095TIP3   OH278775   6.431   0.803   3.715  0.0493 -0.0891  0.2078
19095TIP3    H178776   6.463   0.719   3.683  1.3694  0.0720  1.0106
19095TIP3    H278777   6.393   0.783   3.800  1.7868  0.3038  1.1349
19096TIP3   OH278778   6.164   5.184  13.710 -0.7347  0.1262 -0.0740
19096TIP3    H178779   6.114   5.165  13.631 -2.1321  2.9793 -0.0263
19096TIP3    H278780   6.118   5.139  13.781 -1.5167  0.3422 -0.4445
19097TIP3   OH278781   4.044   1.089  15.086  0.1624 -0.5716 -0.4988
19097TIP3    H178782   4.082   1.145  15.153 -0.7191 -0.3958 -0.1426
19097TIP3    H278783   4.005   1.016  15.135  0.1211 -0.7989 -0.8659
19098TIP3   OH278784   0.103   1.020  12.414  0.3281  0.1449  0.6066
19098TIP3    H178785   0.120   1.114  12.405  1.8239 -0.0900  0.7216
19098TIP3    H278786   0.137   0.981  12.334 -0.2875 -0.3020  0.5584
19099TIP3   OH278787   3.087   5.471  13.481 -0.1484  0.2112 -0.0997
19099TIP3    H178788   3.173   5.514  13.485 -0.2282  0.3601  0.0638
19099TIP3    H278789   3.040   5.505  13.557 -0.8940  1.2954 -1.0048
19100TIP3   OH278790   5.582   2.421   3.967  0.1247 -0.2594 -0.1636
19100TIP3    H178791   5.526   2.455   3.897 -0.5854  0.3469  0.6714
19100TIP3    H278792   5.606   2.333   3.938 -0.3247 -0.1054 -1.0637
19101TIP3   OH278793   6.607   2.326   1.068 -0.5979 -0.6289  0.7504
19101TIP3    H178794   6.553   2.317   0.990 -1.8050 -0.7941  1.5788
19101TIP3    H278795   6.653   2.409   1.056 -0.8052 -0.6287 -0.0964
19102TIP3   OH278796   0.181   4.679   0.576 -0.1174  0.0695 -0.5138
19102TIP3    H178797   0.227   4.757   0.548 -1.5323  1.5360  0.9749
19102TIP3    H278798   0.247   4.626   0.620  0.6945  0.8304 -0.7995
19103TIP3   OH278799   3.749   5.931  14.397 -0.1209 -0.0419 -0.4949
19103TIP3    H178800   3.658   5.960  14.401  0.4475  1.8783  2.9131
19103TIP3    H278801   3.745   5.838  14.419 -1.3863 -0.8508 -3.6216
19104TIP3   OH278802   3.332   0.779   2.578  0.3101 -0.1924  0.1653
19104TIP3    H178803   3.248   0.765   2.622  0.0797 -1.0401 -0.5194
19104TIP3    H278804   3.312   0.834   2.503  1.0070  2.9226  2.1015
19105TIP3   OH278805   6.042   0.500   6.035  0.2491 -0.4120  0.2108
19105TIP3    H178806   6.004   0.413   6.045 -2.2873  0.4051 -1.2844
19105TIP3    H278807   5.966   0.559   6.033  1.7652  1.6421 -0.6429
19106TIP3   OH278808   0.519   6.774  11.959  0.4018  0.2990  0.3683
19106TIP3    H178809   0.567   6.839  11.907  1.7585  1.2069  2.5988
19106TIP3    H278810   0.525   6.693  11.908  2.0646  1.0301 -0.6797
19107TIP3   OH278811   2.042   5.446  15.953  0.7526 -0.0197  0.1637
19107TIP3    H178812   2.075   5.357  15.942  0.4157 -0.1279  0.0349
19107TIP3    H278813   2.008   5.448  16.043 -0.6075 -0.4728 -0.3115
19108TIP3   OH278814   3.526   2.724  13.002  0.1923  0.0642 -0.2971
19108TIP3    H178815   3.481   2.661  13.057  0.5376 -1.3189 -1.5289
19108TIP3    H278816   3.611   2.684  12.984  0.4700  0.9309 -1.0031
19109TIP3   OH278817   4.896   3.415   2.115 -0.5273  0.6050  0.8265
19109TIP3    H178818   4.934   3.435   2.029 -0.3493  2.5525  1.3103
19109TIP3    H278819   4.806   3.446   2.109 -1.3708 -1.6938  0.5231
19110TIP3   OH278820   1.587   4.639   0.085 -0.6710  0.0447 -0.1465
19110TIP3    H178821   1.573   4.550   0.118 -0.8384 -0.9681 -2.6948
19110TIP3    H278822   1.501   4.667   0.053 -0.2771  0.4376 -0.8868
19111TIP3   OH278823   0.778   3.046  14.005 -0.2329  0.5844 -0.2757
19111TIP3    H178824   0.833   3.013  13.934  0.9515  0.5055  0.6557
19111TIP3    H278825   0.721   2.972  14.028  1.8152 -0.6130  1.2141
19112TIP3   OH278826   4.839   0.371  14.286 -0.0715  0.0253  0.0341
19112TIP3    H178827   4.932   0.368  14.307 -0.0158 -0.6483 -0.2627
19112TIP3    H278828   4.806   0.284  14.310 -0.6633  0.3223  0.3187
19113TIP3   OH278829   5.003   4.465   6.859  0.0034 -0.2154  1.0351
19113TIP3    H178830   5.047   4.470   6.774  1.7608  0.0705  1.9107
19113TIP3    H278831   4.931   4.405   6.845 -0.0258  0.1841 -0.7722
19114TIP3   OH278832   5.606   3.103   1.817 -0.2281 -0.6677 -0.1612
19114TIP3    H178833   5.625   3.179   1.872 -1.0719 -2.0266  2.1010
19114TIP3    H278834   5.680   3.044   1.831 -1.3108 -1.7936  1.0051
19115TIP3   OH278835   1.857   5.335   1.232  0.5095 -0.1295 -0.1176
19115TIP3    H178836   1.907   5.267   1.277 -1.1493 -1.5801 -0.3974
19115TIP3    H278837   1.771   5.333   1.273 -0.1715  0.4681 -1.4638
19116TIP3   OH278838   5.464   5.235   0.327  0.1611  0.3152  0.1290
19116TIP3    H178839   5.559   5.240   0.325  0.1708  3.6233  1.5733
19116TIP3    H278840   5.435   5.275   0.245 -0.0303 -0.2974 -0.1145
19117TIP3   OH278841   1.960   6.507  16.314 -0.2925 -0.4053 -0.1687
19117TIP3    H178842   1.998   6.455  16.243 -2.7357 -0.6874 -1.3646
19117TIP3    H278843   2.026   6.504  16.383  0.7779 -2.9056 -1.1723
19118TIP3   OH278844   5.233   5.095  12.294  0.5810  0.0036 -0.1711
19118TIP3    H178845   5.225   5.041  12.216 -0.0017 -0.2157  0.0306
19118TIP3    H278846   5.188   5.177  12.271 -2.3661 -1.1704  0.9124
19119TIP3   OH278847   4.807   1.113   1.106 -0.3235  0.1448  0.3079
19119TIP3    H178848   4.845   1.071   1.029 -0.3694 -0.9921  0.8946
19119TIP3    H278849   4.780   1.041   1.162 -0.4249  0.9635  1.3342
19120TIP3   OH278850   5.624   2.729   1.303 -0.1318  0.5070  0.5302
19120TIP3    H178851   5.563   2.739   1.376 -0.4498 -0.9291  0.4973
19120TIP3    H278852   5.706   2.700   1.343 -0.1313  0.2923  0.3773
19121TIP3   OH278853   1.767   5.700   3.538 -0.1155 -0.1541 -0.3734
19121TIP3    H178854   1.823   5.760   3.587 -0.2746  1.3425 -1.9233
19121TIP3    H278855   1.690   5.752   3.513 -1.4571 -1.7002  0.3048
19122TIP3   OH278856   6.738   3.407  16.248 -0.5273  0.2554 -0.1352
19122TIP3    H178857   6.813   3.464  16.263 -0.7943  0.3029  1.0994
19122TIP3    H278858   6.689   3.409  16.330 -0.4920 -1.8482 -0.0141
19123TIP3   OH278859   6.548   2.555   4.657  0.5179  0.0889  0.1854
19123TIP3    H178860   6.602   2.581   4.583 -0.8921 -0.9507 -1.2720
19123TIP3    H278861   6.591   2.476   4.691  1.5523  0.9601  0.9435
19124TIP3   OH278862   6.778   2.626  12.270  0.1037  0.4463 -0.5291
19124TIP3    H178863   6.701   2.678  12.247 -1.1158 -0.5092  1.1898
19124TIP3    H278864   6.748   2.567  12.339  2.2240 -0.4125 -0.2557
19125TIP3   OH278865   4.144   2.135   3.436  0.0256  0.0975 -0.4430
19125TIP3    H178866   4.076   2.203   3.435 -0.2199 -0.0520  1.6850
19125TIP3    H278867   4.122   2.079   3.361 -0.3623  1.7472 -1.6393
19126TIP3   OH278868   1.946   6.428  10.698 -0.5098  0.3531  0.7660
19126TIP3    H178869   1.944   6.399  10.607 -0.5796  1.6836  0.3250
19126TIP3    H278870   1.874   6.380  10.740  1.0662 -2.1973  0.7722
19127TIP3   OH278871   5.413   4.440   1.132 -0.3741  0.1872 -0.2107
19127TIP3    H178872   5.479   4.393   1.081 -0.5798 -1.2289  0.7839
19127TIP3    H278873   5.354   4.477   1.067 -0.6470 -1.6029 -1.0463
19128TIP3   OH278874   1.765   5.836  14.863 -0.0613 -0.3078  0.0898
19128TIP3    H178875   1.788   5.916  14.910  2.2614 -0.4267 -0.7069
19128TIP3    H278876   1.710   5.865  14.790  1.0403  0.6243 -0.3864
19129TIP3   OH278877   4.788   4.423  16.429 -0.1925 -0.6676  0.4435
19129TIP3    H178878   4.871   4.405  16.472 -2.5275  0.3225  6.3512
19129TIP3    H278879   4.758   4.337  16.399  1.0324 -1.8349  2.3537
19130TIP3   OH278880   0.211   4.580   2.858  0.3136  0.3394  0.2831
19130TIP3    H178881   0.150   4.629   2.803  1.0117  1.0319  0.1144
19130TIP3    H278882   0.293   4.579   2.808  0.0314 -1.9859 -0.2557
19131TIP3   OH278883   6.402   0.190  15.137  0.4866 -0.0873 -0.0834
19131TIP3    H178884   6.422   0.098  15.122  3.3925  0.3501  0.5666
19131TIP3    H278885   6.336   0.190  15.206  1.4229 -1.6880  0.8551
19132TIP3   OH278886   2.231   4.757  15.097 -0.4384  0.2789 -0.1960
19132TIP3    H178887   2.229   4.675  15.047 -1.9259 -0.4216  0.9396
19132TIP3    H278888   2.162   4.811  15.058 -0.1846  0.5670 -0.2501
19133TIP3   OH278889   2.671   6.697   0.738 -0.2094 -0.0658  0.1299
19133TIP3    H178890   2.591   6.645   0.733 -0.9269  1.0896 -3.1849
19133TIP3    H278891   2.693   6.715   0.646  1.8228  2.7151  1.0390
19134TIP3   OH278892   0.287   4.691  12.202 -0.1970  0.9356 -0.1733
19134TIP3    H178893   0.196   4.706  12.228 -0.1382 -0.5358  1.0094
19134TIP3    H278894   0.330   4.775  12.217 -0.7359  0.8718  2.1862
19135TIP3   OH278895   3.020   0.775   1.778 -0.0162 -0.4699  0.3304
19135TIP3    H178896   3.064   0.739   1.854  3.6097  0.1690 -1.2432
19135TIP3    H278897   3.037   0.869   1.782 -1.5241 -0.1405 -0.2483
19136TIP3   OH278898   4.780   6.086  11.398 -0.0136 -0.3931  1.0100
19136TIP3    H178899   4.786   6.011  11.456  0.3747 -1.1502  0.0210
19136TIP3    H278900   4.762   6.049  11.312 -0.3514  0.6848  0.6000
19137TIP3   OH278901   4.880   3.425   4.667 -0.9262  0.2845 -0.0475
19137TIP3    H178902   4.926   3.341   4.669 -0.8238  0.3543  0.9351
19137TIP3    H278903   4.824   3.424   4.745  1.4316  2.4245  1.8263
19138TIP3   OH278904   2.327   2.239  13.197  0.0824 -0.2126 -0.3084
19138TIP3    H178905   2.282   2.255  13.114 -1.4265  0.9801  0.6851
19138TIP3    H278906   2.282   2.162  13.234 -1.3506  1.0686  0.7533
19139TIP3   OH278907   2.895   0.313   5.867  0.6128  0.4036 -0.0219
19139TIP3    H178908   2.827   0.263   5.911  1.6317  1.0530  2.4720
19139TIP3    H278909   2.960   0.331   5.935  1.1354  3.6155 -1.1591
19140TIP3   OH278910   2.101   4.762   6.021  0.8515 -0.1940  0.7257
19140TIP3    H178911   2.062   4.769   6.108 -1.1886  2.3151 -0.2869
19140TIP3    H278912   2.141   4.848   6.006  0.9863 -0.5175 -0.8836
19141TIP3   OH278913   3.831   1.403  12.292 -0.3246 -0.3908  0.1623
19141TIP3    H178914   3.827   1.485  12.243 -0.2770 -0.4474  0.0641
19141TIP3    H278915   3.851   1.429  12.382  0.8816 -0.3784 -0.0990
19142TIP3   OH278916   3.370   2.218   0.993 -0.1896  0.5342  0.2565
19142TIP3    H178917   3.464   2.207   1.007  0.0995  1.8090 -0.4875
19142TIP3    H278918   3.335   2.240   1.079  0.3339  0.8507  0.3930
19143TIP3   OH278919   0.874   6.146   1.285  0.0405  0.0100  0.2388
19143TIP3    H178920   0.792   6.163   1.238  0.8496 -1.3867 -1.8200
19143TIP3    H278921   0.919   6.231   1.285 -0.2759  0.2024 -0.9623
19144TIP3   OH278922   6.584   0.438  17.227 -0.1856  0.3345  0.1118
19144TIP3    H178923   6.656   0.418  17.287  0.6508 -0.2897 -1.0411
19144TIP3    H278924   6.577   0.533  17.228  1.9483  0.5685 -1.1260
19145TIP3   OH278925   1.354   4.083  15.909 -0.2141 -0.0112 -0.1548
19145TIP3    H178926   1.412   4.158  15.921 -0.1286 -0.1761  0.5044
19145TIP3    H278927   1.266   4.118  15.919 -0.1364 -0.1959  1.3161
19146TIP3   OH278928   2.537   6.348  11.670 -0.0067 -0.1480  0.1675
19146TIP3    H178929   2.607   6.370  11.732 -2.2394  2.0859  2.0953
19146TIP3    H278930   2.459   6.338  11.724 -2.1684  2.1532 -2.2599
19147TIP3   OH278931   5.755   2.090   4.138 -0.4284 -0.0028 -0.6283
19147TIP3    H178932   5.698   2.021   4.171 -0.5427  0.5709  0.4360
19147TIP3    H278933   5.753   2.080   4.043 -2.6949  0.2590 -0.6812
19148TIP3   OH278934   2.187   0.277   4.954 -0.2094 -0.6138  0.1367
19148TIP3    H178935   2.138   0.215   4.900  0.5094 -0.9964 -0.0919
19148TIP3    H278936   2.131   0.292   5.030 -1.2114 -0.1030 -0.6849
19149TIP3   OH278937   4.948   3.634   6.138  0.2804 -0.1244  0.0422
19149TIP3    H178938   4.916   3.593   6.218  0.1392 -0.2880 -0.0960
19149TIP3    H278939   4.892   3.712   6.127  0.8062  0.3266  0.5150
19150TIP3   OH278940   0.959   3.394  14.297  0.5248  0.1858 -0.6986
19150TIP3    H178941   1.015   3.381  14.374 -0.7439  1.2529  0.4521
19150TIP3    H278942   0.922   3.307  14.279  2.1975 -0.4564 -1.2476
19151TIP3   OH278943   1.703   3.638  10.826  0.0428 -0.1080  0.1640
19151TIP3    H178944   1.776   3.678  10.873 -0.5076 -1.6745  2.5848
19151TIP3    H278945   1.664   3.709  10.776  2.9771  0.8499 -0.9802
19152TIP3   OH278946   5.944   3.368   1.197  0.5861  0.5501 -0.0192
19152TIP3    H178947   5.849   3.375   1.190  0.5386  0.5580  0.5776
19152TIP3    H278948   5.973   3.345   1.108  0.0887  1.1448 -0.3447
19153TIP3   OH278949   4.420   4.206  13.727 -0.4442  0.6437 -0.5428
19153TIP3    H178950   4.373   4.241  13.802  1.3545  0.6812  0.6124
19153TIP3    H278951   4.351   4.176  13.668 -1.9613  2.6246  0.1085
19154TIP3   OH278952   2.573   6.258   4.029  0.2305 -0.4436 -0.4766
19154TIP3    H178953   2.477   6.262   4.028  0.2237 -0.5478 -1.4644
19154TIP3    H278954   2.595   6.191   3.964  0.9705 -0.5113 -0.1652
19155TIP3   OH278955   4.751   2.618  15.623 -0.2127 -0.3794 -0.2157
19155TIP3    H178956   4.736   2.665  15.706 -0.0835  0.4536 -0.6511
19155TIP3    H278957   4.841   2.639  15.600 -0.8368  1.0649 -1.5725
19156TIP3   OH278958   5.208   0.064  11.140 -0.0748  0.2285  0.3491
19156TIP3    H178959   5.288   0.024  11.106 -1.0311 -0.4885 -1.1255
19156TIP3    H278960   5.137   0.023  11.092 -1.2583  2.0459  0.4176
19157TIP3   OH278961   4.388   5.180   1.463 -0.3616 -0.6949  0.4697
19157TIP3    H178962   4.384   5.167   1.557  0.5083 -2.2274  0.3306
19157TIP3    H278963   4.482   5.178   1.442 -0.0689  4.3022  0.0838
19158TIP3   OH278964   0.163   0.577  13.400 -0.3152  0.5743 -0.2276
19158TIP3    H178965   0.156   0.618  13.315 -0.2926 -0.7470 -0.8950
19158TIP3    H278966   0.238   0.619  13.442 -0.4785  1.4009 -0.7533
19159TIP3   OH278967   3.426   0.789  14.251  0.2563  0.3915 -0.6228
19159TIP3    H178968   3.408   0.801  14.158 -0.1184 -0.8936 -0.7477
19159TIP3    H278969   3.375   0.857  14.295 -0.3412  0.3941 -1.3114
19160TIP3   OH278970   2.285   2.266   2.511 -0.4157 -0.1282 -0.1392
19160TIP3    H178971   2.350   2.231   2.450 -1.0404 -1.3939 -0.1009
19160TIP3    H278972   2.298   2.361   2.506  0.4965 -0.2737 -1.1727
19161TIP3   OH278973   1.800   6.371  15.187 -0.4161  0.0036  0.1831
19161TIP3    H178974   1.850   6.453  15.187  1.4644 -1.0490 -1.8749
19161TIP3    H278975   1.782   6.354  15.279  0.0999  2.1410  0.7373
19162TIP3   OH278976   6.045   3.304   2.955  0.3274 -0.4603  0.0641
19162TIP3    H178977   6.081   3.362   3.022  2.2760  1.1697 -2.2528
19162TIP3    H278978   6.121   3.274   2.906 -1.0216 -1.7642 -1.3076
19163TIP3   OH278979   2.411   3.252   5.122  0.0363  0.0185 -0.3875
19163TIP3    H178980   2.394   3.180   5.183  0.9591  0.4507  0.4041
19163TIP3    H278981   2.374   3.329   5.164  0.0338  0.1982 -0.7125
19164TIP3   OH278982   1.008   4.454   3.368  0.2053 -0.1908 -0.2169
19164TIP3    H178983   1.074   4.475   3.434  0.7858  1.7591 -1.3364
19164TIP3    H278984   0.926   4.448   3.417  1.1148 -2.4818  1.1678
19165TIP3   OH278985   2.391   5.280   3.830 -0.4614 -0.0201 -0.3075
19165TIP3    H178986   2.373   5.211   3.894 -0.4225 -1.3749 -1.7267
19165TIP3    H278987   2.305   5.304   3.795 -0.4854  0.7469  0.2466
19166TIP3   OH278988   5.283   2.057  14.025  0.0516  0.0779 -0.6368
19166TIP3    H178989   5.344   1.986  14.046  0.1304  0.5958  1.0480
19166TIP3    H278990   5.280   2.109  14.105 -0.4665  1.6394 -1.6431
19167TIP3   OH278991   1.450   0.416   4.911 -0.6574 -0.5519 -0.3091
19167TIP3    H178992   1.459   0.471   4.833  0.1240 -0.2521 -0.0218
19167TIP3    H278993   1.514   0.346   4.897  0.2947  0.1030  0.5413
19168TIP3   OH278994   6.152   2.541   3.872 -0.3103 -0.1262 -0.2272
19168TIP3    H178995   6.170   2.489   3.794  1.5877 -2.4469  1.5975
19168TIP3    H278996   6.058   2.530   3.887 -0.2206 -1.9008 -0.7069
19169TIP3   OH278997   6.057   2.739  15.213  0.0760 -0.5323 -0.3251
19169TIP3    H178998   5.992   2.670  15.198  0.4640 -0.9912  0.0840
19169TIP3    H278999   6.018   2.793  15.282  1.2911 -2.4070  1.9850
19170TIP3   OH279000   6.718   4.652  12.825 -0.2241  0.0945 -0.0088
19170TIP3    H179001   6.648   4.692  12.773 -0.9492 -1.5627 -0.3525
19170TIP3    H279002   6.684   4.652  12.914 -0.6864 -0.7385 -0.1807
19171TIP3   OH279003   6.617   6.359   1.178  0.3149 -0.3625 -0.1680
19171TIP3    H179004   6.699   6.325   1.212 -0.0856 -0.5366  0.6612
19171TIP3    H279005   6.611   6.323   1.089  1.0481 -0.4841 -0.1739
19172TIP3   OH279006   3.446   2.459   1.466  0.1984  0.0415  0.1587
19172TIP3    H179007   3.434   2.552   1.481 -1.2830 -0.1705  0.4321
19172TIP3    H279008   3.429   2.418   1.551  0.0476 -0.5432 -0.1483
19173TIP3   OH279009   2.700   5.891   2.915 -0.4949  0.0549 -0.0647
19173TIP3    H179010   2.604   5.890   2.912 -0.5656  0.0185  1.3539
19173TIP3    H279011   2.722   5.841   2.994  0.7128 -0.1857 -0.5263
19174TIP3   OH279012   1.169   2.208   5.494  0.7608  0.2419 -0.1054
19174TIP3    H179013   1.164   2.165   5.579 -3.4811  1.7243  0.6604
19174TIP3    H279014   1.139   2.142   5.432 -1.1354  0.5714  0.3909
19175TIP3   OH279015   4.659   5.477   0.115 -0.4860  0.0221  0.3285
19175TIP3    H179016   4.670   5.458   0.022  0.0243  0.6334  0.2569
19175TIP3    H279017   4.707   5.558   0.129  0.7843 -0.8847  1.4541
19176TIP3   OH279018   0.827   2.569  12.735  0.4424 -0.2000 -0.0954
19176TIP3    H179019   0.745   2.579  12.687  1.4897  1.2049 -1.7238
19176TIP3    H279020   0.831   2.646  12.792  0.9527  0.1617 -0.5999
19177TIP3   OH279021   1.773   0.571  17.133  0.1661 -0.2399  0.5156
19177TIP3    H179022   1.691   0.536  17.166 -0.2316  1.0240  0.9220
19177TIP3    H279023   1.841   0.520  17.177 -0.3933 -0.7666  0.7710
19178TIP3   OH279024   5.119   6.512  13.243  0.1974 -0.2583 -0.0771
19178TIP3    H179025   5.069   6.488  13.165  1.3923 -1.9605 -0.3918
19178TIP3    H279026   5.054   6.514  13.313 -0.7366  0.3129 -0.9262
19179TIP3   OH279027   3.160   0.361   5.705 -0.5710  0.2579  0.2446
19179TIP3    H179028   3.175   0.452   5.682 -1.7476  0.4217  0.1062
19179TIP3    H279029   3.070   0.358   5.738 -0.2842 -0.7047  1.0116
19180TIP3   OH279030   0.225   6.739   5.605 -0.0409  0.8153 -0.1434
19180TIP3    H179031   0.287   6.716   5.535 -0.2146  1.2216 -0.4354
19180TIP3    H279032   0.257   6.824   5.637  0.6127  0.1898  0.9373
19181TIP3   OH279033   1.884   0.224  13.115  0.6555  0.1787  0.0373
19181TIP3    H179034   1.827   0.148  13.102  0.0515  0.2776  1.8157
19181TIP3    H279035   1.930   0.205  13.197 -0.8065  2.4695  1.4921
19182TIP3   OH279036   5.019   0.195  16.635  0.2690 -0.1322 -0.5997
19182TIP3    H179037   4.981   0.162  16.717  1.2109 -0.4199 -0.2589
19182TIP3    H279038   4.978   0.280  16.621 -0.9437 -0.7046 -0.5817
19183TIP3   OH279039   5.559   4.250   4.254  0.4703 -0.5085 -0.4208
19183TIP3    H179040   5.491   4.317   4.263  0.3853 -0.7592  1.0575
19183TIP3    H279041   5.535   4.202   4.175 -0.4998  0.0524 -0.4811
19184TIP3   OH279042   3.284   0.535   0.030  0.3169 -0.1504  0.0243
19184TIP3    H179043   3.189   0.526   0.026  0.4720 -2.8462  0.6012
19184TIP3    H279044   3.302   0.560   0.121  0.1417  1.7803 -0.4259
19185TIP3   OH279045   5.820   5.537   2.080  0.6055 -0.0497  0.0441
19185TIP3    H179046   5.821   5.626   2.044  0.8950 -0.2787 -0.5271
19185TIP3    H279047   5.813   5.549   2.175 -0.9102  0.5698 -0.1072
19186TIP3   OH279048   4.105   4.562  12.988  0.2928 -0.3050 -0.3598
19186TIP3    H179049   4.192   4.540  12.956  1.3381  2.1672  0.5503
19186TIP3    H279050   4.048   4.554  12.911  0.7960 -4.0408 -0.5214
19187TIP3   OH279051   2.072   1.627  16.299  0.1532  0.7235  0.2047
19187TIP3    H179052   2.135   1.605  16.368  1.1806 -3.6074 -1.7931
19187TIP3    H279053   1.994   1.577  16.320  0.2878 -0.2295 -1.3892
19188TIP3   OH279054   2.574   0.494   1.888 -0.1895 -0.2635 -0.4605
19188TIP3    H179055   2.635   0.532   1.824  1.6688 -0.4999  1.0681
19188TIP3    H279056   2.620   0.417   1.922 -0.6760  0.3807  1.8030
19189TIP3   OH279057   3.587   5.075  16.051  0.0250 -0.1279 -0.1754
19189TIP3    H179058   3.653   5.009  16.067  0.6005  0.2058 -1.0948
19189TIP3    H279059   3.609   5.147  16.111 -1.6322 -1.3970  2.1250
19190TIP3   OH279060   1.745   4.986   2.539  0.2690  0.3280 -0.9226
19190TIP3    H179061   1.803   5.061   2.553  0.3481 -0.1550  1.7254
19190TIP3    H279062   1.785   4.915   2.588 -2.9472  0.2184  1.9039
19191TIP3   OH279063   5.632   0.577  15.700 -0.5616  0.3189  0.1891
19191TIP3    H179064   5.652   0.510  15.765 -1.8835 -0.2255  0.0727
19191TIP3    H279065   5.714   0.591  15.653  0.7278  1.4862  2.6029
19192TIP3   OH279066   2.467   5.057   3.633  0.0134 -0.1333  0.5300
19192TIP3    H179067   2.389   5.016   3.670  0.0896 -0.2575  0.5530
19192TIP3    H279068   2.482   5.010   3.551  1.3923 -1.6593  1.6112
19193TIP3   OH279069   4.747   3.417  13.360  0.1681 -0.1296 -0.3689
19193TIP3    H179070   4.725   3.482  13.427 -0.9201 -1.8749  1.0782
19193TIP3    H279071   4.842   3.404  13.370  0.0049 -0.4966  1.0427
19194TIP3   OH279072   5.791   4.348  15.168  0.3408  0.2966 -0.6783
19194TIP3    H179073   5.701   4.322  15.184  0.4467 -1.0038 -1.9375
19194TIP3    H279074   5.787   4.400  15.087  0.8110 -0.5277 -1.2435
19195TIP3   OH279075   0.280   4.879   0.417 -0.5823 -0.0896  0.4316
19195TIP3    H179076   0.360   4.845   0.377 -1.4521 -0.9965 -0.6212
19195TIP3    H279077   0.227   4.907   0.342 -1.2056  0.5897  1.1208
19196TIP3   OH279078   5.483   6.616  15.010 -0.1899  0.0499  0.2529
19196TIP3    H179079   5.528   6.573  14.938  0.4082  1.5360 -0.3051
19196TIP3    H279080   5.553   6.649  15.067 -0.5697  1.2535  0.0576
19197TIP3   OH279081   4.233   4.082   0.060  0.0479 -0.2298 -0.1654
19197TIP3    H179082   4.303   4.133   0.019  0.0815 -1.1938 -1.3692
19197TIP3    H279083   4.189   4.039  -0.014 -1.2508 -0.3423  0.6500
19198TIP3   OH279084   4.361   0.035  11.957 -0.1579 -0.0985  0.0778
19198TIP3    H179085   4.345  -0.024  12.030  0.0671 -0.8001 -0.4299
19198TIP3    H279086   4.449   0.069  11.973 -0.6329  0.8186  0.8505
19199TIP3   OH279087   6.063   4.734  14.520  0.4110 -0.0923  0.2288
19199TIP3    H179088   6.111   4.678  14.581  0.6266  0.1407  0.2780
19199TIP3    H279089   6.117   4.813  14.513 -0.0008  0.2062  0.3417
19200TIP3   OH279090   2.551   2.098   3.751 -0.1852 -0.0323  0.0519
19200TIP3    H179091   2.497   2.125   3.677 -1.0189  1.1848  1.0629
19200TIP3    H279092   2.490   2.061   3.814  0.5116 -1.0534  0.1498
19201TIP3   OH279093   2.328   0.238  16.518 -0.3374 -0.8077  0.8124
19201TIP3    H179094   2.420   0.258  16.535  0.4741 -3.9314  0.7573
19201TIP3    H279095   2.286   0.323  16.509  2.7904  0.7744 -0.5484
19202TIP3   OH279096   0.943   3.543   5.707 -0.2048 -0.4237 -0.0733
19202TIP3    H179097   1.023   3.586   5.737 -0.6748  1.2255 -1.0675
19202TIP3    H279098   0.918   3.486   5.779  1.4025 -0.3564  0.5864
19203TIP3   OH279099   1.369   6.504  11.812 -0.5157 -0.3799  0.2087
19203TIP3    H179100   1.391   6.413  11.830  1.4751  0.0436  0.1747
19203TIP3    H279101   1.440   6.536  11.756 -1.8680  0.8424 -0.9114
19204TIP3   OH279102   3.341   2.268   1.283  0.1756 -0.7183 -0.0884
19204TIP3    H179103   3.278   2.328   1.244 -1.2061 -1.3688  1.0544
19204TIP3    H279104   3.377   2.316   1.358  0.7080 -0.5175 -0.4692
19205TIP3   OH279105   1.500   5.925  10.636 -0.2580 -1.1589 -0.1813
19205TIP3    H179106   1.583   5.934  10.590  0.5957 -1.6863  1.1840
19205TIP3    H279107   1.496   6.002  10.693 -1.9028  0.1678 -1.9581
19206TIP3   OH279108   3.088   1.726   4.286 -0.0194  0.2499  0.7841
19206TIP3    H179109   3.086   1.683   4.371 -1.2497  0.5827  0.9485
19206TIP3    H279110   3.076   1.655   4.223  3.3558 -0.3660  0.6588
19207TIP3   OH279111   5.516   4.808   0.618  0.5737 -0.4500 -0.2918
19207TIP3    H179112   5.502   4.734   0.558  3.3848 -0.2896 -1.3256
19207TIP3    H279113   5.442   4.805   0.678 -2.1402 -0.9876 -3.3917
19208TIP3   OH279114   1.694   4.295  16.430 -0.1987 -0.7908 -0.7196
19208TIP3    H179115   1.729   4.224  16.483  1.4538 -0.0932 -0.8197
19208TIP3    H279116   1.622   4.331  16.482  1.3078 -0.1940  1.0638
19209TIP3   OH279117   4.676   4.963   1.079  0.5670  0.1078 -0.0224
19209TIP3    H179118   4.620   4.888   1.057  1.4897 -0.2665 -1.1646
19209TIP3    H279119   4.765   4.929   1.074  0.9397  0.6915  1.8060
19210TIP3   OH279120   2.991   6.340  15.305  0.3270 -0.1587 -0.2141
19210TIP3    H179121   3.017   6.361  15.394 -1.2119 -0.4210  0.3293
19210TIP3    H279122   2.983   6.425  15.261  0.3927  0.0075  0.0984
19211TIP3   OH279123   3.151   5.828  11.491 -0.3560 -0.5179  0.2782
19211TIP3    H179124   3.067   5.869  11.471  0.2331  0.6143  0.0169
19211TIP3    H279125   3.214   5.900  11.486  0.4928 -1.1458  1.4693
19212TIP3   OH279126   4.753   3.412   2.779 -0.4908  0.0941 -0.6113
19212TIP3    H179127   4.799   3.464   2.713 -2.2329  1.8322 -0.5530
19212TIP3    H279128   4.774   3.454   2.862  0.5541 -1.2234 -0.1749
19213TIP3   OH279129   5.465   4.979  14.768 -0.4617 -0.0305 -0.2022
19213TIP3    H179130   5.484   5.028  14.687  1.5552 -0.2752  0.0652
19213TIP3    H279131   5.464   5.046  14.836  1.0503 -0.1652 -0.0131
19214TIP3   OH279132   2.672   0.295   4.017 -0.2663 -0.0856 -0.5476
19214TIP3    H179133   2.585   0.323   4.045 -0.0005 -0.3164  0.5511
19214TIP3    H279134   2.673   0.201   4.031 -0.0707 -0.1921 -1.2256
19215TIP3   OH279135   4.466   2.954   2.230 -0.0538 -0.8307  0.5257
19215TIP3    H179136   4.508   3.039   2.218  2.8179 -2.1498  0.4919
19215TIP3    H279137   4.444   2.926   2.141  0.2018 -0.6959  0.4179
19216TIP3   OH279138   0.243   1.545  12.553 -0.5672  0.1333  0.2789
19216TIP3    H179139   0.283   1.467  12.516 -0.5673  0.2522  0.0272
19216TIP3    H279140   0.304   1.616  12.532 -0.4612  0.1687  0.6909
19217TIP3   OH279141   1.218   0.154   1.218 -0.6817 -0.0488 -0.3962
19217TIP3    H179142   1.164   0.087   1.259 -0.8719  0.0616 -0.4647
19217TIP3    H279143   1.159   0.229   1.207 -0.1817  0.5126  0.6775
19218TIP3   OH279144   5.538   2.344  14.981  0.3154  0.5459 -0.0945
19218TIP3    H179145   5.488   2.424  14.990  0.5787  0.7643 -0.5330
19218TIP3    H279146   5.506   2.303  14.900 -0.3108 -0.1500  0.4942
19219TIP3   OH279147   5.434   6.645   3.393  0.4933 -0.2162 -0.2440
19219TIP3    H179148   5.517   6.602   3.411  1.6721  2.2757  0.6770
19219TIP3    H279149   5.411   6.688   3.475 -1.8318 -0.9428 -0.4343
19220TIP3   OH279150   3.687   1.135  14.673 -0.3602 -0.0158  0.4940
19220TIP3    H179151   3.607   1.178  14.703 -1.0969 -0.4305 -0.7722
19220TIP3    H279152   3.753   1.157  14.739 -1.3105  1.0087  1.1369
19221TIP3   OH279153   6.247   3.466   3.330  0.3507  0.0280 -0.2885
19221TIP3    H179154   6.170   3.517   3.304  0.4090 -0.6464 -1.9208
19221TIP3    H279155   6.218   3.375   3.322  1.3965 -0.2397 -1.2705
19222TIP3   OH279156   4.685   2.251  13.881 -0.6412  0.1140 -0.2462
19222TIP3    H179157   4.715   2.162  13.902 -0.0110  0.4615  0.3546
19222TIP3    H279158   4.737   2.308  13.938 -0.4664  0.9299 -1.2124
19223TIP3   OH279159   2.059   2.596  14.612 -0.1695  0.0294  0.3059
19223TIP3    H179160   2.013   2.676  14.638 -0.6706 -0.0740 -0.2350
19223TIP3    H279161   2.007   2.525  14.650 -0.6738 -0.1028 -0.5862
19224TIP3   OH279162   4.399   6.722   2.172 -0.5794  0.0052  0.4645
19224TIP3    H179163   4.325   6.721   2.111 -0.6439  1.9754  0.4589
19224TIP3    H279164   4.447   6.802   2.151  0.3592 -0.1489  1.8830
19225TIP3   OH279165   5.900   0.339  17.008  0.0416 -0.0955 -0.4667
19225TIP3    H179166   5.940   0.253  17.018  1.3467  0.4730 -0.5870
19225TIP3    H279167   5.851   0.353  17.089  0.2844 -0.7153 -0.2079
19226TIP3   OH279168   3.434   5.417   1.554  0.5525 -0.3190 -0.3662
19226TIP3    H179169   3.421   5.323   1.544 -0.6768 -0.3528  1.1511
19226TIP3    H279170   3.475   5.427   1.640 -0.1708  0.5613 -0.1054
19227TIP3   OH279171   3.700   4.665   2.388 -0.4207  0.0203 -0.5632
19227TIP3    H179172   3.632   4.621   2.337 -0.7222 -0.8062  0.5242
19227TIP3    H279173   3.673   4.655   2.479  1.7819 -1.4903  0.0139
19228TIP3   OH279174   6.320   1.257  13.912  0.1415 -0.6636 -0.0970
19228TIP3    H179175   6.291   1.317  13.980 -1.9058  3.1055 -3.8025
19228TIP3    H279176   6.414   1.270  13.907  0.0300  0.5745  0.6557
19229TIP3   OH279177   3.908   5.266   4.282  0.1418  0.0289 -0.0422
19229TIP3    H179178   3.896   5.172   4.268 -1.9979  0.3586 -0.6980
19229TIP3    H279179   4.003   5.277   4.287  0.4272 -2.2727  0.9518
19230TIP3   OH279180   4.840   2.590   0.755  0.4631 -0.3814  0.3081
19230TIP3    H179181   4.766   2.650   0.751  1.9528  1.4946 -1.0293
19230TIP3    H279182   4.859   2.569   0.663  3.8180  2.2133  0.2203
19231TIP3   OH279183   4.194   2.383  13.918  0.6514  0.2565 -0.3961
19231TIP3    H179184   4.211   2.289  13.912  1.3368  0.3675 -0.3271
19231TIP3    H279185   4.278   2.421  13.945  0.5406  0.9506 -0.9866
19232TIP3   OH279186   0.904   0.287  11.614  0.1951  0.3091  0.0243
19232TIP3    H179187   0.940   0.290  11.702 -1.9523  0.1737  0.9809
19232TIP3    H279188   0.919   0.197  11.584 -1.2190 -0.3968  1.2925
19233TIP3   OH279189   4.443   0.532   2.473 -0.5641  0.5307 -0.3664
19233TIP3    H179190   4.477   0.462   2.529 -1.0400 -0.2006 -0.9722
19233TIP3    H279191   4.363   0.561   2.516  0.2081  1.4916  0.4758
19234TIP3   OH279192   2.375   4.874  15.760  0.8925  0.9022 -0.4183
19234TIP3    H179193   2.417   4.850  15.677 -0.2355 -0.6198 -0.6047
19234TIP3    H279194   2.410   4.960  15.781  3.1342  0.2290 -1.1688
19235TIP3   OH279195   5.190   1.459  16.943 -0.1821  0.1293  0.1026
19235TIP3    H179196   5.194   1.404  16.865  1.0208 -0.4743  0.5421
19235TIP3    H279197   5.280   1.457  16.977 -0.2035  2.0880  0.3411
19236TIP3   OH279198   1.750   5.894  12.294 -0.3814 -0.5353 -0.0380
19236TIP3    H179199   1.826   5.874  12.238 -1.1734  0.2674 -1.4642
19236TIP3    H279200   1.788   5.936  12.371  0.7027 -1.0514 -0.2718
19237TIP3   OH279201   5.678   1.730   1.811 -0.0151  0.4162 -0.0998
19237TIP3    H179202   5.729   1.731   1.729 -1.0718  1.3143 -0.7785
19237TIP3    H279203   5.652   1.638   1.821 -0.2734  0.3732 -1.0399
19238TIP3   OH279204   5.303   5.929  13.024  0.7418 -0.0666 -0.0565
19238TIP3    H179205   5.315   5.857  12.962 -1.1996 -0.9256  0.4834
19238TIP3    H279206   5.292   6.007  12.970  1.2016 -0.4356 -0.6968
19239TIP3   OH279207   6.471   2.081  13.750  0.0672 -0.3135 -0.1550
19239TIP3    H179208   6.466   1.987  13.733  0.3076 -0.0761 -1.6042
19239TIP3    H279209   6.468   2.088  13.846  1.4513 -1.8843  0.0472
19240TIP3   OH279210   4.258   3.184  12.998  0.6580  0.3846  0.0564
19240TIP3    H179211   4.278   3.277  12.988 -0.0968  0.5518  0.0569
19240TIP3    H279212   4.163   3.181  13.011  0.7130 -0.3637  0.3368
19241TIP3   OH279213   0.659   1.009   1.092 -0.3893 -0.4455 -0.3590
19241TIP3    H179214   0.689   0.951   1.162 -2.1012 -2.7143 -1.3451
19241TIP3    H279215   0.714   1.087   1.099  0.8268 -1.4236  2.2079
19242TIP3   OH279216   3.612   4.861   3.202 -0.6216 -0.1372  0.6363
19242TIP3    H179217   3.542   4.884   3.263 -0.0018 -1.9722  2.1441
19242TIP3    H279218   3.656   4.787   3.244  1.1051 -0.1684 -1.1206
19243TIP3   OH279219   6.494   4.531  14.185  0.0171 -0.4116 -0.0745
19243TIP3    H179220   6.473   4.440  14.168  1.6399 -1.0588  1.1530
19243TIP3    H279221   6.512   4.568  14.099 -1.1293 -1.0876 -0.6325
19244TIP3   OH279222   2.968   2.436   5.054 -0.8957  0.0295  0.5745
19244TIP3    H179223   3.021   2.499   5.102 -0.8584  1.2845 -1.0279
19244TIP3    H279224   2.958   2.474   4.967 -1.9254 -1.6027 -0.0756
19245TIP3   OH279225   5.789   4.671   2.068 -0.0825  0.0556  0.1245
19245TIP3    H179226   5.719   4.663   2.003 -2.0459  0.7858  2.0434
19245TIP3    H279227   5.821   4.761   2.057 -0.6067  0.2716  0.3687
19246TIP3   OH279228   0.486   6.159   5.531  0.0613  0.3139 -0.5183
19246TIP3    H179229   0.440   6.082   5.497  0.3276 -0.9074  1.7101
19246TIP3    H279230   0.497   6.141   5.624  2.5183  1.8624 -0.4165
19247TIP3   OH279231   6.577   2.923  12.899  0.0984 -0.0424  0.1899
19247TIP3    H179232   6.668   2.932  12.931  0.3676 -0.0126 -0.5740
19247TIP3    H279233   6.577   2.969  12.815 -0.3821 -0.9008 -0.2856
19248TIP3   OH279234   0.955   1.766  15.158  0.2187  0.5663 -0.1473
19248TIP3    H179235   0.970   1.782  15.065  0.6566  3.9617  0.3612
19248TIP3    H279236   1.032   1.804  15.201  0.3118 -1.4535  1.6197
19249TIP3   OH279237   4.874   0.130  16.901 -0.2072 -0.4760 -0.1842
19249TIP3    H179238   4.881   0.204  16.961  1.2609 -0.5010 -0.3073
19249TIP3    H279239   4.788   0.092  16.920 -0.4688  0.5255  0.7118
19250TIP3   OH279240   6.753   5.621  12.923 -0.1814 -0.2100 -0.2109
19250TIP3    H179241   6.754   5.691  12.989 -0.6707  0.1067 -0.5286
19250TIP3    H279242   6.843   5.590  12.919  0.3310  1.3121 -1.0293
19251TIP3   OH279243   4.211   0.355   3.845 -0.1472  0.0793 -0.1015
19251TIP3    H179244   4.211   0.445   3.875  1.0649  0.0117  0.1612
19251TIP3    H279245   4.127   0.319   3.874  0.5161  0.3131  2.2992
19252TIP3   OH279246   0.867   0.373   3.749  0.1574  0.2019  0.5760
19252TIP3    H179247   0.869   0.468   3.740  0.3503  0.1878  0.4558
19252TIP3    H279248   0.959   0.348   3.765  0.5109 -0.1669 -1.6673
19253TIP3   OH279249   0.483   6.810   5.822  0.0329 -0.2172 -0.5040
19253TIP3    H179250   0.499   6.716   5.835 -0.1277 -0.7697 -3.6442
19253TIP3    H279251   0.408   6.829   5.878 -1.2783 -2.4714 -1.3672
19254TIP3   OH279252   4.236   2.818  17.126 -0.2236 -0.7846  0.0535
19254TIP3    H179253   4.229   2.751  17.057 -2.1989 -2.3309  1.6210
19254TIP3    H279254   4.179   2.889  17.097 -2.0189 -1.9502  0.5519
19255TIP3   OH279255   6.752   1.999  12.515 -0.3221 -0.6958  0.5368
19255TIP3    H179256   6.776   1.918  12.560  0.6069 -0.5286  0.3587
19255TIP3    H279257   6.704   1.969  12.437 -0.2708 -1.0579  0.6396
19256TIP3   OH279258   5.051   4.793   3.324  0.8766 -0.2260 -0.6843
19256TIP3    H179259   5.081   4.884   3.332  1.2565 -0.2767 -1.4763
19256TIP3    H279260   4.956   4.800   3.323  0.8633  0.0584  0.3728
19257TIP3   OH279261   1.783   1.465  14.553 -0.0021 -0.2855 -0.4662
19257TIP3    H179262   1.732   1.532  14.508 -0.7917  0.8176  1.9462
19257TIP3    H279263   1.872   1.500  14.554 -0.4595  0.9036  1.0179
19258TIP3   OH279264   5.490   1.455  12.831  0.0358  0.6827  0.4420
19258TIP3    H179265   5.427   1.391  12.800  0.4393  0.3830  0.2336
19258TIP3    H279266   5.545   1.474  12.755 -0.2428  1.4759  0.4290
19259TIP3   OH279267   1.957   2.941  15.213 -0.1048  0.4368  0.6535
19259TIP3    H179268   1.957   2.876  15.142  0.8922  0.8120  0.2940
19259TIP3    H279269   1.967   2.888  15.293  0.7754  0.1301  0.3592
19260TIP3   OH279270   4.277   5.150  16.849 -0.1621  0.3720  0.0347
19260TIP3    H179271   4.200   5.133  16.903  0.1649  0.4690  0.5381
19260TIP3    H279272   4.318   5.226  16.889 -0.2046  0.7858 -0.6755
19261TIP3   OH279273   4.447   1.790   3.271 -0.2444 -0.2781 -0.2413
19261TIP3    H179274   4.503   1.808   3.195  1.0784  0.8412  0.9356
19261TIP3    H279275   4.497   1.725   3.322 -0.6470 -0.2689  0.1647
19262TIP3   OH279276   4.161   0.075  16.501 -0.0170  0.3526 -0.3038
19262TIP3    H179277   4.102   0.085  16.576 -1.8672 -2.4456 -1.2609
19262TIP3    H279278   4.232   0.019  16.533 -1.2339 -1.5391 -0.7449
19263TIP3   OH279279   2.724   3.357   2.340  0.7974 -0.1551 -0.1536
19263TIP3    H179280   2.805   3.408   2.346 -0.5567  2.1044  0.3285
19263TIP3    H279281   2.655   3.421   2.358 -1.0316 -2.2954  0.8830
19264TIP3   OH279282   5.898   6.030   2.739 -0.0681 -0.3213 -0.3413
19264TIP3    H179283   5.880   6.079   2.819 -0.2195 -1.6071  0.4336
19264TIP3    H279284   5.972   6.076   2.699  0.3413  0.0356  0.8050
19265TIP3   OH279285   2.186   5.927  14.118  0.3364 -0.1728  0.0038
19265TIP3    H179286   2.168   5.897  14.029 -0.3611 -0.9776  0.3953
19265TIP3    H279287   2.104   5.911  14.166  0.0896  1.9001  0.3870
19266TIP3   OH279288   3.861   3.980  16.485  0.1617  0.2190  0.2113
19266TIP3    H179289   3.863   4.011  16.395  0.5538  3.4049  1.1930
19266TIP3    H279290   3.771   3.947  16.497 -0.6972  2.1194 -0.6659
19267TIP3   OH279291   4.102   1.944   0.432 -0.3016 -0.8237  0.6670
19267TIP3    H179292   4.061   1.995   0.363 -1.0215 -0.6112  1.2375
19267TIP3    H279293   4.195   1.944   0.411 -0.5319 -0.9058 -0.3888
19268TIP3   OH279294   1.442   3.962   2.573  0.0124  0.3002  0.4827
19268TIP3    H179295   1.417   3.968   2.666  2.9973  3.8284  1.3029
19268TIP3    H279296   1.403   4.039   2.533 -1.8772 -1.5846 -1.5170
19269TIP3   OH279297   5.593   4.343   5.499  0.1843  0.0857  0.0749
19269TIP3    H179298   5.572   4.363   5.590 -3.0744 -3.1046  0.2147
19269TIP3    H279299   5.562   4.419   5.450 -0.6522  0.6443  1.4231
19270TIP3   OH279300   3.776   3.750   0.717  1.0888  0.3985  0.2154
19270TIP3    H179301   3.704   3.808   0.694  1.1931  0.5122  0.1700
19270TIP3    H279302   3.854   3.796   0.686  1.0870 -0.2975 -0.8665
19271TIP3   OH279303   5.838   1.710   4.551  0.4018 -0.4753  0.8608
19271TIP3    H179304   5.806   1.799   4.535  0.5932 -0.3840  0.9849
19271TIP3    H279305   5.926   1.722   4.587  0.0828 -0.6785  1.7445
19272TIP3   OH279306   1.533   1.928   2.452  0.5668 -0.3770 -0.6343
19272TIP3    H179307   1.495   1.840   2.443 -0.5897 -0.2969  2.3597
19272TIP3    H279308   1.562   1.932   2.543  1.4297  2.0610 -0.9539
19273TIP3   OH279309   4.784   0.617  13.737  0.3149  0.0858  0.3654
19273TIP3    H179310   4.723   0.677  13.781  0.3176  0.1619  0.2655
19273TIP3    H279311   4.782   0.643  13.645  2.5896  1.9584  0.7412
19274TIP3   OH279312   0.143   6.227  17.087  0.4383 -0.5993  0.1044
19274TIP3    H179313   0.139   6.133  17.101  2.2676 -0.5456  1.3464
19274TIP3    H279314   0.210   6.258  17.148  0.3174  1.4239 -0.6971
19275TIP3   OH279315   6.002   5.017  13.917 -0.5103  0.0322  0.6216
19275TIP3    H179316   5.942   4.943  13.908  0.4138 -1.0985  2.8885
19275TIP3    H279317   6.076   4.982  13.966 -0.0265  2.4287  1.7664
19276TIP3   OH279318   5.488   3.447  11.841 -0.0190 -0.3461  0.1113
19276TIP3    H179319   5.411   3.501  11.858 -0.0814 -0.1911 -0.6212
19276TIP3    H279320   5.561   3.509  11.837 -0.0444 -0.3498 -0.4285
19277TIP3   OH279321   4.140   3.977  11.423  0.2547  0.1714 -0.8224
19277TIP3    H179322   4.161   3.915  11.494  0.6615  0.0456 -1.0518
19277TIP3    H279323   4.149   4.063  11.464  0.5235  0.1008 -0.7284
19278TIP3   OH279324   3.248   2.439   4.001  0.0276  0.3284 -0.9265
19278TIP3    H179325   3.256   2.532   4.023  2.9348 -0.0749  0.0690
19278TIP3    H279326   3.338   2.410   3.986 -0.2819 -3.2260  2.6641
19279TIP3   OH279327   0.902   5.196  15.470  0.3206  0.3094  0.3941
19279TIP3    H179328   0.919   5.102  15.467  2.7415  0.7089 -0.1469
19279TIP3    H279329   0.922   5.220  15.560  0.3792  0.4109  0.3535
19280TIP3   OH279330   3.019   4.640  11.145 -0.3429 -0.1665  0.2587
19280TIP3    H179331   3.073   4.719  11.134  1.2596 -1.3517 -0.9860
19280TIP3    H279332   3.076   4.580  11.192 -0.7663 -1.2824 -0.6262
19281TIP3   OH279333   0.607   4.932  16.194 -0.3597  0.3025  0.2554
19281TIP3    H179334   0.632   4.896  16.109 -1.5622 -2.3630  0.9562
19281TIP3    H279335   0.664   5.009  16.205 -0.2226  0.7714 -2.9396
19282TIP3   OH279336   0.970   0.658   0.460 -0.1894 -0.3910 -0.2388
19282TIP3    H179337   0.963   0.583   0.519 -0.1968 -0.4800 -0.3525
19282TIP3    H279338   0.961   0.621   0.373  2.4356 -0.6645 -0.4978
19283TIP3   OH279339   0.736   2.158  15.299  0.2341  0.7898 -0.3683
19283TIP3    H179340   0.714   2.249  15.314  0.7867  0.8544  0.1029
19283TIP3    H279341   0.815   2.143  15.352  1.4784  0.6550 -2.1681
19284TIP3   OH279342   4.778   5.047  11.330  0.0767 -0.2052  0.3404
19284TIP3    H179343   4.758   5.087  11.414  0.1958 -0.8253  0.6735
19284TIP3    H279344   4.856   5.093  11.299 -0.0269  0.0916  0.5249
19285TIP3   OH279345   4.440   3.597  16.114  0.1249 -0.2820  0.0966
19285TIP3    H179346   4.349   3.570  16.129  0.4047 -0.6706  1.2631
19285TIP3    H279347   4.434   3.671  16.054 -0.9288 -0.5805 -0.1893
19286TIP3   OH279348   0.323   3.529   5.939 -0.4341 -0.2069 -0.1911
19286TIP3    H179349   0.376   3.450   5.930  0.9989  0.9151 -2.5245
19286TIP3    H279350   0.347   3.564   6.025  1.0856 -0.8154 -0.3318
19287TIP3   OH279351   6.212   5.594   2.459 -0.1964 -0.0347 -0.3676
19287TIP3    H179352   6.147   5.530   2.430  0.2315 -1.2244  1.1117
19287TIP3    H279353   6.216   5.581   2.554  0.7819  1.3798 -0.1928
19288TIP3   OH279354   1.641   3.076   4.758 -0.0413 -0.2321 -0.4477
19288TIP3    H179355   1.609   3.138   4.823  1.6987 -1.1687  1.4287
19288TIP3    H279356   1.639   3.123   4.675 -4.0100  0.4637 -0.1338
19289TIP3   OH279357   1.927   2.012   1.573  0.6515  0.1983  0.2662
19289TIP3    H179358   1.982   1.966   1.509  2.3662  0.7205  1.3001
19289TIP3    H279359   1.905   2.095   1.530 -0.8795 -0.7134 -0.8467
19290TIP3   OH279360   0.852   6.552   3.106  0.4498 -0.4508  0.3290
19290TIP3    H179361   0.899   6.477   3.143  1.5637  0.3095  0.5251
19290TIP3    H279362   0.813   6.595   3.182 -2.0791 -2.0067  0.0213
19291TIP3   OH279363   2.108   5.372  16.893 -0.2550 -0.0846 -0.0659
19291TIP3    H179364   2.189   5.355  16.846 -0.9607 -2.4977 -0.5289
19291TIP3    H279365   2.136   5.403  16.979  1.0805  1.6344 -1.0606
19292TIP3   OH279366   4.206   4.134  10.158  0.2814 -0.3357 -0.0994
19292TIP3    H179367   4.242   4.054  10.194  0.3869 -0.2548 -0.0244
19292TIP3    H279368   4.282   4.186  10.133  0.2139 -0.2659 -0.1622
19293TIP3   OH279369   2.526   2.585  13.733  0.6399  0.2355 -0.1428
19293TIP3    H179370   2.450   2.641  13.749  0.8819  0.5075  0.0710
19293TIP3    H279371   2.498   2.525  13.665  0.1375  0.1450  0.1449
19294TIP3   OH279372   6.803   6.559  12.368  0.3291 -0.1132  0.1269
19294TIP3    H179373   6.752   6.524  12.295  1.1505  0.9222 -0.9714
19294TIP3    H279374   6.744   6.622  12.409  0.1959 -0.0059 -0.2259
19295TIP3   OH279375   3.263   1.454   1.605 -0.0927  0.4811 -0.2166
19295TIP3    H179376   3.184   1.493   1.642 -0.7490 -0.0124 -1.0652
19295TIP3    H279377   3.267   1.366   1.643  0.6592  0.8777  0.6651
19296TIP3   OH279378   3.939   1.305  12.771 -0.7741 -0.5321 -0.1669
19296TIP3    H179379   3.881   1.253  12.828 -0.6769  1.7091  2.1540
19296TIP3    H279380   4.025   1.264  12.781 -0.9891 -0.8683  0.3520
19297TIP3   OH279381   3.846   4.356   1.721  0.0095 -0.6657 -0.2486
19297TIP3    H179382   3.797   4.414   1.780  0.5431 -0.1517 -0.2990
19297TIP3    H279383   3.931   4.400   1.710  0.5871 -1.6712  0.0648
19298TIP3   OH279384   1.793   4.281  15.520  0.9187  0.0297 -0.0900
19298TIP3    H179385   1.845   4.266  15.599  1.7142  1.3575 -0.3263
19298TIP3    H279386   1.715   4.226  15.532  1.6084 -0.7522  1.0282
19299TIP3   OH279387   4.870   6.583  12.219 -0.0240  0.6349 -0.2398
19299TIP3    H179388   4.784   6.543  12.207 -0.2581 -0.4670  3.6103
19299TIP3    H279389   4.851   6.675  12.237 -0.3166  0.6217 -0.4840
19300TIP3   OH279390   5.990   4.531   0.843 -0.2824  0.3087  0.0408
19300TIP3    H179391   6.038   4.455   0.877 -2.9265 -2.0653 -1.1579
19300TIP3    H279392   6.057   4.586   0.803  1.7749 -1.2989  1.1055
19301TIP3   OH279393   1.962   3.348   5.165  0.0012  0.6988  0.1461
19301TIP3    H179394   2.036   3.293   5.139  0.0635  0.0703  1.5395
19301TIP3    H279395   1.901   3.288   5.208 -0.4372  1.5213  0.7097
19302TIP3   OH279396   6.058   1.911  16.290 -0.2032 -0.6338 -0.2363
19302TIP3    H179397   5.996   1.952  16.350 -0.3921 -0.6308 -0.4289
19302TIP3    H279398   6.144   1.945  16.316 -0.3745  0.0440 -0.5118
19303TIP3   OH279399   4.571   1.483  15.807 -0.6909  0.6576 -0.2005
19303TIP3    H179400   4.619   1.522  15.881  1.3036  0.5263 -1.3654
19303TIP3    H279401   4.565   1.390  15.828 -0.0568  0.6074 -0.2194
19304TIP3   OH279402   5.274   3.140  13.595 -0.1389 -0.3307  0.5279
19304TIP3    H179403   5.244   3.227  13.567 -0.9461 -0.9691 -0.6715
19304TIP3    H279404   5.291   3.150  13.688 -0.7847  0.9702  0.5363
19305TIP3   OH279405   1.086   0.527   4.108  0.0017  0.5402 -0.0609
19305TIP3    H179406   0.997   0.536   4.144  0.0664  2.1280 -0.2327
19305TIP3    H279407   1.111   0.437   4.128 -1.2051  0.4185  1.0204
19306TIP3   OH279408   2.253   5.084  15.093 -0.5022  0.4738 -0.3686
19306TIP3    H179409   2.265   5.165  15.143 -0.9291 -0.0845  0.6767
19306TIP3    H279410   2.162   5.060  15.110 -0.2231 -0.5050 -0.2268
19307TIP3   OH279411   5.170   2.551  13.085 -1.3083  0.3904 -0.6317
19307TIP3    H179412   5.145   2.502  13.006  0.2356  0.5585 -1.2767
19307TIP3    H279413   5.208   2.485  13.143 -0.6319  0.5604 -0.8672
19308TIP3   OH279414   5.984   4.630  15.216 -0.2188 -0.5660  0.8942
19308TIP3    H179415   5.912   4.582  15.175 -0.0989 -0.9885  1.1737
19308TIP3    H279416   6.061   4.606  15.165 -0.7795  2.8823 -1.9400
19309TIP3   OH279417   4.138   4.220  16.037 -0.4387  0.0852 -0.2023
19309TIP3    H179418   4.231   4.244  16.030  0.1438 -1.6099  1.0634
19309TIP3    H279419   4.132   4.133  15.998 -0.9235 -0.9593  2.0330
19310TIP3   OH279420   6.055   5.464  15.130 -0.0097 -0.4984  0.1027
19310TIP3    H179421   5.988   5.532  15.136  0.7016  0.0831  2.2461
19310TIP3    H279422   6.006   5.382  15.134 -0.7947 -0.1495 -1.5192
19311TIP3   OH279423   4.162   0.810   1.089  0.0597 -0.1925  0.2085
19311TIP3    H179424   4.186   0.858   1.009 -0.1475 -1.2649 -0.5203
19311TIP3    H279425   4.076   0.844   1.112  0.5657  0.8794  0.5977
19312TIP3   OH279426   5.494   2.534   0.088  0.4649 -0.0044  0.6491
19312TIP3    H179427   5.495   2.447   0.127  1.0475 -0.0968  0.4371
19312TIP3    H279428   5.493   2.519  -0.007  1.2137  0.2083  0.5983
19313TIP3   OH279429   0.219   4.249   5.431  0.5744 -0.8262  0.3279
19313TIP3    H179430   0.253   4.171   5.387  2.1111 -0.0463  0.0714
19313TIP3    H279431   0.296   4.289   5.472 -0.4179 -0.1855  1.6434
19314TIP3   OH279432   4.353   2.436   0.237  0.0667  0.0735 -0.3532
19314TIP3    H179433   4.379   2.492   0.163  1.3019  0.3799  0.2745
19314TIP3    H279434   4.258   2.437   0.236  0.0656  0.5488 -1.5886
19315TIP3   OH279435   1.850   0.102   5.468 -0.7161 -0.3725  0.1918
19315TIP3    H179436   1.790   0.056   5.526 -0.3833 -2.8339 -1.2683
19315TIP3    H279437   1.937   0.073   5.496 -0.3413  0.9646  0.4917
19316TIP3   OH279438   6.422   2.374   5.839 -0.8701 -0.5347 -0.1271
19316TIP3    H179439   6.348   2.367   5.779 -1.7971 -0.7505  1.0076
19316TIP3    H279440   6.383   2.394   5.924  0.3997 -0.3538  0.4429
19317TIP3   OH279441   3.908   3.562   0.852  1.0977 -0.3433 -1.0967
19317TIP3    H179442   3.859   3.640   0.825  0.7107 -0.6603 -1.3078
19317TIP3    H279443   3.959   3.539   0.774  0.2770 -1.0272 -1.4429
19318TIP3   OH279444   1.261   1.979   3.829  0.3436  0.2577  0.5735
19318TIP3    H179445   1.295   1.935   3.751  1.4547  0.1341  1.1017
19318TIP3    H279446   1.244   2.068   3.801 -0.3808 -0.0846 -0.1000
19319TIP3   OH279447   6.628   1.754  11.911 -0.0564 -0.5385 -0.4526
19319TIP3    H179448   6.538   1.766  11.939 -0.2326 -1.2618 -0.6862
19319TIP3    H279449   6.637   1.807  11.832 -0.5166 -1.1128 -0.8945
19320TIP3   OH279450   0.074   0.461  11.272  0.1447  0.1268 -0.0831
19320TIP3    H179451   0.078   0.489  11.180  0.0516 -0.3040 -0.2183
19320TIP3    H279452   0.033   0.375  11.270 -0.1100  0.2310  0.3914
19321TIP3   OH279453   5.619   4.079  14.675 -0.6746  0.1433 -0.0816
19321TIP3    H179454   5.587   4.066  14.585  0.5419  0.1843 -0.5383
19321TIP3    H279455   5.703   4.033  14.677 -1.2596 -0.9344  1.4204
19322TIP3   OH279456   4.419   4.823   3.056  0.4619  0.0903  0.3323
19322TIP3    H179457   4.402   4.821   3.151 -1.4303  0.9638  0.0563
19322TIP3    H279458   4.333   4.841   3.017  1.1883 -0.4115 -1.5685
19323TIP3   OH279459   3.097   4.481  13.714 -0.5228  0.6378 -0.0221
19323TIP3    H179460   3.131   4.397  13.681  1.0810  1.0535  0.4763
19323TIP3    H279461   3.152   4.547  13.672 -1.0449  1.3856  0.4539
19324TIP3   OH279462   4.544   0.013   1.528  0.1502 -0.1017  0.6101
19324TIP3    H179463   4.625  -0.004   1.480  1.2059 -0.0606  2.2764
19324TIP3    H279464   4.487   0.058   1.466  0.1899 -2.8082 -1.5798
19325TIP3   OH279465   1.411   2.959  15.753 -0.3260  0.0554 -0.1881
19325TIP3    H179466   1.342   2.988  15.812 -0.2040  0.2200 -0.1251
19325TIP3    H279467   1.484   2.937  15.810 -0.6285 -0.9856 -0.1935
19326TIP3   OH279468   0.569   2.979  15.814  0.1408 -0.0798 -0.4612
19326TIP3    H179469   0.589   3.060  15.767  1.1594 -0.0656 -0.0177
19326TIP3    H279470   0.565   2.912  15.745 -0.6961  0.3256 -0.8280
19327TIP3   OH279471   6.401   3.221  13.524 -0.0300 -0.5182 -0.4962
19327TIP3    H179472   6.443   3.271  13.594  1.6267 -1.7032 -0.5915
19327TIP3    H279473   6.331   3.173  13.568 -0.2446  0.2200 -0.0142
19328TIP3   OH279474   0.535   4.735  15.044 -0.4671  0.3857 -0.5875
19328TIP3    H179475   0.580   4.651  15.040 -0.7984  0.1692  0.1251
19328TIP3    H279476   0.505   4.751  14.955 -0.7481 -0.4404 -0.6427
19329TIP3   OH279477   3.678   1.423  11.749 -0.1055  0.5139  0.3190
19329TIP3    H179478   3.760   1.453  11.709 -0.2062 -0.4691 -0.6694
19329TIP3    H279479   3.612   1.483  11.716  0.1045  0.8847  0.5637
19330TIP3   OH279480   5.026   5.857   2.007  0.2256  0.1148 -0.0361
19330TIP3    H179481   5.089   5.929   2.010 -0.0804  0.3659  0.5036
19330TIP3    H279482   5.013   5.840   1.914  0.3605  0.7069 -0.1652
19331TIP3   OH279483   2.953   4.005   1.824  0.0568  0.0768 -0.0037
19331TIP3    H179484   3.026   4.065   1.809  0.1322 -0.3582 -1.5521
19331TIP3    H279485   2.993   3.918   1.828 -0.1296  0.0330  1.5526
19332TIP3   OH279486   2.905   4.551   3.174 -0.0700 -0.0751 -0.0837
19332TIP3    H179487   2.959   4.485   3.130  0.3368  0.3172 -0.1923
19332TIP3    H279488   2.854   4.502   3.239  0.3526 -0.4711 -0.0428
19333TIP3   OH279489   1.795   4.429   5.357 -0.4424  0.4661  0.1987
19333TIP3    H179490   1.713   4.448   5.402 -1.8078 -1.2657 -1.4043
19333TIP3    H279491   1.802   4.498   5.290  0.6805  1.9960  1.8225
19334TIP3   OH279492   5.798   5.684   2.331 -0.2752  0.4580  0.1114
19334TIP3    H179493   5.711   5.689   2.371 -1.0056  0.5303 -1.4123
19334TIP3    H279494   5.794   5.746   2.258 -0.6179 -2.8708 -2.9638
19335TIP3   OH279495   5.335   0.451   2.487  0.2256 -0.4466 -0.2142
19335TIP3    H179496   5.419   0.463   2.443  1.0393  0.1857  1.4303
19335TIP3    H279497   5.358   0.434   2.578 -1.4254 -0.7504  0.1811
19336TIP3   OH279498   2.450   2.764  14.871  0.0959 -0.0665 -0.2221
19336TIP3    H179499   2.376   2.705  14.859  1.0424 -1.5863  1.1381
19336TIP3    H279500   2.420   2.828  14.935 -0.5984  0.3759 -0.9685
19337TIP3   OH279501   4.475   5.205   2.275  0.8844 -0.3521  0.3648
19337TIP3    H179502   4.502   5.223   2.185  0.6306  0.9740  0.5303
19337TIP3    H279503   4.498   5.114   2.290 -0.1300 -0.9512 -1.4362
19338TIP3   OH279504   6.694   1.278  11.340 -0.5627  0.0052  0.0129
19338TIP3    H179505   6.664   1.358  11.383 -1.2893 -0.3894  0.2672
19338TIP3    H279506   6.788   1.277  11.354 -0.4839  1.0070 -0.3323
19339TIP3   OH279507   5.215   1.826  12.533 -0.3032 -0.4675 -0.8115
19339TIP3    H179508   5.220   1.752  12.593 -1.3728  1.0351  1.2659
19339TIP3    H279509   5.306   1.842  12.507  0.1896 -1.1791  0.4029
19340TIP3   OH279510   4.269   5.761   3.224 -0.4559  0.0360  0.5149
19340TIP3    H179511   4.317   5.774   3.305  0.1463  0.8796  0.0462
19340TIP3    H279512   4.256   5.849   3.189  0.6425 -0.3740 -1.0527
19341TIP3   OH279513   3.740   1.933  12.546  0.4365  0.5650 -0.0250
19341TIP3    H179514   3.772   1.893  12.627 -0.0117  1.2708  0.5070
19341TIP3    H279515   3.647   1.910  12.544  0.6524 -0.3371 -0.8847
19342TIP3   OH279516   1.260   3.459   0.005 -0.2413 -0.0203 -0.2227
19342TIP3    H179517   1.175   3.475   0.045  0.2351  0.4687  0.6415
19342TIP3    H279518   1.241   3.430  -0.084 -1.4329 -3.3175  0.9661
19343TIP3   OH279519   3.703   5.335  11.542  0.1192 -0.4025 -0.2842
19343TIP3    H179520   3.714   5.252  11.589  0.8269 -0.7535 -1.0421
19343TIP3    H279521   3.741   5.400  11.600 -0.8093 -0.5383  0.5018
19344TIP3   OH279522   4.500   6.471   2.093  0.5499 -0.0281  0.2729
19344TIP3    H179523   4.456   6.549   2.126  0.1752 -0.5555  1.0517
19344TIP3    H279524   4.511   6.415   2.170  0.5710 -0.8541 -0.3172
19345TIP3   OH279525   6.033   0.063   0.780  0.1625  0.2367 -0.3911
19345TIP3    H179526   6.077   0.130   0.832 -0.8986  0.1013  0.7460
19345TIP3    H279527   6.061  -0.020   0.819  2.9249 -0.2028 -2.9244
19346TIP3   OH279528   2.735   4.639   2.721 -0.3321 -0.3070  0.1017
19346TIP3    H179529   2.718   4.545   2.714 -1.4685 -0.0521 -0.9994
19346TIP3    H279530   2.810   4.654   2.664 -1.1651 -0.3255 -1.0396
19347TIP3   OH279531   6.248   1.439   1.543 -0.1053 -0.0367 -0.1735
19347TIP3    H179532   6.279   1.471   1.627  0.9632 -0.5659 -0.3582
19347TIP3    H279533   6.256   1.344   1.549 -1.3722 -0.1804 -0.3617
19348TIP3   OH279534   4.422   2.108   4.745  0.1831 -0.1456  0.6026
19348TIP3    H179535   4.365   2.032   4.745 -0.9243  0.6272 -1.2865
19348TIP3    H279536   4.483   2.093   4.673  0.0177  0.6807  0.2746
19349TIP3   OH279537   6.133   1.009  16.481  0.4771 -0.0522  0.4052
19349TIP3    H179538   6.134   0.953  16.559  0.5579 -0.8229 -0.1413
19349TIP3    H279539   6.208   1.067  16.492 -0.4041  0.9248  1.6536
19350TIP3   OH279540   3.191   6.399  16.123 -0.4534  0.1832  0.2537
19350TIP3    H179541   3.167   6.485  16.159  1.9145  1.4016 -0.7685
19350TIP3    H279542   3.248   6.361  16.190 -1.8610 -0.8479  0.9039
19351TIP3   OH279543   0.088   6.129   5.192 -0.0575  0.4075  0.7299
19351TIP3    H179544   0.146   6.199   5.161 -1.1977  1.1291  0.1560
19351TIP3    H279545   0.007   6.174   5.216 -0.8778 -0.7297  0.1867
19352TIP3   OH279546   1.405   0.760   0.155 -0.2430  0.4939 -0.0038
19352TIP3    H179547   1.339   0.726   0.095 -1.2547  2.4692 -0.0891
19352TIP3    H279548   1.369   0.743   0.242  0.3468 -0.6742  0.0342
19353TIP3   OH279549   1.962   4.942  11.259 -0.2356  0.3814 -0.0939
19353TIP3    H179550   1.910   4.867  11.231  0.6358  0.1757 -1.2031
19353TIP3    H279551   1.925   5.016  11.211 -0.0667  0.3809 -0.2268
19354TIP3   OH279552   2.585   4.921  15.528 -0.1842  0.1878 -0.2585
19354TIP3    H179553   2.634   4.996  15.494 -0.8283  0.6449 -0.1902
19354TIP3    H279554   2.493   4.943  15.513 -0.3778 -0.6415 -0.3468
19355TIP3   OH279555   4.631   4.689   5.997 -0.1794 -0.1010 -0.6591
19355TIP3    H179556   4.654   4.772   6.038 -1.4832 -0.1023  0.1436
19355TIP3    H279557   4.663   4.622   6.057 -1.3805 -0.1145  0.0017
19356TIP3   OH279558   3.840   1.741  13.962  0.3146 -0.8377  0.3178
19356TIP3    H179559   3.888   1.706  13.887 -1.5155 -2.5258 -0.1478
19356TIP3    H279560   3.761   1.780  13.924  0.2655 -0.0194  1.2241
19357TIP3   OH279561   1.202   5.828  13.862  0.1406 -0.5760  0.4035
19357TIP3    H179562   1.257   5.904  13.883 -1.4671  0.7498  0.0357
19357TIP3    H279563   1.136   5.827  13.932 -0.7485 -0.7016 -0.4240
19358TIP3   OH279564   1.147   2.583  15.548  0.0064 -0.3505  0.4021
19358TIP3    H179565   1.168   2.533  15.627  0.3552 -1.1477 -0.1776
19358TIP3    H279566   1.062   2.548  15.520 -0.2421  0.1128  0.5578
19359TIP3   OH279567   6.152   6.789  11.904 -0.1368  0.6105 -0.3616
19359TIP3    H179568   6.237   6.832  11.913 -0.5480  0.9650  3.0219
19359TIP3    H279569   6.095   6.857  11.868 -0.0201  1.9782  1.8549
19360TIP3   OH279570   2.202   1.216   4.540 -0.0880  0.7851 -0.0306
19360TIP3    H179571   2.107   1.206   4.537 -0.3205  1.4486  2.9276
19360TIP3    H279572   2.235   1.128   4.561 -0.0650  0.6609 -0.5700
19361TIP3   OH279573   3.825   6.253   0.593 -0.2880 -0.3340  0.4443
19361TIP3    H179574   3.792   6.179   0.543  0.2577  0.4753 -1.1906
19361TIP3    H279575   3.885   6.214   0.656 -0.0175 -1.2812 -0.3711
19362TIP3   OH279576   2.988   5.607   5.752  0.3093  0.0061 -0.3486
19362TIP3    H179577   2.897   5.633   5.737  0.2261  0.3687  0.7434
19362TIP3    H279578   3.027   5.680   5.799  0.1971 -1.5469  2.3611
19363TIP3   OH279579   4.458   1.033   3.598  0.0535  0.0391  0.6430
19363TIP3    H179580   4.460   1.070   3.510  2.1156 -0.1313  0.5799
19363TIP3    H279581   4.403   0.955   3.590  1.4886 -0.8840 -0.9187
19364TIP3   OH279582   4.838   0.867  12.173 -0.5874 -0.8696 -0.0288
19364TIP3    H179583   4.800   0.809  12.107  0.2953 -1.2114 -0.2510
19364TIP3    H279584   4.796   0.840  12.255 -0.4564 -1.5805 -0.1887
19365TIP3   OH279585   4.451   3.636   5.815 -0.4721  0.7466 -0.0710
19365TIP3    H179586   4.478   3.719   5.777 -1.9517  1.5132  0.4988
19365TIP3    H279587   4.411   3.589   5.741 -0.1157  0.7512 -0.2701
19366TIP3   OH279588   1.657   6.233  14.141  0.2115 -0.5210 -0.1839
19366TIP3    H179589   1.632   6.226  14.049  0.2312  0.5986 -0.2788
19366TIP3    H279590   1.609   6.309  14.174 -0.0557 -1.1099  0.8255
19367TIP3   OH279591   3.440   0.472  15.390  0.5358  0.3742 -0.0209
19367TIP3    H179592   3.424   0.384  15.425  1.2902  0.0195 -0.5359
19367TIP3    H279593   3.361   0.491  15.338 -0.0848  0.4394  0.9220
19368TIP3   OH279594   3.236   3.430  13.505  0.4118 -0.1843  0.3080
19368TIP3    H179595   3.201   3.515  13.532 -0.1268 -0.2053 -0.2940
19368TIP3    H279596   3.272   3.392  13.585  0.1176  0.3546  0.7008
19369TIP3   OH279597   5.175   1.335  12.764 -0.1754 -0.1496 -0.5949
19369TIP3    H179598   5.207   1.299  12.681 -0.8950 -1.7608 -0.2098
19369TIP3    H279599   5.080   1.326  12.759 -0.2154 -0.4485  0.4836
19370TIP3   OH279600   0.524   0.755   3.166 -0.7330  0.2119 -0.7398
19370TIP3    H179601   0.486   0.675   3.202  0.4508  0.1796  0.5592
19370TIP3    H279602   0.610   0.727   3.134  0.5621  1.2465  1.5561
19371TIP3   OH279603   5.947   5.458  13.216  0.3500  0.2818  0.3141
19371TIP3    H179604   5.854   5.462  13.238 -0.2301  1.6895 -1.9937
19371TIP3    H279605   5.949   5.407  13.134  1.3844  1.5992 -0.5039
19372TIP3   OH279606   2.983   5.416  14.181 -0.3346 -0.6407  0.1177
19372TIP3    H179607   3.045   5.346  14.200  1.1497  1.0390  1.8372
19372TIP3    H279608   2.926   5.420  14.257 -1.5050 -1.0485 -0.7087
19373TIP3   OH279609   2.413   0.593   4.693  0.3007  0.2959 -0.3548
19373TIP3    H179610   2.341   0.650   4.666 -0.7889 -0.0986  1.5166
19373TIP3    H279611   2.482   0.653   4.720  0.3347  0.6863 -1.2607
19374TIP3   OH279612   0.822   2.677   3.776  0.2140  0.1609  0.6391
19374TIP3    H179613   0.743   2.729   3.763 -0.8273 -1.7005 -1.0364
19374TIP3    H279614   0.790   2.587   3.787  2.0634 -0.5228  0.8054
19375TIP3   OH279615   6.627   4.809   0.609  0.2276  0.0064  0.0325
19375TIP3    H179616   6.644   4.860   0.688 -0.5417 -1.9977  1.5756
19375TIP3    H279617   6.564   4.862   0.560  1.4096  1.7066  0.2715
19376TIP3   OH279618   6.464   2.905  17.108  0.9079 -0.3582 -0.3226
19376TIP3    H179619   6.394   2.858  17.063 -0.7654  0.0962  1.6231
19376TIP3    H279620   6.418   2.965  17.167  2.9581  0.5678  0.4302
19377TIP3   OH279621   2.149   1.427  12.210 -0.4880  0.1386  0.1451
19377TIP3    H179622   2.185   1.489  12.273  0.6135 -1.4027  1.1029
19377TIP3    H279623   2.057   1.418  12.235 -0.0409 -0.5609  1.6787
19378TIP3   OH279624   4.697   3.853  15.878  0.1284  0.8882  0.6393
19378TIP3    H179625   4.770   3.907  15.907  0.8828 -0.1959  0.8184
19378TIP3    H279626   4.693   3.869  15.783  0.3689  1.2230  0.6810
19379TIP3   OH279627   2.949   4.337   0.211 -0.0710 -0.1624  0.0878
19379TIP3    H179628   2.873   4.283   0.187  0.4404 -0.6998 -0.3634
19379TIP3    H279629   3.010   4.325   0.139  0.3339  0.4914  0.3155
19380TIP3   OH279630   4.991   0.849  16.106 -0.1830 -0.4121 -0.6097
19380TIP3    H179631   5.000   0.820  16.015 -0.9806 -0.9983 -0.5124
19380TIP3    H279632   4.965   0.770  16.153  0.1441 -0.0898  0.1164
19381TIP3   OH279633   6.212   2.933  16.896 -0.5088 -0.2609 -0.0474
19381TIP3    H179634   6.275   3.000  16.871 -0.3713 -1.3490 -3.0607
19381TIP3    H279635   6.159   2.973  16.965  1.0915  2.0096 -0.0405
19382TIP3   OH279636   6.268   6.654  12.431 -0.1026 -0.5897  0.5194
19382TIP3    H179637   6.217   6.626  12.355 -0.0836  0.1003  0.2408
19382TIP3    H279638   6.222   6.617  12.506 -0.5646 -0.6392  0.2175
19383TIP3   OH279639   1.513   1.804  13.913  0.3307  0.4983 -0.2059
19383TIP3    H179640   1.540   1.733  13.854 -0.2828  0.2589 -0.2121
19383TIP3    H279641   1.424   1.826  13.884  0.1286  0.5685  0.4460
19384TIP3   OH279642   6.230   1.116   6.442 -0.1709  0.2313  0.3436
19384TIP3    H179643   6.318   1.079   6.449  0.2399  1.3320  1.2432
19384TIP3    H279644   6.177   1.045   6.405  1.0032 -0.5763  0.1622
19385TIP3   OH279645   5.131   6.489   6.193 -0.2143 -0.7731  0.0671
19385TIP3    H179646   5.088   6.574   6.199  0.7502 -0.1631 -1.0962
19385TIP3    H279647   5.185   6.495   6.114  1.2793 -1.8142  0.9582
19386TIP3   OH279648   3.430   6.577   3.940  0.2149  0.4109  0.0575
19386TIP3    H179649   3.496   6.644   3.922  0.6690  0.5401  2.0486
19386TIP3    H279650   3.396   6.599   4.026 -0.2599 -1.4266  0.3828
19387TIP3   OH279651   2.350   5.815  11.052  0.2030 -0.3902 -0.1001
19387TIP3    H179652   2.313   5.863  10.978 -0.5907 -0.5617  0.1800
19387TIP3    H279653   2.329   5.869  11.128  1.4208  0.0259 -0.0305
19388TIP3   OH279654   2.382   4.319  15.784 -0.0843 -0.2067  0.6132
19388TIP3    H179655   2.387   4.351  15.693 -1.0371  1.4909  1.1096
19388TIP3    H279656   2.470   4.288  15.803  1.8624  4.5858  0.8549
19389TIP3   OH279657   2.564   4.693  14.790  0.0418 -0.4740 -0.2800
19389TIP3    H179658   2.607   4.742  14.860  3.0507 -0.9682 -1.6241
19389TIP3    H279659   2.578   4.747  14.712 -1.6549 -0.8038 -0.8509
19390TIP3   OH279660   1.876   4.306   2.815 -0.1583 -0.3230  1.0486
19390TIP3    H179661   1.786   4.284   2.839 -1.1758  0.6699 -1.4972
19390TIP3    H279662   1.882   4.401   2.827 -0.0195 -0.1337 -0.4249
19391TIP3   OH279663   5.846   0.339  12.496  0.2635 -0.3289 -0.1925
19391TIP3    H179664   5.750   0.340  12.491  0.2858 -0.1546 -0.6017
19391TIP3    H279665   5.872   0.431  12.487  0.4932 -0.4282 -0.5572
19392TIP3   OH279666   0.187   4.607  13.143 -0.3006  0.1966  0.5508
19392TIP3    H179667   0.183   4.699  13.115  1.2006 -0.4387 -2.1127
19392TIP3    H279668   0.247   4.607  13.218  0.6598  1.2625 -0.1867
19393TIP3   OH279669   0.780   0.838   1.272 -0.3872 -0.1993  0.4334
19393TIP3    H179670   0.815   0.872   1.355 -0.9338 -1.4974  1.2156
19393TIP3    H279671   0.759   0.747   1.290 -2.3880  0.0069 -0.5512
19394TIP3   OH279672   6.603   1.018  11.368  0.2502 -0.2254  0.6348
19394TIP3    H179673   6.678   0.975  11.325 -0.3357 -0.0943 -0.5736
19394TIP3    H279674   6.612   1.111  11.345 -0.0232 -0.1347  0.8864
19395TIP3   OH279675   2.223   1.612   1.321  0.3275  0.0354  0.1439
19395TIP3    H179676   2.268   1.529   1.339 -1.6850 -1.4200 -0.9789
19395TIP3    H279677   2.258   1.673   1.385  4.0538 -0.8110 -0.8313
19396TIP3   OH279678   3.952   1.821  11.111  0.1622  0.6056  0.1448
19396TIP3    H179679   3.989   1.881  11.046 -0.5944 -0.2637 -1.0990
19396TIP3    H279680   3.884   1.873  11.155  0.2385  0.9917 -0.1813
19397TIP3   OH279681   3.799   1.643  16.221  0.4737  0.4541  0.1111
19397TIP3    H179682   3.716   1.595  16.213  1.2572 -0.9611  0.2281
19397TIP3    H279683   3.794   1.709  16.152 -0.7030  0.3272  0.0411
19398TIP3   OH279684   6.417   3.778   2.884 -0.5338  0.6690  0.0413
19398TIP3    H179685   6.349   3.833   2.846 -1.2449 -0.3301 -0.1815
19398TIP3    H279686   6.488   3.838   2.905 -0.8746  1.5161 -1.1331
19399TIP3   OH279687   4.739   0.164  15.025  0.3320 -0.2296  0.2307
19399TIP3    H179688   4.662   0.194  14.976  0.1978 -0.0344  0.5601
19399TIP3    H279689   4.800   0.237  15.020 -0.3236  0.4667  1.7576
19400TIP3   OH279690   2.508   2.161  16.687 -0.1274 -0.5552  0.1971
19400TIP3    H179691   2.585   2.208  16.719 -0.6202  0.3164  0.1440
19400TIP3    H279692   2.486   2.205  16.605 -0.0755 -1.4675 -0.3170
19401TIP3   OH279693   5.682   6.679   0.379  0.0026 -0.7554 -0.3980
19401TIP3    H179694   5.757   6.732   0.403  0.2903 -1.2403 -0.1999
19401TIP3    H279695   5.667   6.698   0.286 -1.6522  1.7913  0.2766
19402TIP3   OH279696   6.025   6.076   3.432  0.4822  0.2278  0.3756
19402TIP3    H179697   6.051   6.047   3.345  1.2295  1.8090  0.0380
19402TIP3    H279698   6.031   6.172   3.429 -0.7395  0.3917  1.7726
19403TIP3   OH279699   1.702   3.502   6.632  0.6707  0.4237  0.3395
19403TIP3    H179700   1.775   3.456   6.591  0.3831 -1.9024  2.1949
19403TIP3    H279701   1.697   3.464   6.720 -2.2099  1.1582  0.5722
19404TIP3   OH279702   5.884   0.298   1.941 -0.2614 -0.1196 -0.0613
19404TIP3    H179703   5.792   0.316   1.963 -0.5380 -0.2701 -1.0667
19404TIP3    H279704   5.906   0.362   1.874 -0.1049 -1.0583 -0.9327
19405TIP3   OH279705   5.892   0.929  12.565 -0.0904  0.3509  0.0311
19405TIP3    H179706   5.818   0.957  12.621  1.3406  1.2548  1.5648
19405TIP3    H279707   5.864   0.845  12.529 -2.3631  1.2209 -0.4193
19406TIP3   OH279708   4.399   0.000  17.118  0.5193  0.1976 -0.3864
19406TIP3    H179709   4.352  -0.076  17.152  2.3568 -0.3268  1.1593
19406TIP3    H279710   4.335   0.072  17.124 -0.9999 -1.0110 -1.1747
19407TIP3   OH279711   0.010   3.557   3.427  0.5691  0.5157  0.2652
19407TIP3    H179712   0.069   3.611   3.375  0.7109  2.0948  1.9793
19407TIP3    H279713   0.004   3.601   3.512 -0.4719 -1.3931  1.2643
19408TIP3   OH279714   1.808   5.390   5.684  0.1837  0.1589  0.4238
19408TIP3    H179715   1.739   5.344   5.731 -1.0485  1.3760 -0.1569
19408TIP3    H279716   1.889   5.345   5.711 -0.8194 -1.3781  0.9941
19409TIP3   OH279717   3.392   5.210  15.585  0.3672  0.0100  0.5466
19409TIP3    H179718   3.433   5.173  15.662  0.9552 -2.0116 -0.6454
19409TIP3    H279719   3.439   5.170  15.511 -0.2323  1.7711 -0.8709
19410TIP3   OH279720   0.510   4.557  12.280 -0.2635  0.2632 -0.1864
19410TIP3    H179721   0.554   4.582  12.199  0.9173 -1.3084 -0.0881
19410TIP3    H279722   0.428   4.607  12.280  0.1954  1.0687 -1.8252
19411TIP3   OH279723   5.373   1.410  14.255 -0.4993 -0.3517 -0.3523
19411TIP3    H179724   5.286   1.397  14.216 -0.2420 -1.0400 -0.7250
19411TIP3    H279725   5.405   1.491  14.215 -0.5498 -0.6474 -1.0128
19412TIP3   OH279726   5.693   6.764   0.792  0.5254 -0.2471 -0.2004
19412TIP3    H179727   5.761   6.761   0.724  0.9539  3.0587 -0.1259
19412TIP3    H279728   5.634   6.833   0.762  1.0752  1.7814  2.9674
19413TIP3   OH279729   4.129   6.391   1.734  1.0499  0.6246  0.4277
19413TIP3    H179730   4.057   6.333   1.760 -0.0907  1.7485 -0.1449
19413TIP3    H279731   4.119   6.468   1.789  1.6038  0.9490  0.0829
19414TIP3   OH279732   5.715   5.898   1.646 -0.1498  0.6048 -0.5105
19414TIP3    H179733   5.666   5.823   1.678  1.8429 -0.3792  0.3891
19414TIP3    H279734   5.806   5.878   1.667  0.6652  2.3490 -2.0975
19415TIP3   OH279735   6.778   3.278   0.493 -0.1257  0.0464 -0.2056
19415TIP3    H179736   6.782   3.338   0.567  0.2343 -0.2461  0.0124
19415TIP3    H279737   6.783   3.335   0.416 -1.4264  0.4258 -0.0261
19416TIP3   OH279738   0.905   5.455   2.314  0.1617  0.0909 -0.1005
19416TIP3    H179739   0.886   5.419   2.228  2.9167 -2.4606  0.1837
19416TIP3    H279740   0.981   5.511   2.301  0.3630 -0.0025  0.6031
19417TIP3   OH279741   3.409   0.535   2.523 -0.7944 -0.0034 -0.1345
19417TIP3    H179742   3.384   0.627   2.535  0.1694  0.5571 -1.9831
19417TIP3    H279743   3.471   0.518   2.594 -0.6354  0.9318 -0.0302
19418TIP3   OH279744   5.026   6.256  10.791 -0.4933 -0.5572  0.4609
19418TIP3    H179745   5.049   6.166  10.813  3.2216  0.4355  1.4053
19418TIP3    H279746   5.065   6.272  10.706 -1.8428 -0.0225 -0.0927
19419TIP3   OH279747   6.008   3.792   0.852  0.0994 -0.7280  1.1604
19419TIP3    H179748   5.999   3.699   0.872 -1.3751 -1.1345 -0.9944
19419TIP3    H279749   6.022   3.795   0.757  0.8291  1.2257  1.2916
19420TIP3   OH279750   4.925   1.728  16.799 -0.7791 -0.2675  0.2531
19420TIP3    H179751   4.899   1.796  16.738  0.7790 -0.4721 -0.6933
19420TIP3    H279752   5.021   1.730  16.798 -0.5708 -3.6398 -1.2445
19421TIP3   OH279753   0.269   6.084  15.198  0.0683  0.0961 -0.7141
19421TIP3    H179754   0.212   6.040  15.135 -1.0396  1.0020 -0.3786
19421TIP3    H279755   0.298   6.014  15.256 -4.9180  0.1039  2.3693
19422TIP3   OH279756   6.186   3.533  15.334 -0.2176 -0.0278 -0.1968
19422TIP3    H179757   6.122   3.604  15.336 -0.3617 -0.1681  0.4646
19422TIP3    H279758   6.213   3.522  15.426  2.0174  1.1585 -0.6545
19423TIP3   OH279759   6.643   4.955   0.854  0.2824 -0.2741  0.5830
19423TIP3    H179760   6.569   4.908   0.892 -0.1924  0.9307  1.2335
19423TIP3    H279761   6.720   4.916   0.894  0.1354 -2.4292 -1.0641
19424TIP3   OH279762   3.002   3.497   3.041  0.3215  0.1822  0.2934
19424TIP3    H179763   2.909   3.477   3.046  0.5923 -0.8949  1.8932
19424TIP3    H279764   3.014   3.538   2.955 -1.1662 -2.2203 -1.1936
19425TIP3   OH279765   3.272   4.885  15.785 -0.0911  0.1563  0.3809
19425TIP3    H179766   3.201   4.947  15.802 -0.3861 -0.2078  0.5006
19425TIP3    H279767   3.250   4.847  15.700 -0.5365 -0.6268  0.8397
19426TIP3   OH279768   2.512   0.613  12.808 -0.7958  0.6333 -0.5612
19426TIP3    H179769   2.478   0.701  12.792 -0.1055  0.9706 -0.1701
19426TIP3    H279770   2.454   0.577  12.875  0.3673  1.6840  1.0657
19427TIP3   OH279771   4.539   3.445   6.360 -0.2508  0.3552 -0.1235
19427TIP3    H179772   4.551   3.482   6.447  0.6561  0.3941 -0.2511
19427TIP3    H279773   4.451   3.470   6.335 -0.4061  0.6149  0.6554
19428TIP3   OH279774   3.509   0.498   2.255  0.1983  0.2362 -0.0035
19428TIP3    H179775   3.492   0.513   2.348  0.1038  0.1835 -0.0113
19428TIP3    H279776   3.429   0.456   2.223  0.9609 -1.5708  0.3278
19429TIP3   OH279777   6.203   0.823   2.560 -0.0334 -0.6221  0.0419
19429TIP3    H179778   6.230   0.751   2.503 -0.5432 -1.2986  0.6505
19429TIP3    H279779   6.115   0.845   2.530  0.5200  0.4824 -0.8511
19430TIP3   OH279780   4.300   1.354  13.836  0.1897  0.0605  0.2809
19430TIP3    H179781   4.345   1.428  13.797  0.6799 -1.1344 -1.5612
19430TIP3    H279782   4.213   1.355  13.796  0.3771 -0.6315 -0.1715
19431TIP3   OH279783   4.132   5.705  13.255  0.0450 -0.3221  0.0338
19431TIP3    H179784   4.107   5.782  13.305 -0.7597 -0.8455  0.4592
19431TIP3    H279785   4.050   5.673  13.218  0.3751 -0.9554 -0.1620
19432TIP3   OH279786   1.662   1.952  17.216 -0.1904 -0.7704 -0.3729
19432TIP3    H179787   1.645   2.025  17.275  1.5626 -0.3851 -0.3101
19432TIP3    H279788   1.595   1.887  17.239  0.9680 -1.0558  2.7619
19433TIP3   OH279789   5.196   3.894  16.122 -0.0469 -0.3499  0.3407
19433TIP3    H179790   5.241   3.978  16.110  1.0814 -0.8002  1.2875
19433TIP3    H279791   5.221   3.842  16.046 -0.2527 -0.0590  0.0685
19434TIP3   OH279792   0.513   4.605   2.180 -0.8665  0.1844  0.6946
19434TIP3    H179793   0.469   4.520   2.185  1.8808 -1.3417  0.7549
19434TIP3    H279794   0.569   4.608   2.257 -0.6584  1.9615  0.5308
19435TIP3   OH279795   0.152   0.275  12.749 -0.1069  0.3066  0.4336
19435TIP3    H179796   0.211   0.241  12.817  1.0069 -0.4702 -0.8720
19435TIP3    H279797   0.077   0.217  12.751  0.8579 -1.0040 -0.3783
19436TIP3   OH279798   3.034   2.562  17.140 -0.6460  0.1474 -0.3301
19436TIP3    H179799   3.082   2.572  17.222 -0.4402  1.6648 -0.6126
19436TIP3    H279800   3.095   2.516  17.083 -0.2055  0.4486 -0.1097
19437TIP3   OH279801   5.504   3.120  12.780 -0.7249  0.3036 -0.4889
19437TIP3    H179802   5.462   3.034  12.778  0.0131 -0.1277  1.1541
19437TIP3    H279803   5.438   3.178  12.818  0.1658 -0.4596  2.5057
19438TIP3   OH279804   5.089   3.936  10.744 -0.8894  0.8025 -0.4078
19438TIP3    H179805   5.011   3.978  10.709 -1.6678 -0.4339 -0.2085
19438TIP3    H279806   5.131   3.896  10.668 -2.2334 -1.3252 -0.1106
19439TIP3   OH279807   3.063   0.241  11.345 -0.3118 -0.0566  0.5352
19439TIP3    H179808   3.003   0.236  11.270  0.0660 -0.9648  0.2869
19439TIP3    H279809   3.073   0.150  11.374  1.3783 -0.0011  0.2225
19440TIP3   OH279810   2.841   2.829  14.497 -0.9735 -0.1377 -0.4664
19440TIP3    H179811   2.755   2.831  14.454 -0.9616 -0.2349 -0.4945
19440TIP3    H279812   2.832   2.889  14.571 -1.2368 -0.5516 -0.1553
19441TIP3   OH279813   6.458   3.880  12.259 -0.4044  0.1797  0.3103
19441TIP3    H179814   6.411   3.961  12.242 -0.4789  0.4652  1.7589
19441TIP3    H279815   6.536   3.907  12.307  1.1258 -0.3187 -1.7544
19442TIP3   OH279816   5.939   4.116  11.891  0.6746 -0.3475  0.1513
19442TIP3    H179817   5.845   4.111  11.878  0.6476 -0.5787  0.4096
19442TIP3    H279818   5.956   4.058  11.966  0.9322  0.2133  0.5335
19443TIP3   OH279819   3.976   3.176   5.162  0.0095 -0.4992  0.2843
19443TIP3    H179820   4.054   3.190   5.108 -0.2665  0.8568  0.1955
19443TIP3    H279821   3.904   3.215   5.112 -0.2636  0.7358  1.5708
19444TIP3   OH279822   1.522   1.549  15.367 -0.1484  0.3077  0.0021
19444TIP3    H179823   1.580   1.488  15.322 -0.3175  0.2980 -0.2026
19444TIP3    H279824   1.545   1.539  15.459 -2.3090 -2.4442  0.4091
19445TIP3   OH279825   5.098   3.529  16.113 -0.1043 -0.3126 -0.5495
19445TIP3    H179826   5.078   3.589  16.184  1.2441  0.8692 -1.1252
19445TIP3    H279827   5.040   3.556  16.041 -1.7734 -1.7743  0.1548
19446TIP3   OH279828   2.781   5.003   1.443 -0.1922 -0.1162  0.4550
19446TIP3    H179829   2.788   5.035   1.533 -0.4153  1.1986  0.0314
19446TIP3    H279830   2.869   5.012   1.407  0.4191 -2.5907  1.1050
19447TIP3   OH279831   0.712   2.501   0.606  0.1446  0.0340 -0.2490
19447TIP3    H179832   0.639   2.562   0.600 -0.0743 -0.0503  1.1964
19447TIP3    H279833   0.775   2.532   0.542 -0.2926  1.3235 -0.0807
19448TIP3   OH279834   5.752   1.486   4.708  0.2989  0.1371 -0.3756
19448TIP3    H179835   5.789   1.527   4.787 -0.4443  0.2609 -0.0842
19448TIP3    H279836   5.762   1.552   4.639  1.0863 -0.0267 -0.4247
19449TIP3   OH279837   5.963   6.760   1.516  1.1363 -0.5172  0.4686
19449TIP3    H179838   5.991   6.852   1.520  0.1614 -0.2178  0.6724
19449TIP3    H279839   5.912   6.747   1.595 -2.3972  0.0454 -1.5004
19450TIP3   OH279840   4.023   3.391  10.987 -0.1696  0.2537  0.3284
19450TIP3    H179841   4.112   3.387  10.952  0.4078  1.0454  1.6248
19450TIP3    H279842   3.968   3.357  10.916  1.0727  0.5289 -0.8206
19451TIP3   OH279843   6.312   1.491  15.958  0.0597 -0.4402  0.0835
19451TIP3    H179844   6.398   1.449  15.961  0.1864 -0.1227  1.3589
19451TIP3    H279845   6.323   1.572  16.007 -1.0979 -0.6518  0.7381
19452TIP3   OH279846   4.310   1.656  11.976 -0.1254 -0.0030  0.4460
19452TIP3    H179847   4.316   1.701  11.892 -0.5252  1.7071  1.2854
19452TIP3    H279848   4.285   1.724  12.038 -1.8005 -1.5803  1.6195
19453TIP3   OH279849   6.645   2.349  16.169 -0.3447  0.0076 -0.2093
19453TIP3    H179850   6.727   2.368  16.215  0.2391 -1.0060 -0.7986
19453TIP3    H279851   6.645   2.409  16.094 -0.1509  0.0243 -0.1975
19454TIP3   OH279852   4.623   4.929  14.618  1.0583 -0.2943 -0.0796
19454TIP3    H179853   4.567   4.852  14.610  0.9689 -0.2741  0.3325
19454TIP3    H279854   4.641   4.956  14.528  0.7029 -0.5173 -0.2166
19455TIP3   OH279855   1.060   1.488   2.489  0.1837  0.6229  0.0409
19455TIP3    H179856   1.002   1.433   2.437 -0.0840  1.6213 -0.7478
19455TIP3    H279857   1.147   1.476   2.450  0.3869 -0.2533  0.7199
19456TIP3   OH279858   5.611   2.709  15.042  0.1839  0.5235 -0.9823
19456TIP3    H179859   5.551   2.637  15.021 -0.3016 -0.3699  2.7462
19456TIP3    H279860   5.691   2.666  15.070  1.2317  1.6142 -2.1861
19457TIP3   OH279861   2.397   5.938   4.772  0.2034 -0.0737  0.5466
19457TIP3    H179862   2.314   5.946   4.725 -0.9512  0.0186  2.5002
19457TIP3    H279863   2.436   5.858   4.738  0.1506  0.7258 -1.5791
19458TIP3   OH279864   2.920   4.141   2.867  0.5689  0.5321 -0.2364
19458TIP3    H179865   3.003   4.097   2.889  1.2275  1.9716  0.2508
19458TIP3    H279866   2.859   4.069   2.849  0.9920 -0.7018  2.6667
19459TIP3   OH279867   1.358   6.727  14.608 -0.2358  0.7023 -0.1613
19459TIP3    H179868   1.375   6.704  14.700  1.0813  1.2205 -0.2589
19459TIP3    H279869   1.436   6.698  14.562 -0.6683  0.9296 -1.0486
19460TIP3   OH279870   5.111   1.530   1.607 -0.5188 -0.6475 -0.7637
19460TIP3    H179871   5.203   1.528   1.635 -0.3886  1.2366 -0.9343
19460TIP3    H279872   5.078   1.613   1.639 -2.1645 -1.2612 -0.7963
19461TIP3   OH279873   1.776   1.317  11.732 -0.1903 -0.0325 -0.1974
19461TIP3    H179874   1.778   1.410  11.712 -1.6616 -0.0518 -0.5341
19461TIP3    H279875   1.847   1.279  11.678  0.3463  0.8564 -0.1323
19462TIP3   OH279876   0.424   0.383   1.209  0.3336  0.0956  0.1429
19462TIP3    H179877   0.434   0.288   1.217  1.4555  0.0922 -0.9618
19462TIP3    H279878   0.330   0.398   1.216  0.1810 -1.0216  0.9291
19463TIP3   OH279879   4.012   0.866  14.884 -0.0749  0.6782  0.6153
19463TIP3    H179880   3.957   0.791  14.909  0.8212 -1.1024 -2.3069
19463TIP3    H279881   4.037   0.906  14.968 -1.5723 -1.5610  2.2471
19464TIP3   OH279882   3.621   1.429  15.373 -0.3242 -0.4153 -0.3514
19464TIP3    H179883   3.662   1.344  15.389  0.0537 -0.1864 -0.1094
19464TIP3    H279884   3.680   1.474  15.314 -0.6168 -0.3880 -0.6279
19465TIP3   OH279885   4.536   0.141   0.781 -0.0588  0.0270 -0.2219
19465TIP3    H179886   4.587   0.111   0.856 -2.5363 -0.1955  1.5189
19465TIP3    H279887   4.510   0.230   0.803 -0.3494  0.1714 -1.0841
19466TIP3   OH279888   0.265   2.113   3.702 -0.0132 -0.2196  0.4672
19466TIP3    H179889   0.196   2.176   3.720 -1.2578 -1.6241  0.8750
19466TIP3    H279890   0.239   2.072   3.619  0.4096 -0.6569  0.5424
19467TIP3   OH279891   2.696   0.980   2.568  0.3668  0.4073 -0.1238
19467TIP3    H179892   2.681   1.003   2.660  1.2168 -1.2241  0.4683
19467TIP3    H279893   2.654   0.894   2.558 -0.9081  1.1480 -1.6595
19468TIP3   OH279894   5.069   5.555  15.759 -0.5666  0.0494 -0.6213
19468TIP3    H179895   5.084   5.618  15.830 -1.3364 -1.5209  1.0002
19468TIP3    H279896   5.015   5.487  15.799  1.2170 -2.2727 -1.9657
19469TIP3   OH279897   3.309   0.983   2.819 -0.0277  0.1371  0.2348
19469TIP3    H179898   3.238   0.924   2.793 -1.8029  2.4136 -0.3843
19469TIP3    H279899   3.337   1.023   2.737 -1.1049  2.5012  0.9544
19470TIP3   OH279900   1.510   0.348   2.540  0.6558  0.4477  0.2714
19470TIP3    H179901   1.502   0.315   2.629 -0.2844 -0.2866 -0.0665
19470TIP3    H279902   1.523   0.442   2.550  2.6622  0.1266  1.2384
19471TIP3   OH279903   3.763   0.975  16.732  0.5097 -0.2788  0.0379
19471TIP3    H179904   3.681   0.928  16.743  0.1298 -0.3437 -2.4612
19471TIP3    H279905   3.742   1.066  16.755 -1.4158  0.5012 -3.8721
19472TIP3   OH279906   0.473   4.408   5.496  0.5834  0.0871 -0.1846
19472TIP3    H179907   0.530   4.361   5.557 -0.4673 -1.3378 -0.2578
19472TIP3    H279908   0.418   4.463   5.552  0.9019  0.2191  0.0022
19473TIP3   OH279909   5.113   4.534   1.819 -0.7973 -0.0624 -0.0583
19473TIP3    H179910   5.034   4.506   1.866 -0.3482 -1.3743 -0.0492
19473TIP3    H279911   5.130   4.463   1.757  1.3917 -0.6974  1.1708
19474TIP3   OH279912   5.440   6.675   5.732 -0.5558 -0.2242  0.0881
19474TIP3    H179913   5.470   6.740   5.796 -1.4557 -1.0193  1.3546
19474TIP3    H279914   5.346   6.691   5.724 -1.3382 -2.8609  2.3292
19475TIP3   OH279915   3.562   1.954  15.931  0.1042 -0.3207 -0.4974
19475TIP3    H179916   3.599   1.990  16.012  1.0698 -1.4736 -0.3913
19475TIP3    H279917   3.593   1.863  15.929  0.4940 -0.1967 -2.3935
19476TIP3   OH279918   6.353   2.813  11.822 -0.0968 -0.3366 -0.3009
19476TIP3    H179919   6.378   2.905  11.815  0.5552 -0.5673 -1.0847
19476TIP3    H279920   6.293   2.799  11.748 -2.0645  0.0303  1.1400
19477TIP3   OH279921   6.614   6.067   5.716  0.7592  0.0190  0.0857
19477TIP3    H179922   6.562   6.002   5.764  0.7789  0.2437  0.4114
19477TIP3    H279923   6.574   6.070   5.629 -1.0084  1.5621  0.8758
19478TIP3   OH279924   4.620   5.959  13.435  0.2036  0.0223  0.2192
19478TIP3    H179925   4.638   6.005  13.353 -0.4773  0.6854  0.4308
19478TIP3    H279926   4.528   5.980  13.455  0.7977  1.2154  1.9829
19479TIP3   OH279927   0.365   5.088  13.843 -0.0267 -0.1900  0.0899
19479TIP3    H179928   0.295   5.147  13.872 -1.1816 -1.1980 -0.5521
19479TIP3    H279929   0.386   5.036  13.920 -1.7603 -1.5633 -0.2896
19480TIP3   OH279930   0.886   1.217  16.533  0.1606  0.0046  0.1786
19480TIP3    H179931   0.966   1.245  16.487  1.8690 -1.9761  1.7214
19480TIP3    H279932   0.881   1.123  16.516 -2.8128  0.2750 -1.1295
19481TIP3   OH279933   5.514   4.226  16.945 -0.0059  0.8128  0.3540
19481TIP3    H179934   5.518   4.320  16.965  0.3591  0.8005  0.3433
19481TIP3    H279935   5.527   4.183  17.029  0.4662  0.7691  0.2617
19482TIP3   OH279936   5.817   4.261   3.987 -0.4614  0.2587 -0.3165
19482TIP3    H179937   5.730   4.220   3.991 -0.4903  0.3131 -0.3747
19482TIP3    H279938   5.870   4.199   3.938 -0.1587 -0.3139  0.7043
19483TIP3   OH279939   1.606   4.595  15.549  0.2235 -0.1880 -0.0145
19483TIP3    H179940   1.597   4.621  15.641 -1.1622 -1.3157  0.1994
19483TIP3    H279941   1.545   4.651  15.502 -0.0735 -0.5434 -0.0551
19484TIP3   OH279942   1.603   5.936  16.099  0.3247  0.3274  0.4402
19484TIP3    H179943   1.613   5.925  16.004  0.0233  1.5170  0.2504
19484TIP3    H279944   1.692   5.953  16.130  0.1804  1.9560  0.0559
19485TIP3   OH279945   6.778   2.813  15.285  0.4068 -0.1069  0.4272
19485TIP3    H179946   6.782   2.898  15.328  1.8768 -0.2929  0.7120
19485TIP3    H279947   6.861   2.806  15.238  0.0763 -1.1660 -0.0286
19486TIP3   OH279948   3.867   5.908   4.773  0.1529 -0.2964 -0.1977
19486TIP3    H179949   3.942   5.966   4.758 -0.4248  0.7014  0.6434
19486TIP3    H279950   3.853   5.865   4.689  2.0719 -1.0086 -0.1954
19487TIP3   OH279951   4.119   2.281  16.530  0.4019 -0.0207  0.0374
19487TIP3    H179952   4.134   2.370  16.499 -0.9170  0.6959  1.3452
19487TIP3    H279953   4.045   2.250  16.477  2.2799 -1.2420 -2.0261
19488TIP3   OH279954   2.402   2.747  15.986  0.2946  0.0185 -0.9046
19488TIP3    H179955   2.354   2.673  16.023  1.2995 -0.8245 -1.2152
19488TIP3    H279956   2.470   2.767  16.051  1.1409 -0.5093 -1.5982
19489TIP3   OH279957   4.867   1.944  13.488  0.5172 -0.2654  0.0578
19489TIP3    H179958   4.873   1.986  13.574 -0.2272  0.3416 -0.1707
19489TIP3    H279959   4.781   1.970  13.455  0.5463 -0.9816 -0.6216
19490TIP3   OH279960   1.385   0.393   3.442  0.0845 -0.4967 -0.4840
19490TIP3    H179961   1.341   0.465   3.488 -0.1927 -1.1407  0.2625
19490TIP3    H279962   1.352   0.400   3.352 -0.1936  0.1100 -0.3443
19491TIP3   OH279963   6.120   5.276   1.552  0.3476  0.4102 -0.4148
19491TIP3    H179964   6.127   5.245   1.642  1.0118 -1.3104 -1.0215
19491TIP3    H279965   6.027   5.269   1.531  0.3280 -0.0997 -0.1669
19492TIP3   OH279966   0.332   5.034  17.042 -0.4532 -0.6738  0.7238
19492TIP3    H179967   0.348   5.123  17.013 -1.1873  0.1294  2.6512
19492TIP3    H279968   0.415   4.989  17.029  0.3796  0.7024  1.1268
19493TIP3   OH279969   5.678   6.099   1.164  0.3196  0.5541 -0.1223
19493TIP3    H179970   5.704   6.076   1.253 -1.0073 -1.7402 -0.2459
19493TIP3    H279971   5.593   6.141   1.174  0.9540  1.9335 -0.2256
19494TIP3   OH279972   6.732   3.145  17.012 -0.6694  0.0817 -0.0143
19494TIP3    H179973   6.696   3.090  16.942 -1.9230  1.2539 -0.3464
19494TIP3    H279974   6.655   3.169  17.064  0.2652 -0.9223  1.9179
19495TIP3   OH279975   3.351   2.627   5.164 -0.2146  0.2036  0.8680
19495TIP3    H179976   3.429   2.580   5.193 -1.0245 -0.2606  2.4269
19495TIP3    H279977   3.354   2.621   5.069  2.1674  1.1026  0.8212
19496TIP3   OH279978   5.600   0.436   2.360  0.6001 -0.2649 -0.2232
19496TIP3    H179979   5.672   0.492   2.391  0.7211 -0.2320 -0.5627
19496TIP3    H279980   5.567   0.481   2.282  1.7835 -1.4998 -1.4840
19497TIP3   OH279981   5.618   4.317   2.984  0.2804 -0.2023 -0.4268
19497TIP3    H179982   5.584   4.250   3.043 -0.9831  1.2863  0.5910
19497TIP3    H279983   5.630   4.395   3.038  1.3317  0.5591 -1.6592
19498TIP3   OH279984   4.222   4.418   1.184 -0.2567  0.2409  0.1155
19498TIP3    H179985   4.196   4.498   1.140 -1.1320  0.2387  0.6099
19498TIP3    H279986   4.141   4.369   1.196 -0.0614  0.2340  1.6829
19499TIP3   OH279987   0.447   2.705   4.873 -0.2771  0.2847  0.2929
19499TIP3    H179988   0.524   2.761   4.884  0.1501 -0.2962  0.2637
19499TIP3    H279989   0.374   2.761   4.898  0.1908  0.6960  0.7674
19500TIP3   OH279990   4.937   6.248   3.465 -0.2475  0.4117  0.4217
19500TIP3    H179991   5.021   6.215   3.434 -0.9364 -2.7679  1.6115
19500TIP3    H279992   4.946   6.253   3.560 -1.0612  1.1294  0.4762
19501TIP3   OH279993   3.610   4.708   0.218 -0.1562  0.3940  0.8577
19501TIP3    H179994   3.586   4.616   0.203  2.3192 -0.1618 -0.2141
19501TIP3    H279995   3.590   4.723   0.310  0.5429 -1.6547  1.4160
19502TIP3   OH279996   6.505   5.572  15.641  0.0648 -0.0433  0.6612
19502TIP3    H179997   6.502   5.488  15.687 -0.3676 -0.8748 -0.8297
19502TIP3    H279998   6.503   5.638  15.711  2.3325 -1.2342  1.9625
19503TIP3   OH279999   5.254   0.792   1.967  0.2806 -0.3702  0.0666
19503TIP3    H180000   5.310   0.734   1.916  1.7964  0.6321  0.5212
19503TIP3    H280001   5.167   0.752   1.962  0.2377 -0.1225 -3.5827
19504TIP3   OH280002   4.381   0.282  12.946  0.1666  0.2466  0.3980
19504TIP3    H180003   4.331   0.345  12.895 -1.2633 -0.0477  1.3889
19504TIP3    H280004   4.364   0.198  12.904 -0.7211  0.0554  1.1137
19505TIP3   OH280005   3.740   4.039   2.439  0.1715  0.4585  0.4387
19505TIP3    H180006   3.677   4.089   2.386  1.8122  3.1544  0.8518
19505TIP3    H280007   3.755   3.959   2.389 -1.3026  1.1012 -1.1430
19506TIP3   OH280008   4.522   2.891  16.060  0.0809  0.4540  0.0197
19506TIP3    H180009   4.539   2.985  16.073  1.3017  0.4628 -1.3125
19506TIP3    H280010   4.605   2.857  16.025 -0.3543 -1.1334  0.4396
19507TIP3   OH280011   6.168   2.167   3.134  0.4715 -0.4466  0.5947
19507TIP3    H180012   6.132   2.104   3.070 -0.0157  1.1597 -0.7868
19507TIP3    H280013   6.098   2.176   3.199  0.3604 -0.9911  0.5605
19508TIP3   OH280014   1.878   1.316  17.017 -0.5209  0.7561 -0.0564
19508TIP3    H180015   1.934   1.338  17.091  1.7111 -0.2004 -1.3250
19508TIP3    H280016   1.823   1.244  17.048  0.1545  0.5754  0.7514
19509TIP3   OH280017   6.057   1.533   6.204 -0.2647  0.3807  0.0390
19509TIP3    H180018   6.119   1.465   6.230 -1.7721 -0.6201  1.2255
19509TIP3    H280019   6.049   1.590   6.280 -1.8838 -0.3839  0.4935
19510TIP3   OH280020   1.849   3.819  11.951 -0.4026  0.4390  0.2409
19510TIP3    H180021   1.898   3.744  11.984  1.2581  0.8740 -1.0950
19510TIP3    H280022   1.794   3.782  11.881 -0.1243  0.3440  0.0713
19511TIP3   OH280023   5.322   3.809  17.204 -0.4476  0.4298  0.4135
19511TIP3    H180024   5.321   3.730  17.149 -0.7500  0.9606 -0.3697
19511TIP3    H280025   5.276   3.875  17.151 -0.6306  0.9969  1.2583
19512TIP3   OH280026   5.256   5.550  13.453 -0.6664 -0.4646 -0.1359
19512TIP3    H180027   5.336   5.499  13.469 -0.3722  0.1463  0.4076
19512TIP3    H280028   5.263   5.578  13.362  0.5518  0.9287  0.3464
19513TIP3   OH280029   2.435   2.109   3.488  0.1441  0.0409  0.1543
19513TIP3    H180030   2.434   2.083   3.396 -0.9116  2.1035 -0.4950
19513TIP3    H280031   2.354   2.158   3.500  1.6010  2.3424  1.3573
19514TIP3   OH280032   2.348   1.778  13.485  0.5162  0.2070  0.1980
19514TIP3    H180033   2.288   1.706  13.505  0.2815  0.3760  0.1080
19514TIP3    H280034   2.299   1.834  13.426  1.2948 -0.4357 -1.1018
19515TIP3   OH280035   3.670   3.187   2.510  0.2798 -0.2457 -0.1154
19515TIP3    H180036   3.687   3.270   2.556 -0.6778  0.0163 -0.1946
19515TIP3    H280037   3.682   3.209   2.417 -0.4242 -0.0572 -0.1723
19516TIP3   OH280038   3.008   1.885   6.145  0.7905  0.4024 -0.5791
19516TIP3    H180039   3.030   1.922   6.231  0.4964 -0.0211 -0.3210
19516TIP3    H280040   3.016   1.791   6.157 -0.3255  0.2794 -0.7057
19517TIP3   OH280041   3.889   5.775   3.801 -0.0590 -0.7719 -0.2523
19517TIP3    H180042   3.880   5.685   3.831  1.3049 -0.6794  0.4989
19517TIP3    H280043   3.799   5.804   3.784 -0.6838 -1.6422  1.3685
19518TIP3   OH280044   5.313   1.470   0.175 -0.4673  0.2927  0.5929
19518TIP3    H180045   5.240   1.415   0.147  0.6092 -1.0254  0.2532
19518TIP3    H280046   5.371   1.411   0.222  0.6629  1.1678  0.3560
19519TIP3   OH280047   5.290   3.713   6.826 -0.2398 -0.2138  0.2024
19519TIP3    H180048   5.278   3.683   6.916 -1.2894  0.1216  0.1918
19519TIP3    H280049   5.368   3.769   6.829 -0.4618  0.0658  0.9792
19520TIP3   OH280050   0.523   0.337   5.013  0.2676  0.5592  0.2167
19520TIP3    H180051   0.511   0.246   5.040  0.5066  0.6745  0.7046
19520TIP3    H280052   0.580   0.332   4.936  1.4424  0.3927  1.0768
19521TIP3   OH280053   5.475   3.860  13.808  0.1304 -0.2395  0.3047
19521TIP3    H180054   5.493   3.782  13.860 -1.0240 -1.9155 -1.6480
19521TIP3    H280055   5.533   3.852  13.733 -1.2929 -0.2308 -0.8276
19522TIP3   OH280056   3.515   0.553  16.220  0.3115  0.0148 -0.1736
19522TIP3    H180057   3.535   0.646  16.210  0.2508  0.1799  1.1378
19522TIP3    H280058   3.449   0.535  16.153  0.2464  0.9428 -0.3595
19523TIP3   OH280059   2.503   0.121   5.274  0.4875  0.1672  0.3341
19523TIP3    H180060   2.597   0.103   5.282  0.3757 -0.0921  1.2627
19523TIP3    H280061   2.461   0.043   5.312 -0.2140 -1.4554 -3.3503
19524TIP3   OH280062   3.094   2.209   5.153  0.3284 -0.2719  0.3617
19524TIP3    H180063   3.058   2.191   5.239 -0.3550 -1.4275 -0.1443
19524TIP3    H280064   3.025   2.258   5.108  0.7378  0.4526  0.5025
19525TIP3   OH280065   2.877   2.319  11.426  0.5448  0.2154 -0.0811
19525TIP3    H180066   2.837   2.278  11.349 -0.8285 -1.0980  1.2388
19525TIP3    H280067   2.826   2.284  11.500  0.8749  2.5127  1.3287
19526TIP3   OH280068   1.173   4.600   5.059  0.3000 -0.1903 -0.0982
19526TIP3    H180069   1.106   4.547   5.016  0.2081 -0.8124  0.7730
19526TIP3    H280070   1.256   4.556   5.038  0.2827 -0.3203  0.0981
19527TIP3   OH280071   2.071   5.033  13.270 -0.3208  0.0469 -0.0761
19527TIP3    H180072   2.134   4.969  13.238 -1.3008 -0.5785 -0.8269
19527TIP3    H280073   2.070   5.101  13.203  1.7875  1.6490  1.4077
19528TIP3   OH280074   5.541   1.815  11.090  0.0350  0.1078  0.1290
19528TIP3    H180075   5.524   1.884  11.153 -1.2714  1.7684 -1.8956
19528TIP3    H280076   5.596   1.856  11.023  0.2960 -1.2001 -0.5106
19529TIP3   OH280077   1.129   4.706  17.227  0.2575  0.1074  0.1489
19529TIP3    H180078   1.193   4.773  17.201  1.8335 -1.8327 -1.2379
19529TIP3    H280079   1.049   4.731  17.181  0.5497  1.4738  0.3206
19530TIP3   OH280080   0.656   1.653   6.293  0.0609 -0.3167  0.4129
19530TIP3    H180081   0.684   1.661   6.384  2.2559  0.8299 -0.3010
19530TIP3    H280082   0.622   1.739   6.270  1.6789  0.1253 -0.4742
19531TIP3   OH280083   3.729   3.138  16.004 -0.1417 -0.1987 -0.3917
19531TIP3    H180084   3.751   3.219  16.049 -2.9377  0.1106  0.6565
19531TIP3    H280085   3.764   3.068  16.059 -1.1814  0.2524  0.8901
19532TIP3   OH280086   4.868   0.499   1.294  0.8574 -0.2428  0.3075
19532TIP3    H180087   4.888   0.568   1.356  0.8754  0.4635 -0.4735
19532TIP3    H280088   4.896   0.533   1.209 -1.1448 -0.2935 -0.4345
19533TIP3   OH280089   2.597   6.342   1.195  0.1133 -0.0888 -0.1891
19533TIP3    H180090   2.638   6.357   1.280 -0.2202 -2.1353  0.4002
19533TIP3    H280091   2.525   6.405   1.190  1.5151  1.6043  0.0086
19534TIP3   OH280092   2.006   4.569  12.206 -0.1538  0.2432 -0.3853
19534TIP3    H180093   2.069   4.621  12.257 -0.8337  0.4452  0.2536
19534TIP3    H280094   1.921   4.609  12.223 -0.3593  0.5641 -2.0019
19535TIP3   OH280095   5.606   1.661   6.369 -0.1424 -0.8588 -0.3373
19535TIP3    H180096   5.660   1.584   6.355 -0.4512 -1.2866  0.7769
19535TIP3    H280097   5.663   1.735   6.346  0.2944 -1.3825 -0.9678
19536TIP3   OH280098   4.627   0.314  15.286 -0.3690  0.2448 -0.5461
19536TIP3    H180099   4.653   0.265  15.209 -0.0339 -0.0016 -0.2797
19536TIP3    H280100   4.545   0.356  15.261 -0.4051 -0.0543 -0.9405
19537TIP3   OH280101   5.621   4.650   1.660  0.2395 -0.0206 -0.3355
19537TIP3    H180102   5.609   4.726   1.603 -0.4078 -0.4665 -0.8181
19537TIP3    H280103   5.593   4.576   1.606 -1.9126 -0.3221  1.0458
19538TIP3   OH280104   4.396   2.174  13.385 -0.1355  0.0409  0.6936
19538TIP3    H180105   4.346   2.256  13.386  1.7465  1.2612 -0.1827
19538TIP3    H280106   4.377   2.136  13.299  1.2575  1.0963 -0.1296
19539TIP3   OH280107   2.158   2.495   5.488  0.7753  0.5023  0.1959
19539TIP3    H180108   2.207   2.449   5.556 -1.1776  0.7758  1.8804
19539TIP3    H280109   2.135   2.579   5.527 -1.6914  0.0670 -0.1500
19540TIP3   OH280110   4.345   6.148   2.878  0.3541  0.2883  0.2165
19540TIP3    H180111   4.266   6.097   2.856  0.0704  1.5632 -2.0397
19540TIP3    H280112   4.359   6.131   2.971 -1.4994 -1.4433  0.2651
19541TIP3   OH280113   2.843   2.195   4.153  0.2978 -0.3488 -0.0823
19541TIP3    H180114   2.872   2.283   4.127 -2.4307  1.2674  1.8380
19541TIP3    H280115   2.923   2.153   4.186  1.4991  1.7602 -0.1184
19542TIP3   OH280116   6.077   0.529  16.531 -0.0509 -0.1945  1.1292
19542TIP3    H180117   6.040   0.616  16.515  1.7546  0.8987  2.5222
19542TIP3    H280118   6.018   0.469  16.486 -1.4267  1.7350  0.2403
19543TIP3   OH280119   2.582   5.835   0.127  0.4368  0.1499 -0.2857
19543TIP3    H180120   2.669   5.873   0.115 -0.7330  2.9493 -0.8744
19543TIP3    H280121   2.570   5.777   0.053  1.3608  0.7031 -0.8868
19544TIP3   OH280122   5.794   5.280  11.706  0.0061 -0.2538  0.0218
19544TIP3    H180123   5.835   5.195  11.720 -0.0759  0.0311  2.5087
19544TIP3    H280124   5.723   5.263  11.645  1.0161 -1.6274 -0.8137
19545TIP3   OH280125   1.311   6.200   5.718 -0.5973  0.4261  0.2271
19545TIP3    H180126   1.285   6.290   5.740  1.8858  0.6544  2.8612
19545TIP3    H280127   1.377   6.210   5.650  0.3572  0.7401  1.1674
19546TIP3   OH280128   1.072   0.304   5.293 -0.0978 -0.2633 -0.1206
19546TIP3    H180129   1.020   0.326   5.216  0.2961 -1.5300 -0.7870
19546TIP3    H280130   1.152   0.265   5.257  1.3766  1.6518  0.8674
19547TIP3   OH280131   2.439   4.445  15.526 -0.1375 -0.2799  0.1925
19547TIP3    H180132   2.363   4.480  15.480 -0.2675 -0.2403  0.4382
19547TIP3    H280133   2.513   4.494  15.490 -0.1215 -0.8901 -0.6503
19548TIP3   OH280134   3.779   5.193  13.917 -0.1705 -0.2866 -0.0746
19548TIP3    H180135   3.704   5.234  13.961 -0.4397 -2.0489  1.1966
19548TIP3    H280136   3.816   5.263  13.863 -1.3279  1.2781  1.0664
19549TIP3   OH280137   3.345   3.884   3.019 -0.3328 -0.3849 -0.3037
19549TIP3    H180138   3.327   3.917   3.107  0.1014 -1.7268  0.3155
19549TIP3    H280139   3.439   3.864   3.020  0.2364  1.7799 -1.8597
19550TIP3   OH280140   2.059   5.925   1.588  0.2302 -0.0541  0.6168
19550TIP3    H180141   2.013   5.842   1.599  0.0933  0.1396  1.6316
19550TIP3    H280142   2.026   5.980   1.659 -1.0370  1.5059 -1.1001
19551TIP3   OH280143   6.805   5.827  12.261 -0.2154 -0.6277  0.2522
19551TIP3    H180144   6.873   5.875  12.213 -0.4883 -0.2720  0.2211
19551TIP3    H280145   6.850   5.795  12.340 -0.5297  1.5273  1.3834
19552TIP3   OH280146   2.612   5.081   2.109 -0.1639  0.9536 -0.4568
19552TIP3    H180147   2.664   5.052   2.184 -1.1745 -1.1804 -0.5092
19552TIP3    H280148   2.548   5.141   2.146  1.8719  3.1764 -0.3069
19553TIP3   OH280149   4.016   3.852  14.336 -0.2155 -0.3017 -0.5265
19553TIP3    H180150   4.057   3.930  14.375 -0.0562 -0.3059 -0.6823
19553TIP3    H280151   3.924   3.875  14.328 -0.6809 -1.1103  1.8820
19554TIP3   OH280152   0.853   0.654  12.535 -0.3230 -0.0351 -0.1388
19554TIP3    H180153   0.890   0.576  12.494  0.8618  0.4973 -0.1606
19554TIP3    H280154   0.775   0.674  12.484 -0.1268 -0.6866 -0.7080
19555TIP3   OH280155   6.237   4.570  13.664 -0.3882 -0.9155 -0.0109
19555TIP3    H180156   6.306   4.513  13.630 -0.4772 -1.3344  0.4992
19555TIP3    H280157   6.274   4.658  13.659  0.3414 -1.1765  0.6356
19556TIP3   OH280158   3.314   3.551   3.230  0.0113  0.4651 -0.1004
19556TIP3    H180159   3.384   3.490   3.253  0.5611 -0.9510 -4.5629
19556TIP3    H280160   3.352   3.637   3.243  0.2670 -0.0373  3.4703
19557TIP3   OH280161   2.158   0.825  14.022 -0.0338  0.0480 -0.3356
19557TIP3    H180162   2.097   0.899  14.024  0.9499  0.8737  0.1958
19557TIP3    H280163   2.118   0.762  13.962 -2.2194 -0.1685  1.2340
19558TIP3   OH280164   2.728   2.069   3.376 -0.1446 -0.5933  0.5872
19558TIP3    H180165   2.664   2.000   3.393 -0.4838 -0.5105 -0.2822
19558TIP3    H280166   2.679   2.151   3.386 -0.6044 -0.5544 -1.5806
19559TIP3   OH280167   3.671   0.354   5.581  0.1225  0.4920  0.6508
19559TIP3    H180168   3.670   0.360   5.677  0.1983  2.1516  0.5852
19559TIP3    H280169   3.627   0.434   5.552 -2.1140 -1.1223 -0.7118
19560TIP3   OH280170   2.467   0.090   1.905 -0.2571 -0.2351  0.0222
19560TIP3    H180171   2.508   0.004   1.898  1.4643  0.3944  1.7022
19560TIP3    H280172   2.440   0.097   1.997 -1.4782  0.5647 -0.3632
19561TIP3   OH280173   1.009   0.381  11.261  0.4191  0.0316 -0.0277
19561TIP3    H180174   1.019   0.420  11.348 -2.0691  0.2017  0.2432
19561TIP3    H280175   0.951   0.441  11.214  1.8527  0.0352 -1.9091
19562TIP3   OH280176   3.262   3.801   5.887  0.1474 -0.3517 -0.4090
19562TIP3    H180177   3.302   3.847   5.961 -1.7365  1.5399 -0.4692
19562TIP3    H280178   3.213   3.729   5.927  0.2335 -0.1472  0.0695
19563TIP3   OH280179   2.935   3.681   5.546 -0.0894  0.4365 -0.4238
19563TIP3    H180180   2.843   3.700   5.564  0.5557  1.8541  1.9623
19563TIP3    H280181   2.968   3.641   5.627  1.2041 -0.9595 -1.5658
19564TIP3   OH280182   6.368   5.784  14.745 -0.0547 -0.3881  0.0177
19564TIP3    H180183   6.395   5.718  14.809  0.2757  1.4046  1.8257
19564TIP3    H280184   6.362   5.865  14.795  1.4326  1.4082 -2.4817
19565TIP3   OH280185   4.065   5.333   0.581  0.2142 -0.1105  0.3542
19565TIP3    H180186   4.076   5.365   0.492 -0.1623 -0.4338  0.1890
19565TIP3    H280187   4.136   5.270   0.593  1.8370  1.7539  1.1609
19566TIP3   OH280188   2.677   4.482  11.674 -0.1174  0.0505  0.1241
19566TIP3    H180189   2.709   4.403  11.631  0.7242  0.2181  0.4147
19566TIP3    H280190   2.662   4.456  11.765 -1.0562 -0.0829 -0.0571
19567TIP3   OH280191   3.074   4.248  15.172 -0.1319 -0.3373  0.2239
19567TIP3    H180192   3.144   4.305  15.142 -1.5947  2.5497  1.8444
19567TIP3    H280193   2.999   4.272  15.118 -0.4287 -1.9705 -0.1617
19568TIP3   OH280194   1.845   4.220   1.531 -0.6772  0.3757 -0.2192
19568TIP3    H180195   1.868   4.169   1.609  0.4258  0.6277 -0.3674
19568TIP3    H280196   1.815   4.304   1.566 -0.0704  0.5328 -0.0621
19569TIP3   OH280197   3.184   3.793   1.843 -0.3102  0.3840  0.1376
19569TIP3    H180198   3.157   3.701   1.841  0.4938  0.1471 -0.4345
19569TIP3    H280199   3.200   3.811   1.936 -0.9609  0.0947  0.3072
19570TIP3   OH280200   3.207   1.758   1.890  0.3684 -0.7314 -0.8754
19570TIP3    H180201   3.280   1.700   1.910  0.6734 -0.7673 -2.0295
19570TIP3    H280202   3.245   1.845   1.888 -0.2284 -0.3374  1.6109
19571TIP3   OH280203   4.197   3.031   2.766 -0.2018  0.0073 -0.3578
19571TIP3    H180204   4.228   3.089   2.836  0.2732 -0.5558 -0.0956
19571TIP3    H280205   4.137   3.086   2.715 -1.0946  0.2487  0.8786
19572TIP3   OH280206   6.678   2.418  11.856  0.1409  0.0250  0.1897
19572TIP3    H180207   6.676   2.335  11.904 -1.6961 -0.4372 -0.6164
19572TIP3    H280208   6.622   2.477  11.906 -1.8126 -0.4662 -1.2926
19573TIP3   OH280209   1.108   1.923   0.178  0.5214 -0.2194  0.0107
19573TIP3    H180210   1.144   1.835   0.173  1.1283 -0.1107  1.7330
19573TIP3    H280211   1.149   1.961   0.256 -1.5669  0.7289  0.7143
19574TIP3   OH280212   4.613   5.652   4.900 -0.6280  0.0342 -0.3735
19574TIP3    H180213   4.591   5.744   4.894  0.4132  0.4421  1.3803
19574TIP3    H280214   4.574   5.623   4.982  0.8592 -0.5074  0.1846
19575TIP3   OH280215   5.512   1.006   5.450  0.0140 -0.0267 -0.0295
19575TIP3    H180216   5.519   1.097   5.422 -2.1777  0.0723 -0.4787
19575TIP3    H280217   5.556   1.003   5.535  1.3828  1.0940 -0.6711
19576TIP3   OH280218   0.463   5.664   3.674 -0.2025 -0.1397  0.2337
19576TIP3    H180219   0.519   5.741   3.670 -1.3579  0.8254  1.6066
19576TIP3    H280220   0.467   5.626   3.586  1.4836  0.6701 -0.0749
19577TIP3   OH280221   4.861   0.396  12.084 -0.8214  0.1611 -0.3424
19577TIP3    H180222   4.836   0.488  12.078 -2.5729 -0.3377 -1.4881
19577TIP3    H280223   4.804   0.352  12.021  0.5487 -1.6013 -0.4029
19578TIP3   OH280224   4.807   5.168  16.405  1.1171 -0.2043 -0.5865
19578TIP3    H180225   4.778   5.121  16.326  0.8786  0.2182 -0.7499
19578TIP3    H280226   4.826   5.098  16.468  3.0647 -0.6657 -1.5859
19579TIP3   OH280227   5.728   6.676   5.515 -0.1783 -0.3961  0.2195
19579TIP3    H180228   5.675   6.735   5.462  0.4181 -0.1559 -0.1216
19579TIP3    H280229   5.759   6.609   5.455 -0.7975 -1.0337  0.5936
19580TIP3   OH280230   4.106   2.583  11.259  0.1044 -0.1377 -0.3610
19580TIP3    H180231   4.092   2.506  11.205  0.5722 -0.0988 -0.5478
19580TIP3    H280232   4.171   2.556  11.324 -0.8683 -0.3467  0.5383
19581TIP3   OH280233   1.219   5.143  14.718  0.5255  0.9225  0.2918
19581TIP3    H180234   1.293   5.190  14.757  0.9763  0.8699 -0.4857
19581TIP3    H280235   1.151   5.209  14.706 -0.2330  0.6695  2.5776
19582TIP3   OH280236   4.271   4.024  15.539 -0.0512 -0.6152  0.6092
19582TIP3    H180237   4.212   3.996  15.469  0.5891 -0.8292  0.1561
19582TIP3    H280238   4.273   3.949  15.600  1.5717 -1.5717 -0.5460
19583TIP3   OH280239   1.532   6.779   3.567  0.1169 -0.5129 -0.2052
19583TIP3    H180240   1.586   6.710   3.604 -1.0588 -1.4196 -0.1048
19583TIP3    H280241   1.478   6.734   3.502  0.4541  0.6185 -1.3018
19584TIP3   OH280242   2.660   6.609  15.823 -0.0056  0.2452  0.5614
19584TIP3    H180243   2.695   6.573  15.905 -1.4848 -0.0789  1.0731
19584TIP3    H280244   2.738   6.637  15.775  0.9984 -0.9826  1.3972
19585TIP3   OH280245   3.233   3.157   0.848  0.8058  0.2091  0.5098
19585TIP3    H180246   3.226   3.190   0.937 -0.9651  0.7092  0.2170
19585TIP3    H280247   3.157   3.099   0.837  1.6848 -0.8491 -0.2835
19586TIP3   OH280248   0.554   4.566   6.286  0.1442 -0.4272 -0.4316
19586TIP3    H180249   0.645   4.539   6.296 -0.4379 -2.7049 -0.6264
19586TIP3    H280250   0.510   4.532   6.364 -0.4175  1.3134  0.0377
19587TIP3   OH280251   5.811   1.974   5.853 -0.2785  0.0147 -0.1315
19587TIP3    H180252   5.756   1.964   5.931 -2.3403 -1.9331 -1.7488
19587TIP3    H280253   5.785   2.059   5.817 -0.2636  0.3175  0.5412
19588TIP3   OH280254   3.373   5.725   1.189 -0.3181  0.2752  0.2730
19588TIP3    H180255   3.459   5.695   1.219  0.0434  0.1708 -0.8582
19588TIP3    H280256   3.310   5.672   1.239  0.1897  1.7561  2.6696
19589TIP3   OH280257   2.718   5.418   5.187  0.0511 -0.3007  0.3010
19589TIP3    H180258   2.806   5.419   5.150  0.1369 -1.7876  0.4044
19589TIP3    H280259   2.698   5.510   5.205  1.2519  0.1330 -0.4802
19590TIP3   OH280260   5.841   5.525   6.759  0.2432 -0.5840 -0.2209
19590TIP3    H180261   5.924   5.531   6.711  0.6155  2.0581  0.5646
19590TIP3    H280262   5.824   5.432   6.765  2.4533 -1.1710 -1.6098
19591TIP3   OH280263   0.938   3.726   3.723  0.3307  0.3421  0.0552
19591TIP3    H180264   1.023   3.714   3.682  1.0554  4.3934 -0.0339
19591TIP3    H280265   0.957   3.731   3.817 -0.4233 -2.3012  0.4298
19592TIP3   OH280266   0.913   3.630   5.244  0.0149  0.1783 -0.8570
19592TIP3    H180267   0.898   3.609   5.337 -0.6259 -0.7338 -1.1496
19592TIP3    H280268   1.006   3.651   5.239 -0.3018  2.0437  0.3149
19593TIP3   OH280269   1.355   4.124  12.069  0.4318 -0.5035 -0.5086
19593TIP3    H180270   1.445   4.150  12.048  1.1102 -1.8856  0.5561
19593TIP3    H280271   1.343   4.040  12.025  0.3269 -1.2277  0.8437
19594TIP3   OH280272   2.170   5.774  13.214  0.3483 -0.1240  0.0686
19594TIP3    H180273   2.256   5.785  13.173  0.0607 -1.5637 -1.0030
19594TIP3    H280274   2.188   5.730  13.297  0.6433 -0.5818 -0.2323
19595TIP3   OH280275   6.764   3.833  12.498 -0.1641 -0.7103  0.0732
19595TIP3    H180276   6.842   3.872  12.538  0.4928  0.0426 -1.8382
19595TIP3    H280277   6.713   3.907  12.467 -0.1408 -1.2836 -1.3887
19596TIP3   OH280278   5.572   6.087   5.229 -0.0882 -0.4752 -0.1428
19596TIP3    H180279   5.602   6.145   5.300 -2.2829 -0.3887  0.8064
19596TIP3    H280280   5.583   6.139   5.149  0.7391  0.1270  0.3457
19597TIP3   OH280281   5.199   6.743  17.164 -0.1453  0.5396 -0.3537
19597TIP3    H180282   5.220   6.828  17.203  0.1323 -0.0615  0.8430
19597TIP3    H280283   5.246   6.679  17.218 -2.5226 -0.6007  0.4701
19598TIP3   OH280284   4.528   0.898  12.705  0.0009 -0.6442 -0.3304
19598TIP3    H180285   4.621   0.900  12.685 -0.0101  0.2865 -0.3574
19598TIP3    H280286   4.519   0.950  12.785 -0.4140 -1.2823  0.0420
19599TIP3   OH280287   2.807   0.322  13.409 -0.1223 -0.3682  0.3017
19599TIP3    H180288   2.851   0.320  13.494 -0.8854  1.7715  0.8070
19599TIP3    H280289   2.845   0.249  13.361  0.4780 -1.5072  2.3985
19600TIP3   OH280290   3.910   5.791  11.872 -0.2522 -0.3530  0.2463
19600TIP3    H180291   3.845   5.743  11.821 -3.3690 -1.1110  4.4357
19600TIP3    H280292   3.958   5.724  11.920  1.5013  0.4091 -0.3492
19601TIP3   OH280293   2.546   2.000   0.707  0.8256  0.6972 -0.2752
19601TIP3    H180294   2.565   2.087   0.741  1.7198  0.2201  0.4994
19601TIP3    H280295   2.451   1.991   0.715  0.6231  1.8984 -1.1351
19602TIP3   OH280296   1.766   4.186  12.992 -0.4698 -0.5818 -0.3256
19602TIP3    H180297   1.851   4.197  13.036  0.3507  0.2907 -2.0105
19602TIP3    H280298   1.752   4.092  12.989 -0.2030 -0.6921  1.1016
19603TIP3   OH280299   1.424   3.815  12.124  0.0736 -0.3447 -0.2671
19603TIP3    H180300   1.460   3.761  12.053 -0.5086 -0.1338 -0.7299
19603TIP3    H280301   1.333   3.786  12.132  0.0587 -0.1711  0.2075
19604TIP3   OH280302   5.319   4.070  12.582 -0.1755 -0.6270 -0.1384
19604TIP3    H180303   5.409   4.099  12.596 -0.5518  0.4276  0.1482
19604TIP3    H280304   5.293   4.035  12.668 -0.1153 -0.7447 -0.1663
19605TIP3   OH280305   1.500   1.585  14.401 -0.6117  0.2160  0.0841
19605TIP3    H180306   1.452   1.574  14.483 -1.8760  0.7132 -0.5707
19605TIP3    H280307   1.573   1.643  14.424  0.0592 -1.0139  1.2123
19606TIP3   OH280308   4.913   4.584  16.235 -0.3289 -0.3521  0.2315
19606TIP3    H180309   4.982   4.518  16.234 -0.4685 -0.5492  1.7039
19606TIP3    H280310   4.840   4.542  16.280 -0.9016  0.3594 -0.0076
19607TIP3   OH280311   3.657   1.269   5.102 -0.5218 -0.4723 -0.3010
19607TIP3    H180312   3.613   1.351   5.120 -0.3267 -0.1340 -1.2902
19607TIP3    H280313   3.746   1.294   5.076 -0.6834 -0.9369 -1.3442
19608TIP3   OH280314   0.261   5.485   1.263 -0.0341  0.1742  0.0281
19608TIP3    H180315   0.314   5.500   1.341 -2.0161  1.2637  1.2540
19608TIP3    H280316   0.314   5.426   1.209  1.4679 -0.5226  2.1166
19609TIP3   OH280317   2.860   3.639  11.339  0.1259  0.9997 -0.0184
19609TIP3    H180318   2.813   3.556  11.353 -1.6006  2.2911  2.8557
19609TIP3    H280319   2.922   3.644  11.412  0.3205  2.1547 -0.2456
19610TIP3   OH280320   5.487   1.523  13.618 -0.1488  0.5241  0.0106
19610TIP3    H180321   5.487   1.617  13.598  1.6597  0.4627 -0.4832
19610TIP3    H280322   5.559   1.511  13.679 -0.0557 -0.6057 -0.2896
19611TIP3   OH280323   3.802   1.081   0.782  0.4549  0.2101 -0.5640
19611TIP3    H180324   3.881   1.092   0.728  0.5117  0.7582 -0.3715
19611TIP3    H280325   3.766   1.169   0.790 -0.2726 -0.0562 -0.7845
19612TIP3   OH280326   6.409   4.932  14.197  0.0942  0.3737 -0.1592
19612TIP3    H180327   6.423   5.023  14.223 -2.5382  0.7513  0.2618
19612TIP3    H280328   6.443   4.926  14.108  1.2552  1.4758  0.1953
19613TIP3   OH280329   2.021   4.803   1.337  0.2436 -0.9728  1.0621
19613TIP3    H180330   2.041   4.768   1.250  0.1533  0.6735  0.3395
19613TIP3    H280331   2.093   4.773   1.393  2.4544  1.0701 -0.4648
19614TIP3   OH280332   3.744   2.884  16.732  0.0794 -0.2879 -0.1561
19614TIP3    H180333   3.759   2.797  16.695 -0.1901 -0.1134 -0.6942
19614TIP3    H280334   3.662   2.876  16.781  1.1348 -0.8786  1.6103
19615TIP3   OH280335   0.379   0.900   2.990  0.0883 -0.4531  0.1068
19615TIP3    H180336   0.370   0.871   2.899 -1.5622 -1.9229  0.6790
19615TIP3    H280337   0.430   0.830   3.032 -2.6901 -1.9936  1.1729
19616TIP3   OH280338   0.837   2.317   5.256  0.0219 -0.0874  0.1826
19616TIP3    H180339   0.838   2.383   5.187 -1.4446 -0.3523 -0.1370
19616TIP3    H280340   0.929   2.295   5.270  0.5093  1.6586 -0.0367
19617TIP3   OH280341   5.684   2.600   4.289  0.4007 -0.5641 -0.7260
19617TIP3    H180342   5.655   2.661   4.221  1.3511  1.2245  0.4025
19617TIP3    H280343   5.715   2.524   4.240 -0.0422  0.1728 -2.2365
19618TIP3   OH280344   1.439   3.813  15.826  0.0186  0.6126 -0.5833
19618TIP3    H180345   1.419   3.872  15.899 -0.3706 -1.5097  1.1122
19618TIP3    H280346   1.384   3.736  15.841  1.3343 -0.6950 -2.0656
19619TIP3   OH280347   6.466   5.031  12.987 -0.0982  0.3488  0.0144
19619TIP3    H180348   6.399   5.075  13.041 -1.2768 -1.7864  0.4223
19619TIP3    H280349   6.532   5.098  12.971 -0.8974  1.7404  2.1059
19620TIP3   OH280350   1.807   4.792  14.614 -0.1259  0.2394 -0.0345
19620TIP3    H180351   1.747   4.744  14.558  0.2343 -0.4877  0.1967
19620TIP3    H280352   1.764   4.877  14.627 -0.3215  0.3380 -1.2109
19621TIP3   OH280353   3.890   5.832   3.101  0.2634  0.2068  0.1813
19621TIP3    H180354   3.901   5.752   3.152  1.0032  0.4482  0.4196
19621TIP3    H280355   3.819   5.878   3.144 -0.2586 -0.3840 -0.0402
19622TIP3   OH280356   5.434   2.452   4.379 -0.5565  0.4687  0.2790
19622TIP3    H180357   5.432   2.385   4.309 -1.5974  1.5442 -0.7669
19622TIP3    H280358   5.521   2.443   4.417 -0.1648 -0.5614 -0.7693
19623TIP3   OH280359   4.304   4.820  11.991  0.2430 -0.2611 -0.5590
19623TIP3    H180360   4.340   4.869  12.065 -2.0288  0.5939  0.0901
19623TIP3    H280361   4.311   4.879  11.917  1.0098 -0.4772 -0.6678
19624TIP3   OH280362   3.609   6.821   3.033  0.1779  0.2525 -0.5787
19624TIP3    H180363   3.649   6.814   2.946 -0.9735 -0.3871 -1.0853
19624TIP3    H280364   3.614   6.914   3.055 -1.4309  0.8162 -2.3098
19625TIP3   OH280365   2.090   0.407  15.408 -0.7187 -0.1081  0.0985
19625TIP3    H180366   2.111   0.327  15.456  1.2318  0.3199  0.0541
19625TIP3    H280367   2.090   0.476  15.474 -0.2220  0.1537 -0.1661
19626TIP3   OH280368   4.117   2.907  14.149  0.0464  0.6848 -0.0377
19626TIP3    H180369   4.088   2.847  14.218 -1.9638  0.8004 -0.7445
19626TIP3    H280370   4.041   2.920  14.094  1.1782  1.8507 -1.4102
19627TIP3   OH280371   5.162   0.891   3.384  0.0619  0.3794  0.4121
19627TIP3    H180372   5.207   0.806   3.387  2.1072  1.4312  1.3153
19627TIP3    H280373   5.148   0.906   3.290  1.0685 -0.2761  0.1260
19628TIP3   OH280374   2.709   4.293   2.057 -0.0503 -0.2437 -0.3115
19628TIP3    H180375   2.758   4.243   1.991 -0.5142 -0.4297 -0.5216
19628TIP3    H280376   2.738   4.257   2.141 -0.3619 -0.8545 -0.4602
19629TIP3   OH280377   0.155   4.324  17.022 -0.0900 -0.1291  0.0517
19629TIP3    H180378   0.230   4.282  16.979  0.0788  0.0075  0.2106
19629TIP3    H280379   0.177   4.324  17.115 -1.0242 -1.5806  0.2974
19630TIP3   OH280380   0.166   3.662  14.435  0.3512 -0.6699 -0.4611
19630TIP3    H180381   0.139   3.606  14.508 -0.6418 -0.8974 -0.9841
19630TIP3    H280382   0.235   3.717  14.471 -1.2760  0.4087  1.1450
19631TIP3   OH280383   1.070   4.952  13.598 -0.0937 -0.0920 -0.3912
19631TIP3    H180384   1.067   5.003  13.517  0.3406 -0.3432 -0.5717
19631TIP3    H280385   1.061   4.861  13.569  1.5259 -0.3074 -0.3180
19632TIP3   OH280386   0.268   1.759   0.181  0.1560 -0.2198 -0.0050
19632TIP3    H180387   0.247   1.710   0.261  0.2153 -0.6742 -0.2618
19632TIP3    H280388   0.337   1.708   0.139  0.8388  0.5576  0.1558
19633TIP3   OH280389   3.697   0.812   1.753  0.0143  0.0479 -0.2429
19633TIP3    H180390   3.684   0.719   1.772  2.3376 -0.3605 -0.4255
19633TIP3    H280391   3.734   0.813   1.665  1.2720  1.0262  0.2745
19634TIP3   OH280392   5.392   3.760   0.225 -0.5812 -0.1873  0.1239
19634TIP3    H180393   5.354   3.782   0.140 -1.9041 -1.8674  0.2289
19634TIP3    H280394   5.398   3.665   0.225  0.1686 -0.1656  1.6080
19635TIP3   OH280395   6.447   6.106  16.573  0.5071  0.5606 -0.7846
19635TIP3    H180396   6.534   6.146  16.565  1.3300 -0.5813  1.4584
19635TIP3    H280397   6.388   6.179  16.591  1.3556  1.1687 -0.4010
19636TIP3   OH280398   0.111   5.551  11.006  0.4225 -0.3706 -0.0385
19636TIP3    H180399   0.168   5.524  11.077  0.6520 -0.4481 -0.2519
19636TIP3    H280400   0.028   5.508  11.024  0.3599 -0.0736  0.3965
19637TIP3   OH280401   5.972   3.040  10.646 -0.3118 -0.4227 -0.0857
19637TIP3    H180402   5.968   3.134  10.628  0.0864 -0.0734  1.4790
19637TIP3    H280403   5.881   3.014  10.656 -0.3742  0.2035  1.2378
19638TIP3   OH280404   4.720   4.556   5.621 -0.1801  0.2881 -0.4088
19638TIP3    H180405   4.767   4.617   5.564 -1.9858  0.6830 -1.5525
19638TIP3    H280406   4.745   4.583   5.710  0.8131  1.2231 -0.9475
19639TIP3   OH280407   3.349   0.254   4.635 -0.2196  0.0667 -0.2364
19639TIP3    H180408   3.304   0.188   4.688 -0.3932  0.1774 -0.2478
19639TIP3    H280409   3.392   0.311   4.699 -2.4470  1.7019 -0.0674
19640TIP3   OH280410   3.999   5.152  10.831 -0.6866 -0.3395 -0.6580
19640TIP3    H180411   3.905   5.166  10.817 -0.9213 -1.5501 -0.4202
19640TIP3    H280412   4.005   5.129  10.924 -0.3815 -1.8919 -1.0324
19641TIP3   OH280413   2.634   6.710  10.773 -0.3479  0.3360  0.0983
19641TIP3    H180414   2.599   6.794  10.804  1.1734  0.2350  2.3552
19641TIP3    H280415   2.705   6.734  10.713  0.6127  0.7345  1.3502
19642TIP3   OH280416   1.477   5.448   0.012 -0.1058 -0.0999 -0.0144
19642TIP3    H180417   1.435   5.482   0.091 -0.2590 -0.1126 -0.0908
19642TIP3    H280418   1.549   5.508  -0.004 -0.0787 -0.0935  0.1317
19643TIP3   OH280419   3.778   2.033  11.220  0.2693 -0.1315 -0.1713
19643TIP3    H180420   3.725   2.032  11.300 -2.3210  2.5574 -1.6705
19643TIP3    H280421   3.851   2.093  11.240 -0.7328  1.0600  0.0224
19644TIP3   OH280422   5.605   5.514  15.927  0.6946 -0.1296 -0.2035
19644TIP3    H180423   5.607   5.610  15.924 -2.1309  0.0176  0.4281
19644TIP3    H280424   5.568   5.489  15.842  1.2927 -0.6815 -0.3092
19645TIP3   OH280425   5.059   4.471  14.966 -0.1193 -0.1584 -0.2414
19645TIP3    H180426   5.140   4.458  14.917 -0.9068  0.4835 -1.7689
19645TIP3    H280427   4.991   4.481  14.899 -1.3449  0.1074  0.9922
19646TIP3   OH280428   6.645   1.411   3.074 -0.3064 -0.0340  0.8808
19646TIP3    H180429   6.562   1.454   3.089  0.3372  2.4264 -1.6457
19646TIP3    H280430   6.653   1.408   2.978  2.2856 -0.5691  1.0355
19647TIP3   OH280431   0.311   0.661  16.617  0.5232  0.3062 -0.0046
19647TIP3    H180432   0.348   0.642  16.531  0.4442  1.9705 -0.4456
19647TIP3    H280433   0.267   0.580  16.643  1.6120 -0.6220 -0.9587
19648TIP3   OH280434   1.327   1.404  15.602  0.1308 -0.7113 -0.0951
19648TIP3    H180435   1.359   1.314  15.590  1.0938 -0.4504  0.4649
19648TIP3    H280436   1.276   1.422  15.523  1.2631 -1.1795 -0.9466
19649TIP3   OH280437   0.905   1.780   4.527  0.6148 -0.1813  0.0011
19649TIP3    H180438   0.948   1.862   4.501  1.5051 -0.3175  1.0039
19649TIP3    H280439   0.851   1.757   4.451  1.1255  0.8061 -0.6896
19650TIP3   OH280440   2.447   6.726  13.060  0.1534  0.6062  0.3973
19650TIP3    H180441   2.528   6.750  13.016  0.3882 -0.5774  0.1385
19650TIP3    H280442   2.435   6.633  13.040 -1.0901  0.6706  0.7133
19651TIP3   OH280443   5.742   4.626  12.434  0.0844  0.6107 -0.0461
19651TIP3    H180444   5.686   4.551  12.413 -1.0509  0.6812  2.3025
19651TIP3    H280445   5.821   4.613  12.382 -0.8720 -1.1681 -1.1459
19652TIP3   OH280446   4.994   2.288  16.595 -0.1896  0.2299  0.0916
19652TIP3    H180447   5.045   2.344  16.655  0.3769  0.1445 -0.3061
19652TIP3    H280448   4.913   2.271  16.642  0.6736 -0.7234  1.3039
19653TIP3   OH280449   5.087   4.353  16.224  0.3985  0.1815  0.2040
19653TIP3    H180450   5.092   4.345  16.319  0.4391 -0.7125  0.1335
19653TIP3    H280451   5.013   4.297  16.199  0.4838  0.2904 -0.3014
19654TIP3   OH280452   0.466   3.561  16.370 -0.4437  0.5317 -0.5713
19654TIP3    H180453   0.415   3.591  16.295 -0.3602  0.0079 -0.8382
19654TIP3    H280454   0.458   3.632  16.434  0.1852  1.3630 -1.3852
19655TIP3   OH280455   0.115   4.420  16.406  0.1302 -0.1142 -0.2450
19655TIP3    H180456   0.189   4.384  16.454 -0.8194 -1.3008  0.4122
19655TIP3    H280457   0.059   4.460  16.473 -1.1926 -1.7558 -0.2956
19656TIP3   OH280458   0.845   4.909   5.482  0.2221  0.0343 -0.0686
19656TIP3    H180459   0.832   4.940   5.572  1.9883  0.7836 -0.0381
19656TIP3    H280460   0.854   4.814   5.491  2.3725  0.2616  0.8591
19657TIP3   OH280461   3.197   2.087  16.463  0.5439  0.1888 -0.4469
19657TIP3    H180462   3.147   2.009  16.440 -0.3114  0.3312  0.7852
19657TIP3    H280463   3.209   2.080  16.558  0.3687  1.6020 -0.2997
19658TIP3   OH280464   6.669   5.173  12.102  0.3070  1.2908  0.7906
19658TIP3    H180465   6.627   5.088  12.112 -0.9487  1.7698 -0.0959
19658TIP3    H280466   6.748   5.168  12.156  1.4283 -1.1918 -0.9158
19659TIP3   OH280467   5.125   2.935   2.193 -0.1126  0.3455  0.3455
19659TIP3    H180468   5.133   3.029   2.210  0.1492  0.1095  1.6146
19659TIP3    H280469   5.212   2.899   2.212 -0.4329 -0.2708  0.6794
19660TIP3   OH280470   5.583   3.283   5.122 -0.2403 -0.3620 -0.0143
19660TIP3    H180471   5.597   3.279   5.028 -1.7811  0.2776 -0.3046
19660TIP3    H280472   5.513   3.220   5.139 -1.8893  1.4387  0.2471
19661TIP3   OH280473   3.446   6.358  13.814 -0.0022 -0.2044 -0.4869
19661TIP3    H180474   3.470   6.265  13.811 -1.9560 -0.7529 -0.3245
19661TIP3    H280475   3.486   6.395  13.735  2.6107 -0.6513  0.5054
19662TIP3   OH280476   0.254   4.749   3.228  0.3687 -0.0052  0.0247
19662TIP3    H180477   0.317   4.731   3.158  0.5161 -1.0916  0.4251
19662TIP3    H280478   0.235   4.663   3.267 -1.9233  0.1445 -0.5666
19663TIP3   OH280479   6.254   3.986  14.452  0.0559 -0.2657 -0.1222
19663TIP3    H180480   6.307   3.952  14.380 -2.0261 -0.2158 -1.8033
19663TIP3    H280481   6.296   4.068  14.477  0.8630 -0.3210 -1.2355
19664TIP3   OH280482   6.803   0.460   2.173  0.6527 -0.2221 -0.3213
19664TIP3    H180483   6.796   0.365   2.175  1.7515 -0.3127  0.0022
19664TIP3    H280484   6.715   0.491   2.150  0.6529 -1.3676 -2.0435
19665TIP3   OH280485   1.828   1.458  12.207  0.5295 -0.3727 -0.0076
19665TIP3    H180486   1.797   1.396  12.141  0.7120  0.4872 -0.9157
19665TIP3    H280487   1.833   1.542  12.162 -0.0046  0.3893  1.2804
19666TIP3   OH280488   3.369   1.896  14.853  0.3317 -0.0966  0.5097
19666TIP3    H180489   3.289   1.924  14.808  1.7391 -0.0960 -2.1943
19666TIP3    H280490   3.350   1.808  14.883 -1.4138  0.7131  1.9851
19667TIP3   OH280491   0.696   4.456  15.467 -0.1408  0.1886  0.3230
19667TIP3    H180492   0.782   4.417  15.454 -0.9443 -1.2151 -1.0956
19667TIP3    H280493   0.712   4.551  15.461  1.2638 -0.0519 -0.1221
19668TIP3   OH280494   6.500   4.650   0.262 -0.0393 -0.6917  0.2349
19668TIP3    H180495   6.469   4.603   0.339 -0.2703 -0.2711  0.3999
19668TIP3    H280496   6.538   4.731   0.297  0.1176 -0.6323 -0.0687
19669TIP3   OH280497   1.374   4.227   0.861  0.2401 -0.5844  0.2355
19669TIP3    H180498   1.436   4.251   0.929  0.1970 -2.2641  0.9347
19669TIP3    H280499   1.413   4.151   0.818 -0.0455  0.0349 -1.2022
19670TIP3   OH280500   1.303   4.561  11.309 -0.1832  0.2005  0.3810
19670TIP3    H180501   1.215   4.587  11.282  0.1415  1.1286  0.1879
19670TIP3    H280502   1.354   4.558  11.228  0.3848  1.3813  0.6698
19671TIP3   OH280503   5.072   2.667   5.617  0.1404 -0.0614 -0.8855
19671TIP3    H180504   5.078   2.595   5.555 -0.2531 -0.2448 -0.7099
19671TIP3    H280505   4.979   2.674   5.639  0.2363  0.1820 -0.5321
19672TIP3   OH280506   5.338   0.098  13.224  0.7264  0.2794  0.0207
19672TIP3    H180507   5.342   0.190  13.249  0.8604  0.6861 -1.3778
19672TIP3    H280508   5.356   0.050  13.304  1.7696  1.4954  0.5515
19673TIP3   OH280509   3.396   1.631   0.030 -0.1632 -0.3102  0.1857
19673TIP3    H180510   3.381   1.660  -0.060 -0.4729 -0.3990  0.2068
19673TIP3    H280511   3.487   1.655   0.048  0.2937 -1.3689 -0.5627
19674TIP3   OH280512   0.039   6.172  11.360  0.1817 -0.3005  0.0458
19674TIP3    H180513   0.024   6.169  11.266  0.3450 -0.0428  0.0090
19674TIP3    H280514  -0.027   6.114  11.397 -1.2049  1.1398 -0.0789
19675TIP3   OH280515   3.994   6.412  15.685 -0.0166  0.7321  0.0060
19675TIP3    H180516   3.947   6.366  15.616 -1.4162  0.2535  1.2257
19675TIP3    H280517   3.968   6.367  15.766  0.4649  2.1572  0.9895
19676TIP3   OH280518   1.034   5.324  13.020  0.1573  0.0853  0.2345
19676TIP3    H180519   0.975   5.365  12.956  1.1633  1.4168  0.1255
19676TIP3    H280520   1.065   5.245  12.976  0.1665  0.5374 -0.5879
19677TIP3   OH280521   4.455   4.451  11.467 -0.6367 -0.3450  0.2978
19677TIP3    H180522   4.499   4.528  11.432  1.2838 -1.2487  0.5527
19677TIP3    H280523   4.507   4.426  11.544 -1.8531 -1.2697  0.8687
19678TIP3   OH280524   2.551   5.921  12.453  0.5827 -0.1372  0.3007
19678TIP3    H180525   2.588   5.972  12.381  1.6135  0.0079  0.9196
19678TIP3    H280526   2.507   5.985  12.508 -1.9529 -0.4586 -1.1667
19679TIP3   OH280527   3.151   2.196   0.832  0.5444  0.4414 -0.3075
19679TIP3    H180528   3.237   2.210   0.871  0.4684 -1.5122  0.7049
19679TIP3    H280529   3.090   2.238   0.893  0.6091 -0.6734  0.5813
19680TIP3   OH280530   0.595   6.803   0.346 -0.5227  0.0441  0.1403
19680TIP3    H180531   0.556   6.890   0.357 -1.5834 -0.7016  3.2125
19680TIP3    H280532   0.556   6.750   0.415  0.3692 -2.8292 -1.3995
19681TIP3   OH280533   2.428   1.702   0.982 -0.5394 -0.6855 -0.4616
19681TIP3    H180534   2.485   1.682   0.908  2.7481 -1.0405  1.9766
19681TIP3    H280535   2.487   1.713   1.056 -3.4529  1.7316  1.7748
19682TIP3   OH280536   1.694   4.423   1.687 -0.1332  0.0119  0.6433
19682TIP3    H180537   1.715   4.420   1.780 -0.9084 -1.6512  0.7846
19682TIP3    H280538   1.621   4.362   1.676  0.9613 -1.0494 -1.2974
19683TIP3   OH280539   2.246   4.077  15.639  0.0725 -0.8525  0.0456
19683TIP3    H180540   2.262   4.066  15.733 -1.1608 -0.2755  0.3439
19683TIP3    H280541   2.236   3.988  15.606 -0.8560 -1.0226  0.7364
19684TIP3   OH280542   6.032   6.453  12.332 -0.1493 -0.1862 -0.8451
19684TIP3    H180543   6.061   6.488  12.247  0.0163 -0.3500 -0.8557
19684TIP3    H280544   5.936   6.458  12.328 -0.1432  2.8521  0.2168
19685TIP3   OH280545   4.642   1.251   3.209  0.0899 -0.0811  0.1632
19685TIP3    H180546   4.599   1.257   3.124  3.4598 -1.3925 -1.8169
19685TIP3    H280547   4.683   1.337   3.221 -1.7305  0.6938  1.4041
19686TIP3   OH280548   5.455   4.514   2.267 -0.3259 -0.2412 -0.1115
19686TIP3    H180549   5.457   4.597   2.315 -0.5715  0.2565 -0.9400
19686TIP3    H280550   5.409   4.535   2.186  0.3792 -0.9843 -0.7095
19687TIP3   OH280551   3.949   1.000   6.136 -0.4156 -0.2081 -0.6179
19687TIP3    H180552   3.958   1.094   6.152 -1.2480 -0.2485  0.1588
19687TIP3    H280553   3.860   0.979   6.165 -1.0154 -0.8398 -2.7519
19688TIP3   OH280554   0.003   6.151   1.898  0.7151  0.0898 -0.2644
19688TIP3    H180555   0.089   6.169   1.862 -0.4128  0.0251 -3.2715
19688TIP3    H280556  -0.040   6.095   1.832 -1.6706  0.2228  1.0480
19689TIP3   OH280557   3.976   1.247  16.663 -0.5394  0.1234 -0.1995
19689TIP3    H180558   3.999   1.253  16.755 -0.0357  0.7331 -0.3596
19689TIP3    H280559   3.882   1.266  16.660 -0.8145 -1.0217  0.3020
19690TIP3   OH280560   5.485   4.751   4.723  0.0109 -0.0182  0.1682
19690TIP3    H180561   5.497   4.697   4.645 -1.1371  0.1912 -0.1670
19690TIP3    H280562   5.524   4.836   4.699  2.0677 -0.7403  0.7963
19691TIP3   OH280563   0.905   3.873   4.837  0.2456  0.0040  0.2156
19691TIP3    H180564   0.931   3.801   4.779  0.5735 -0.6944  1.2005
19691TIP3    H280565   0.885   3.830   4.920  2.6674  1.2223  1.5370
19692TIP3   OH280566   0.854   1.604   0.083 -0.4192 -0.6159  0.2293
19692TIP3    H180567   0.926   1.568   0.135  1.6810 -0.1841 -2.1666
19692TIP3    H280568   0.861   1.699   0.094  2.1755 -0.2308 -3.1224
19693TIP3   OH280569   5.680   0.555   3.019  0.4070  0.3726 -0.5636
19693TIP3    H180570   5.739   0.489   3.055 -0.3765 -1.0898 -1.8304
19693TIP3    H280571   5.669   0.619   3.090  2.0149 -0.2808  0.3308
19694TIP3   OH280572   1.585   6.316  14.726 -0.3478  0.1869 -0.4453
19694TIP3    H180573   1.656   6.332  14.787 -0.1651 -0.7433 -0.3942
19694TIP3    H280574   1.629   6.284  14.646 -0.7489 -1.7877  0.0646
19695TIP3   OH280575   4.135   5.866   1.323  0.2928  0.0158  0.4565
19695TIP3    H180576   4.042   5.887   1.326  0.4033  0.4793  0.6375
19695TIP3    H280577   4.172   5.927   1.259  0.2793 -0.9167 -0.4659
19696TIP3   OH280578   6.402   4.994  11.920 -0.3332  0.3580 -0.4492
19696TIP3    H180579   6.342   5.034  11.983 -0.5854  1.8661 -1.6027
19696TIP3    H280580   6.442   4.922  11.969  0.1340  1.9773  1.7278
19697TIP3   OH280581   4.811   4.714   0.048 -0.2024  0.4452 -0.1576
19697TIP3    H180582   4.835   4.755  -0.036 -2.0615 -0.1678 -1.0415
19697TIP3    H280583   4.769   4.784   0.098  0.6649  0.7417  0.1709
19698TIP3   OH280584   0.640   5.006  15.477  0.1501  0.3602  0.0727
19698TIP3    H180585   0.663   5.098  15.463 -0.4706  0.4195 -0.6136
19698TIP3    H280586   0.567   4.991  15.417 -1.3905  0.0863  1.9418
19699TIP3   OH280587   1.044   4.862   4.096  0.1739  0.0331 -0.2971
19699TIP3    H180588   1.012   4.822   4.016 -1.2747 -0.5737  0.5460
19699TIP3    H280589   1.056   4.955   4.074  2.0544 -0.5116 -1.8243
19700TIP3   OH280590   2.174   5.217  16.258  0.0128 -0.2004  0.2501
19700TIP3    H180591   2.134   5.130  16.259 -0.3539 -0.0856 -1.5625
19700TIP3    H280592   2.265   5.202  16.235 -0.0477 -0.1045 -0.0523
19701TIP3   OH280593   3.076   2.026   5.896 -0.3422 -0.1231 -0.2671
19701TIP3    H180594   3.164   2.051   5.923 -0.3406  0.9777 -1.2099
19701TIP3    H280595   3.034   1.993   5.976 -0.0077  1.9940  0.8426
19702TIP3   OH280596   1.197   6.623   3.956  0.2303  0.3254  0.3475
19702TIP3    H180597   1.141   6.669   3.894  0.9205 -1.7460 -2.0021
19702TIP3    H280598   1.281   6.669   3.952 -0.2343  1.2461  1.0960
19703TIP3   OH280599   6.523   3.596   2.558 -0.0291 -0.0202  0.3031
19703TIP3    H180600   6.604   3.639   2.532  0.9014 -1.3838  0.8150
19703TIP3    H280601   6.467   3.602   2.481  0.2775  1.5627  0.1738
19704TIP3   OH280602   2.565   1.849   3.433 -0.2084  0.2300  0.4127
19704TIP3    H180603   2.491   1.814   3.385  0.8465 -1.1233 -0.2727
19704TIP3    H280604   2.549   1.823   3.524  0.3061 -1.6997 -0.0034
19705TIP3   OH280605   1.919   4.198  14.641 -0.6829  0.0100 -0.2514
19705TIP3    H180606   1.853   4.178  14.574  0.0781 -0.2262 -0.9576
19705TIP3    H280607   1.983   4.252  14.595  0.8555 -1.7290 -0.2871
19706TIP3   OH280608   6.296   3.719   4.195  0.3881 -0.1520  0.1492
19706TIP3    H180609   6.319   3.643   4.140 -0.1628 -0.2554  0.0558
19706TIP3    H280610   6.265   3.785   4.133  0.3047 -0.0620  0.2878
19707TIP3   OH280611   2.141   2.088  11.165 -0.6272 -1.3044 -0.3766
19707TIP3    H180612   2.124   2.174  11.203  0.3699 -0.7627 -1.1174
19707TIP3    H280613   2.054   2.053  11.145 -1.0247  0.7913 -2.7876
19708TIP3   OH280614   5.620   4.188  14.979  0.3125 -0.1093  0.2986
19708TIP3    H180615   5.606   4.250  14.907 -0.8951 -0.3444  0.2979
19708TIP3    H280616   5.584   4.232  15.056  0.1269 -0.4987  0.4385
19709TIP3   OH280617   0.532   2.871   0.655 -0.4825  0.5093 -0.4329
19709TIP3    H180618   0.512   2.779   0.634 -0.1778  0.3769 -0.1503
19709TIP3    H280619   0.606   2.893   0.599  0.0367  0.2958  0.1536
19710TIP3   OH280620   4.773   4.735  14.909 -0.3839 -0.9663  0.1238
19710TIP3    H180621   4.778   4.827  14.934 -0.8238 -0.0356 -2.9051
19710TIP3    H280622   4.755   4.690  14.992  0.2294  1.5683  1.7733
19711TIP3   OH280623   2.759   5.884   4.366  0.5103  0.2793 -0.3279
19711TIP3    H180624   2.704   5.907   4.441  0.2851 -0.4529 -0.2563
19711TIP3    H280625   2.846   5.917   4.388  0.8275 -1.2992  0.9826
19712TIP3   OH280626   4.498   4.932   2.292  0.0136  0.1139 -0.3716
19712TIP3    H180627   4.444   4.927   2.371  1.7409 -2.5709  0.7483
19712TIP3    H280628   4.499   4.843   2.258  0.6360  0.8949 -2.5604
19713TIP3   OH280629   0.160   0.626  12.788 -0.9147  0.0426  0.3847
19713TIP3    H180630   0.188   0.632  12.697 -1.0618  2.0050  0.4200
19713TIP3    H280631   0.162   0.717  12.819 -2.0682 -0.4424  1.9737
19714TIP3   OH280632   0.370   3.973  13.467 -0.0325 -0.1927 -0.2930
19714TIP3    H180633   0.370   3.931  13.380 -0.3136  1.5961 -1.2026
19714TIP3    H280634   0.359   3.901  13.528 -0.6497 -1.4347 -1.7957
19715TIP3   OH280635   1.854   6.073   3.165  0.1292 -0.5053  0.8822
19715TIP3    H180636   1.921   6.069   3.234  0.8606 -0.4617  0.1938
19715TIP3    H280637   1.815   6.159   3.175 -2.3624 -1.7913  3.5683
19716TIP3   OH280638   2.651   5.110   4.289 -0.0586  0.0520 -0.6400
19716TIP3    H180639   2.570   5.129   4.336 -0.1662  0.5181 -1.0064
19716TIP3    H280640   2.680   5.194   4.254 -0.1211 -0.3197 -1.6269
19717TIP3   OH280641   0.759   6.154  14.088 -0.0408  0.2255 -0.1396
19717TIP3    H180642   0.750   6.194  14.174  0.0837 -0.0357 -0.0054
19717TIP3    H280643   0.705   6.209  14.030 -0.6744 -0.0007  0.2294
19718TIP3   OH280644   6.303   4.817  12.316 -0.2319  0.1922 -0.3106
19718TIP3    H180645   6.380   4.826  12.260 -0.5105 -1.3452 -0.9948
19718TIP3    H280646   6.229   4.823  12.255 -0.5298 -2.0041 -0.2279
19719TIP3   OH280647   6.362   1.851   2.025 -0.0130  0.3579 -0.1583
19719TIP3    H180648   6.346   1.827   1.934 -0.0755 -0.9028  0.1628
19719TIP3    H280649   6.350   1.770   2.074  1.0769  0.7634  0.8535
19720TIP3   OH280650   1.046   0.166  12.775  0.1415  0.2947  0.2239
19720TIP3    H180651   0.968   0.217  12.756 -0.0771 -0.4540 -1.0443
19720TIP3    H280652   1.077   0.198  12.859 -1.7298  0.3540  0.9240
19721TIP3   OH280653   6.662   5.265  11.640 -0.3209  0.0358 -0.3973
19721TIP3    H180654   6.651   5.172  11.659  0.8592  0.0980  0.7224
19721TIP3    H280655   6.609   5.310  11.705  0.0170  0.1627 -0.2071
19722TIP3   OH280656   5.328   1.060  13.512  0.4396 -0.1248  0.5526
19722TIP3    H180657   5.350   1.136  13.566 -1.5513  1.2169 -0.4061
19722TIP3    H280658   5.293   1.097  13.431 -3.5707 -1.8945  1.2133
19723TIP3   OH280659   2.301   4.988   2.308 -0.4369  0.2823  0.0913
19723TIP3    H180660   2.347   4.934   2.372  0.6922  0.0733 -0.8695
19723TIP3    H280661   2.331   4.956   2.223 -0.0877  2.0851 -0.5089
19724TIP3   OH280662   2.445   5.671  16.714 -0.3390  0.1473 -0.2210
19724TIP3    H180663   2.474   5.738  16.776  1.5150 -0.0784 -0.8020
19724TIP3    H280664   2.378   5.714  16.661 -1.3857  0.5828  1.3711
19725TIP3   OH280665   5.452   2.346  11.952  0.5676  0.0081 -0.0657
19725TIP3    H180666   5.391   2.288  11.997  0.5863 -0.1340 -0.2219
19725TIP3    H280667   5.403   2.380  11.877  1.2077 -1.4667 -1.2071
19726TIP3   OH280668   4.081   1.654   4.229 -0.0178  0.6522 -0.3028
19726TIP3    H180669   3.990   1.626   4.230  0.2293 -0.6233 -2.9365
19726TIP3    H280670   4.081   1.736   4.181  0.1856  0.8344  0.0021
19727TIP3   OH280671   3.833   5.686  13.947  0.2247  0.6440  0.1503
19727TIP3    H180672   3.835   5.776  13.914  2.7707  0.6409  0.1332
19727TIP3    H280673   3.769   5.689  14.017 -0.0386  2.3845 -0.0975
19728TIP3   OH280674   3.589   2.253   2.699  0.1805 -0.1514  0.2421
19728TIP3    H180675   3.507   2.212   2.727 -0.3985 -0.8308 -2.2486
19728TIP3    H280676   3.610   2.211   2.616  3.8263 -0.9884  1.4148
19729TIP3   OH280677   6.414   4.244  16.499  0.5106 -0.0808 -0.3511
19729TIP3    H180678   6.411   4.320  16.557  0.7684 -0.5338  0.2702
19729TIP3    H280679   6.329   4.201  16.511  0.9227 -0.7004  0.4270
19730TIP3   OH280680   4.891   4.806   0.351  0.2395 -0.1836  0.0466
19730TIP3    H180681   4.962   4.778   0.292  1.6719  1.4501  0.9172
19730TIP3    H280682   4.811   4.783   0.304  1.3186 -2.0770 -0.9832
19731TIP3   OH280683   2.651   6.097  13.884 -0.1428  0.4817  0.4257
19731TIP3    H180684   2.692   6.157  13.946  0.4618 -1.4980  2.0389
19731TIP3    H280685   2.723   6.070  13.827 -0.0291 -0.0073  0.7939
19732TIP3   OH280686   4.585   2.217   2.294  0.0667 -0.2384  0.1039
19732TIP3    H180687   4.494   2.232   2.320  0.0144  1.2394 -0.8096
19732TIP3    H280688   4.622   2.305   2.284  2.5244 -0.7284  3.4376
19733TIP3   OH280689   1.041   1.451  16.822  0.0774 -0.2101  0.1796
19733TIP3    H180690   0.980   1.397  16.872 -0.0187  0.4193  0.7613
19733TIP3    H280691   1.127   1.412  16.839 -0.0417 -0.4512  0.2335
19734TIP3   OH280692   4.345   3.195   2.428  0.0813 -0.4568 -0.1762
19734TIP3    H180693   4.272   3.165   2.374 -0.1952 -0.3841  0.1505
19734TIP3    H280694   4.415   3.131   2.412  0.3705  0.1400 -1.4142
19735TIP3   OH280695   0.294   4.777  11.589  0.1914 -0.5594 -0.6894
19735TIP3    H180696   0.244   4.784  11.507  0.4639 -0.7793 -0.8790
19735TIP3    H280697   0.320   4.867  11.609 -1.1890 -0.2941 -0.0073
19736TIP3   OH280698   3.862   3.632   2.962 -0.5195  0.0703 -0.4070
19736TIP3    H180699   3.887   3.599   3.048  1.4519 -1.7942 -1.6019
19736TIP3    H280700   3.771   3.606   2.952 -0.0863 -1.8703  0.1858
19737TIP3   OH280701   3.171   2.974   5.151  0.4636 -0.3035  0.0287
19737TIP3    H180702   3.199   3.047   5.095  0.1171 -0.8140 -0.8331
19737TIP3    H280703   3.088   2.945   5.113 -0.1869 -0.1610  1.2973
19738TIP3   OH280704   3.099   4.296  16.911  0.3718  0.5438  0.3805
19738TIP3    H180705   3.034   4.279  16.843  1.6595  1.4199 -1.1099
19738TIP3    H280706   3.183   4.282  16.869  1.2060 -0.4614  2.2406
19739TIP3   OH280707   6.759   1.113  15.528  0.2733 -0.1522  0.2052
19739TIP3    H180708   6.673   1.139  15.560  0.1467  0.4622 -0.6090
19739TIP3    H280709   6.803   1.195  15.507  0.5546 -0.5096 -0.6498
19740TIP3   OH280710   6.600   5.011  12.442  0.1872  0.6096  0.1057
19740TIP3    H180711   6.518   5.044  12.478  0.2648  0.4198  0.4591
19740TIP3    H280712   6.668   5.052  12.495  0.3487  1.1649 -0.5050
19741TIP3   OH280713   3.110   2.170  14.846 -0.7217  0.7548 -0.9994
19741TIP3    H180714   3.063   2.223  14.911  1.2112  2.9864 -1.2630
19741TIP3    H280715   3.203   2.187  14.866  0.0695 -3.1174 -0.7196
19742TIP3   OH280716   5.303   5.603  13.200 -0.5552  0.2193 -0.7717
19742TIP3    H180717   5.248   5.664  13.152 -0.4426  1.3259  0.4405
19742TIP3    H280718   5.376   5.657  13.231 -0.0198 -0.7179 -0.3847
19743TIP3   OH280719   6.479   5.706   6.738 -0.4673 -0.3691  0.4540
19743TIP3    H180720   6.388   5.701   6.711 -0.2157 -1.6243 -0.2523
19743TIP3    H280721   6.499   5.800   6.740 -1.0803 -0.1278 -1.8689
19744TIP3   OH280722   2.544   5.288   4.959 -0.0021 -0.2096  0.0826
19744TIP3    H180723   2.562   5.339   4.880 -3.4888 -0.0674 -0.7774
19744TIP3    H280724   2.573   5.344   5.031  2.0630  0.2064 -0.9937
19745TIP3   OH280725   1.404   4.760   5.458  0.1866 -0.1285  0.8274
19745TIP3    H180726   1.481   4.789   5.506  0.9121 -2.8202  1.4230
19745TIP3    H280727   1.437   4.733   5.373 -0.6440  1.6602 -0.1272
19746TIP3   OH280728   2.754   4.039   5.492  0.4458  0.2956 -0.1199
19746TIP3    H180729   2.725   3.958   5.449  1.8016 -0.8325  0.9916
19746TIP3    H280730   2.750   4.019   5.585  0.7023  1.5703  0.1774
19747TIP3   OH280731   1.347   5.950  11.193  0.1622 -0.1226 -0.2639
19747TIP3    H180732   1.335   6.043  11.210 -1.2853 -0.5119  1.0835
19747TIP3    H280733   1.368   5.945  11.100 -3.1517  1.3787 -1.2504
19748TIP3   OH280734   1.283   5.734   0.893 -0.4747 -0.2195  0.0028
19748TIP3    H180735   1.194   5.700   0.886 -1.0825  0.7622  2.1164
19748TIP3    H280736   1.337   5.658   0.916 -0.7792 -0.7811 -1.1072
19749TIP3   OH280737   5.402   5.152   0.953  0.3146  0.4319  0.2516
19749TIP3    H180738   5.393   5.151   0.858  0.5652 -0.8082  0.2305
19749TIP3    H280739   5.402   5.245   0.976 -2.0210  0.7586 -0.7309
19750TIP3   OH280740   0.980   4.577   1.992  0.0110  0.2897  0.5325
19750TIP3    H180741   1.060   4.628   1.978 -0.9563  2.6395  2.7543
19750TIP3    H280742   0.921   4.637   2.038 -2.4637 -1.8673  0.4148
19751TIP3   OH280743   3.694   4.203  13.150  0.1258  0.2063 -0.4012
19751TIP3    H180744   3.722   4.246  13.231 -0.2893  0.6928 -0.5112
19751TIP3    H280745   3.752   4.127  13.142  0.8060  0.6818 -0.1464
19752TIP3   OH280746   2.742   1.636  12.223 -0.0177  0.3191  0.4605
19752TIP3    H180747   2.707   1.725  12.225  0.2906  0.4657 -0.2083
19752TIP3    H280748   2.818   1.642  12.166 -0.0626 -0.3980  0.3159
19753TIP3   OH280749   5.575   3.163  12.033  0.5553  0.1261 -0.3261
19753TIP3    H180750   5.575   3.157  11.937 -0.3541  1.6997 -0.4494
19753TIP3    H280751   5.534   3.081  12.061 -1.1992  0.5987 -1.3856
19754TIP3   OH280752   2.430   0.984  15.513 -0.1152  0.3876 -0.4833
19754TIP3    H180753   2.457   1.063  15.560  1.8445  0.0972 -1.0356
19754TIP3    H280754   2.383   0.932  15.578 -1.5282  1.9910 -0.1239
19755TIP3   OH280755   3.083   4.460  10.923  0.5072 -0.4292 -0.2138
19755TIP3    H180756   3.061   4.512  11.000 -2.6598 -1.2629 -0.3889
19755TIP3    H280757   3.094   4.371  10.956  1.2035 -0.4558 -0.5008
19756TIP3   OH280758   0.152   3.951  11.514 -0.0332 -0.5866  0.0748
19756TIP3    H180759   0.100   4.028  11.493  2.6303  0.9360 -1.5822
19756TIP3    H280760   0.186   3.968  11.602 -1.6651 -1.2784  0.8847
19757TIP3   OH280761   0.878   2.550   5.066  0.2725 -0.1743  0.5403
19757TIP3    H180762   0.816   2.606   5.112  0.2160  0.1146  0.1204
19757TIP3    H280763   0.912   2.605   4.996  0.1604 -0.6923  0.0760
19758TIP3   OH280764   2.911   3.857   0.051 -0.2954  0.0686  0.8381
19758TIP3    H180765   2.860   3.797   0.105 -0.6072 -1.2268 -0.8067
19758TIP3    H280766   2.874   3.944   0.070 -2.1146 -0.6523  0.8041
19759TIP3   OH280767   2.072   3.604  13.729  0.5749  0.1213  0.2434
19759TIP3    H180768   2.080   3.598  13.824  2.1122  0.4453  0.1687
19759TIP3    H280769   2.069   3.513  13.699  0.3810  0.0131  0.5888
19760TIP3   OH280770   2.137   2.078   2.684  0.0800 -0.5582 -0.2587
19760TIP3    H180771   2.045   2.054   2.670 -0.2110 -0.2067  0.8728
19760TIP3    H280772   2.151   2.154   2.627 -0.6369  0.0022  0.2781
19761TIP3   OH280773   4.325   5.417   3.130  0.9953  0.6809 -1.1052
19761TIP3    H180774   4.351   5.410   3.038  2.2223 -0.4845 -0.7088
19761TIP3    H280775   4.408   5.430   3.177  0.3897  1.2084 -0.1590
19762TIP3   OH280776   6.151   4.111  15.406 -0.2556 -0.1597 -0.5371
19762TIP3    H180777   6.136   4.202  15.433  0.6604 -0.0112 -0.5110
19762TIP3    H280778   6.065   4.081  15.375 -0.8176  0.3566  0.4814
19763TIP3   OH280779   2.600   0.851   6.468 -0.2692 -0.3841 -0.0880
19763TIP3    H180780   2.510   0.847   6.434 -0.3916 -0.1114  0.1942
19763TIP3    H280781   2.606   0.777   6.528 -0.7023  0.2929  0.8189
19764TIP3   OH280782   4.583   2.086  14.213 -0.7818  0.3336  0.9694
19764TIP3    H180783   4.665   2.104  14.167 -1.2306  1.3341  0.5186
19764TIP3    H280784   4.524   2.054  14.146 -1.4884  1.9549  0.7729
19765TIP3   OH280785   5.219   1.760   2.854 -0.3914 -0.2009 -0.0044
19765TIP3    H180786   5.178   1.835   2.810 -1.2616 -1.8654 -2.2208
19765TIP3    H280787   5.147   1.703   2.879  0.3203 -0.9539  0.3931
19766TIP3   OH280788   3.818   1.412   5.412  0.1636  0.4318  0.1354
19766TIP3    H180789   3.899   1.413   5.361 -0.4991 -0.5405 -0.9920
19766TIP3    H280790   3.814   1.499   5.453  1.2896  0.8342 -0.5615
19767TIP3   OH280791   2.967   2.019   3.826 -0.3614 -0.2959  0.2803
19767TIP3    H180792   2.908   1.951   3.793 -1.5086  0.3041  1.0319
19767TIP3    H280793   2.972   2.003   3.920  2.4656 -1.6855  0.0212
19768TIP3   OH280794   5.136   6.021  15.232 -0.2595 -0.1412 -0.1891
19768TIP3    H180795   5.091   6.101  15.206 -0.8454 -0.8349 -1.3864
19768TIP3    H280796   5.115   6.011  15.325 -0.7116  0.7418 -0.1837
19769TIP3   OH280797   3.810   2.638  11.395  0.2755 -0.1460 -0.0250
19769TIP3    H180798   3.897   2.614  11.364  0.9269  0.4153  1.3067
19769TIP3    H280799   3.823   2.666  11.485 -1.5795 -2.0781  0.9539
19770TIP3   OH280800   3.030   1.751  13.160  0.4239  0.4338 -0.0531
19770TIP3    H180801   2.995   1.670  13.122  1.5505 -0.6363  1.1442
19770TIP3    H280802   2.955   1.789  13.207  0.3489 -0.8993  0.9647
19771TIP3   OH280803   3.730   2.846   0.806 -0.3295  0.2562 -0.5114
19771TIP3    H180804   3.756   2.760   0.837  2.5697  1.0603 -0.4763
19771TIP3    H280805   3.708   2.834   0.714  1.6522 -0.2981 -0.9539
19772TIP3   OH280806   4.537   2.787   5.662 -0.0613  0.2592  0.0632
19772TIP3    H180807   4.476   2.818   5.595 -0.3305 -0.0039  0.1834
19772TIP3    H280808   4.517   2.841   5.739  0.1838  0.4975 -0.0401
19773TIP3   OH280809   1.796   3.207  12.001  0.3425  0.0083  0.4706
19773TIP3    H180810   1.810   3.276  11.937 -1.9684  1.6356  1.5834
19773TIP3    H280811   1.842   3.237  12.079 -1.6958  1.0605  1.3646
19774TIP3   OH280812   3.334   4.153   4.437 -0.0618  0.0367 -0.1094
19774TIP3    H180813   3.313   4.152   4.530 -0.5626  1.0925 -0.1937
19774TIP3    H280814   3.426   4.128   4.433 -0.2820 -0.9366  0.5853
19775TIP3   OH280815   1.842   3.901  12.915  0.3192 -0.0754  0.5328
19775TIP3    H180816   1.935   3.921  12.926  0.2515  0.6868 -0.1183
19775TIP3    H280817   1.821   3.935  12.828 -0.7904  0.6399  1.0615
19776TIP3   OH280818   6.805   5.978  12.749 -0.0553 -0.6888 -0.1980
19776TIP3    H180819   6.784   5.887  12.731 -0.7250 -0.6362  0.2809
19776TIP3    H280820   6.815   5.982  12.844  0.8119 -0.4298 -0.2917
19777TIP3   OH280821   6.067   4.184  14.480  0.0226  0.3945 -0.0905
19777TIP3    H180822   6.116   4.105  14.458  1.6250  0.8173  1.6888
19777TIP3    H280823   5.977   4.154  14.492  0.4550 -1.0193 -0.1707
19778TIP3   OH280824   2.473   2.046  16.934  0.5606 -0.4510  0.2786
19778TIP3    H180825   2.489   2.089  16.850 -1.6874 -0.8016 -0.3967
19778TIP3    H280826   2.504   1.956  16.921 -0.1449 -0.6141 -0.3230
19779TIP3   OH280827   2.733   3.834  12.013  0.7610  0.5302 -0.4194
19779TIP3    H180828   2.765   3.854  12.102  0.2327  1.4465 -0.4173
19779TIP3    H280829   2.639   3.851  12.018  0.2337 -1.9918 -0.4629
19780TIP3   OH280830   1.019   2.660   1.338  0.6087  0.5729 -0.1278
19780TIP3    H180831   1.066   2.687   1.417  0.1290  0.1266  0.3213
19780TIP3    H280832   0.926   2.671   1.360  0.4644  0.2991 -0.5692
19781TIP3   OH280833   5.260   6.227  10.652 -0.5872  0.4860 -0.1482
19781TIP3    H180834   5.255   6.218  10.557 -1.4751  0.0614 -0.0705
19781TIP3    H280835   5.271   6.137  10.684 -0.2426  0.6312  0.1533
19782TIP3   OH280836   2.799   3.513   3.257  0.8077 -0.4214  0.3939
19782TIP3    H180837   2.788   3.423   3.228 -1.0325  0.2889 -1.4468
19782TIP3    H280838   2.710   3.545   3.271  1.4605  0.7745  2.2370
19783TIP3   OH280839   3.422   2.630   4.537  0.0126  0.5304  0.1999
19783TIP3    H180840   3.328   2.623   4.553 -0.1834  0.0943 -0.9929
19783TIP3    H280841   3.441   2.724   4.541 -0.3465  0.5767  1.0212
19784TIP3   OH280842   0.874   3.341   4.425  0.0537 -0.0208  0.8377
19784TIP3    H180843   0.785   3.356   4.455 -0.3730 -2.7456  1.2287
19784TIP3    H280844   0.898   3.256   4.462  2.6744  0.4268  0.3988
19785TIP3   OH280845   2.814   0.204  14.544 -0.2956 -0.2014 -0.5813
19785TIP3    H180846   2.857   0.252  14.615  0.0839  0.5662 -1.3153
19785TIP3    H280847   2.793   0.119  14.583  0.8294 -0.1693  0.1526
19786TIP3   OH280848   4.137   3.505  15.067 -0.7173 -0.2779 -0.3195
19786TIP3    H180849   4.148   3.546  15.153 -2.6956  1.4159 -0.7845
19786TIP3    H280850   4.065   3.443  15.079 -0.3060 -0.8034 -0.5282
19787TIP3   OH280851   1.087   6.731  14.639  0.1426  0.3125  0.7101
19787TIP3    H180852   1.181   6.740  14.651  0.3330  0.7963 -1.0393
19787TIP3    H280853   1.050   6.810  14.678  0.6793  1.4323 -0.9806
19788TIP3   OH280854   5.524   4.175   5.294  0.6466 -0.4702  0.6492
19788TIP3    H180855   5.538   4.246   5.356  0.9488 -0.3789  0.4783
19788TIP3    H280856   5.489   4.103   5.347 -0.7674  0.1811  0.6337
19789TIP3   OH280857   4.747   1.514  11.993 -0.1327  0.4579  0.0124
19789TIP3    H180858   4.724   1.605  11.975 -0.9049  0.2514 -0.1214
19789TIP3    H280859   4.677   1.464  11.952  1.4373 -0.3204 -1.8259
19790TIP3   OH280860   5.135   4.878  17.000 -0.1719 -0.1234 -0.4523
19790TIP3    H180861   5.186   4.945  16.954 -0.5871  0.8806  0.4883
19790TIP3    H280862   5.181   4.866  17.083 -1.2327  0.5038  0.2377
19791TIP3   OH280863   0.793   1.712  16.684  0.1544 -0.2974  0.1384
19791TIP3    H180864   0.758   1.635  16.641 -0.9132  0.5294 -0.5184
19791TIP3    H280865   0.782   1.783  16.620 -1.4517  0.9577  1.6923
19792TIP3   OH280866   3.699   3.474   0.053  0.3720  0.4103 -0.2117
19792TIP3    H180867   3.666   3.506  -0.030 -2.1402  1.0238  0.9293
19792TIP3    H280868   3.694   3.379   0.046  2.7921  0.3187 -1.6822
19793TIP3   OH280869   2.262   6.270   3.642 -0.3191  0.1451  0.1106
19793TIP3    H180870   2.345   6.227   3.664  0.2229  0.8632 -0.4586
19793TIP3    H280871   2.197   6.227   3.697  0.0016 -2.1134 -1.1783
19794TIP3   OH280872   0.341   2.084   4.220 -0.1853 -0.0858 -0.3763
19794TIP3    H180873   0.320   2.096   4.128  0.0930  1.5368 -0.2458
19794TIP3    H280874   0.368   1.992   4.226  1.7814  0.2786 -2.3036
19795TIP3   OH280875   3.687   5.536  11.278 -0.1167 -0.1753 -0.1831
19795TIP3    H180876   3.654   5.469  11.337 -2.1160 -0.4135 -1.5026
19795TIP3    H280877   3.705   5.490  11.196  0.3267  0.5661 -0.5129
19796TIP3   OH280878   2.276   0.877  15.709 -0.5636  0.1248 -0.6132
19796TIP3    H180879   2.204   0.919  15.755 -1.2926 -1.1650 -0.5360
19796TIP3    H280880   2.343   0.863  15.775  0.8578  3.5337 -1.1418
19797TIP3   OH280881   5.342   2.694   5.190 -0.3781  0.4930 -0.2411
19797TIP3    H180882   5.319   2.787   5.193  0.3065  0.7133 -1.3757
19797TIP3    H280883   5.262   2.649   5.217 -1.2766  1.3466 -1.3427
19798TIP3   OH280884   6.145   3.191  16.842  0.0237 -0.1469 -0.3694
19798TIP3    H180885   6.064   3.162  16.883  0.5331  0.5537  1.2170
19798TIP3    H280886   6.129   3.183  16.748 -1.6956 -0.4944 -0.0734
19799TIP3   OH280887   4.421   2.489   4.965  0.0313 -0.3651 -0.4790
19799TIP3    H180888   4.340   2.467   4.919 -1.0145  1.6048  0.3100
19799TIP3    H280889   4.481   2.513   4.895  0.0357 -1.9978 -1.0836
19800TIP3   OH280890   0.929   6.794  11.872 -0.0836 -0.0664  0.0627
19800TIP3    H180891   1.022   6.776  11.883 -0.5831 -1.2253  3.3847
19800TIP3    H280892   0.886   6.745  11.942 -3.2183  0.5033 -1.2874
19801TIP3   OH280893   5.053   0.654  14.400  0.0191 -0.3785  0.0412
19801TIP3    H180894   5.026   0.685  14.487 -1.2433 -1.2828 -0.0021
19801TIP3    H280895   5.138   0.613  14.414  0.9196  1.4947  0.4140
19802TIP3   OH280896   3.476   6.751   4.425  0.2304 -0.4706 -0.0656
19802TIP3    H180897   3.428   6.832   4.409  0.0903 -0.2272  1.4559
19802TIP3    H280898   3.424   6.706   4.491  2.1572 -0.1283  1.7799
19803TIP3   OH280899   3.095   2.816   4.571  0.4834 -0.8463 -0.7502
19803TIP3    H180900   3.127   2.734   4.609 -1.7690 -1.4376  0.0228
19803TIP3    H280901   3.135   2.884   4.624  1.0523 -1.4982 -0.3205
19804TIP3   OH280902   0.595   5.459  14.707  0.5499 -0.6480 -0.3003
19804TIP3    H180903   0.605   5.487  14.616 -0.0937  1.7285  0.2933
19804TIP3    H280904   0.645   5.523  14.758  0.4682 -1.6214  1.0708
19805TIP3   OH280905   5.453   6.487  16.645 -0.1575 -0.1002 -0.2567
19805TIP3    H180906   5.427   6.539  16.569  1.2711 -0.0493 -0.7382
19805TIP3    H280907   5.392   6.512  16.713 -0.4544  1.0683 -0.9282
19806TIP3   OH280908   5.233   6.450   3.323 -0.3210  0.4446  0.1619
19806TIP3    H180909   5.183   6.509   3.380 -0.2854  0.2343  0.4136
19806TIP3    H280910   5.324   6.470   3.343 -0.2664  1.6771 -1.1650
19807TIP3   OH280911   5.923   1.009   1.766 -0.0396 -0.1780 -0.1222
19807TIP3    H180912   5.952   0.922   1.736 -1.8548 -0.3943 -1.3707
19807TIP3    H280913   5.862   0.990   1.837  0.6072  0.1600  0.5371
19808TIP3   OH280914   0.202   3.655  11.118 -0.5484  0.2316  0.1009
19808TIP3    H180915   0.149   3.683  11.043 -0.6756  1.4990  0.6306
19808TIP3    H280916   0.147   3.670  11.194 -0.6178 -1.5750  0.4344
19809TIP3   OH280917   0.132   6.186  10.873  0.4181 -0.0453  0.1060
19809TIP3    H180918   0.220   6.190  10.911  0.7618 -0.5780 -0.6073
19809TIP3    H280919   0.147   6.160  10.782 -0.4799 -0.0997 -0.0314
19810TIP3   OH280920   0.837   5.113  11.365 -0.4785 -0.6230 -0.4211
19810TIP3    H180921   0.850   5.205  11.341 -0.5299 -0.8049 -1.1839
19810TIP3    H280922   0.922   5.084  11.397 -0.1193 -0.6419 -1.3543
19811TIP3   OH280923   5.398   4.714  13.790 -0.3736 -0.3018 -0.6812
19811TIP3    H180924   5.468   4.709  13.855 -0.6356  0.0885 -0.3668
19811TIP3    H280925   5.437   4.765  13.718  0.7300 -2.6755 -1.8977
19812TIP3   OH280926   6.594   2.122  15.574 -0.1195  0.2534 -0.1078
19812TIP3    H180927   6.525   2.173  15.532  0.0852 -0.4635 -1.4011
19812TIP3    H280928   6.620   2.058  15.507  0.4974 -0.7139  1.0061
19813TIP3   OH280929   3.068   2.591   1.473 -0.1696  0.1008  0.0309
19813TIP3    H180930   3.050   2.659   1.408  0.5491  0.5539  0.2950
19813TIP3    H280931   3.106   2.519   1.423 -1.0795 -0.1784 -0.2722
19814TIP3   OH280932   6.077   0.823  11.283  0.3329 -0.2942 -0.0409
19814TIP3    H180933   6.041   0.738  11.257  0.7011 -0.2103 -0.8719
19814TIP3    H280934   6.060   0.829  11.377  0.7566 -1.5062  0.1241
19815TIP3   OH280935   1.965   4.194   2.464  0.0398  0.0932  0.7074
19815TIP3    H180936   1.940   4.115   2.512 -0.6401 -0.8135 -1.0360
19815TIP3    H280937   2.056   4.180   2.439 -0.6622 -1.1670 -1.3869
19816TIP3   OH280938   1.912   3.506   5.853 -0.4366 -0.1661  0.8664
19816TIP3    H180939   1.853   3.433   5.835  0.0472 -1.0378  2.5779
19816TIP3    H280940   1.868   3.555   5.923 -0.2708  0.5899  0.4492
19817TIP3   OH280941   4.875   5.445  14.186  0.1443  0.0535 -0.2997
19817TIP3    H180942   4.819   5.367  14.182  1.8792 -1.2095 -1.6363
19817TIP3    H280943   4.918   5.440  14.271 -1.1718  0.6439  0.4326
19818TIP3   OH280944   2.907   5.372   3.443 -0.3928 -0.1178  0.4997
19818TIP3    H180945   2.913   5.334   3.530 -0.5345 -0.0375  0.5441
19818TIP3    H280946   2.834   5.325   3.401 -1.0053  0.5616  0.7828
19819TIP3   OH280947   4.207   1.683   4.864  0.0189 -0.4933 -0.3799
19819TIP3    H180948   4.214   1.623   4.939  0.4523  0.6595  0.5190
19819TIP3    H280949   4.290   1.731   4.864 -1.4052  2.1236  0.6761
19820TIP3   OH280950   4.708   3.560  11.345 -0.0166  0.6030  0.0201
19820TIP3    H180951   4.626   3.524  11.311 -0.3833  1.8760 -0.5312
19820TIP3    H280952   4.681   3.638  11.393  0.8880  1.1757 -0.3658
19821TIP3   OH280953   6.360   0.535  17.034  0.3006 -0.2209 -0.1848
19821TIP3    H180954   6.441   0.485  17.022  1.0204  0.9593 -0.3276
19821TIP3    H280955   6.387   0.614  17.081 -0.8546 -0.0503  0.2234
19822TIP3   OH280956   2.886   1.580   1.346  0.1064 -0.0147 -0.4632
19822TIP3    H180957   2.883   1.619   1.433  1.0739 -1.8958  0.4635
19822TIP3    H280958   2.901   1.654   1.288  2.4220  1.0082  1.2737
19823TIP3   OH280959   5.525   3.059   4.369 -0.8297 -0.1757 -0.2910
19823TIP3    H180960   5.571   3.137   4.399 -0.5320  0.4553 -2.2625
19823TIP3    H280961   5.433   3.076   4.389 -0.5189 -0.3873  1.4501
19824TIP3   OH280962   4.974   6.301   4.444 -0.3850  0.3679  0.1973
19824TIP3    H180963   4.995   6.301   4.538 -0.1957 -0.5175  0.1689
19824TIP3    H280964   4.995   6.212   4.415 -0.3501  0.6590 -0.7101
19825TIP3   OH280965   2.136   1.137   0.793  0.1179 -0.0800 -0.3004
19825TIP3    H180966   2.152   1.062   0.850 -0.6842  0.0281  0.0743
19825TIP3    H280967   2.208   1.198   0.812 -0.1793 -0.0122  0.6522
19826TIP3   OH280968   5.789   6.445   3.687 -0.0358  0.4785 -0.0007
19826TIP3    H180969   5.838   6.528   3.684  0.2095  0.3149 -2.2768
19826TIP3    H280970   5.728   6.451   3.614  0.2509 -1.4848 -0.4462
19827TIP3   OH280971   3.376   6.235  17.118  0.0073 -0.3446  0.5010
19827TIP3    H180972   3.391   6.306  17.057 -0.1530 -3.2396 -3.2373
19827TIP3    H280973   3.281   6.227  17.123 -0.0257  0.4955  2.0967
19828TIP3   OH280974   5.119   1.441   4.301  0.6494  0.3681  0.5237
19828TIP3    H180975   5.133   1.376   4.233  0.5040  0.8737  0.0071
19828TIP3    H280976   5.164   1.519   4.269  0.6291  0.5941  1.0344
19829TIP3   OH280977   2.952   2.375  13.067  0.2402  0.0720 -0.0095
19829TIP3    H180978   2.921   2.342  13.151 -1.1183 -0.6076 -0.7408
19829TIP3    H280979   2.932   2.305  13.005 -0.3400  1.2318 -1.1834
19830TIP3   OH280980   0.321   5.701  13.963 -0.0842  0.1966  0.5072
19830TIP3    H180981   0.251   5.637  13.950  0.5365 -0.6451  1.2254
19830TIP3    H280982   0.400   5.648  13.973  0.4959  1.0961  0.7505
19831TIP3   OH280983   0.049   0.641   0.223  0.1273 -0.2419  0.2031
19831TIP3    H180984   0.050   0.732   0.252  1.7758  0.2975 -1.3640
19831TIP3    H280985  -0.029   0.603   0.264 -0.9214  2.0190  0.4175
19832TIP3   OH280986   6.294   4.301  17.148  0.0524 -0.2510 -0.3684
19832TIP3    H180987   6.241   4.229  17.115 -0.3011  0.3277 -1.0853
19832TIP3    H280988   6.333   4.267  17.228 -2.9451 -0.0991  1.3295
19833TIP3   OH280989   4.337   6.616  15.615  0.4718  0.6354 -0.2297
19833TIP3    H180990   4.355   6.594  15.524 -0.1008 -1.1461  0.0411
19833TIP3    H280991   4.258   6.670  15.612 -0.7902 -1.1477 -0.6978
19834TIP3   OH280992   2.115   1.856  16.075 -0.0410  0.1355 -0.4909
19834TIP3    H180993   2.025   1.828  16.091  0.1327  0.5791  1.6204
19834TIP3    H280994   2.112   1.951  16.077  0.6112  0.1572  0.7282
19835TIP3   OH280995   1.022   0.841   0.667 -0.3080  0.1349  0.1261
19835TIP3    H180996   0.960   0.793   0.722  0.7336 -2.0970 -0.5395
19835TIP3    H280997   0.998   0.818   0.578  0.5280  0.4746 -0.1951
19836TIP3   OH280998   2.547   1.753  12.551 -0.2086  0.2738  0.3789
19836TIP3    H180999   2.616   1.811  12.517 -1.4679  1.3791 -0.4110
19836TIP3    H281000   2.502   1.722  12.472  0.1443 -1.4549  0.8172
19837TIP3   OH281001   1.034   6.533  15.424 -0.3423 -0.2390 -0.4432
19837TIP3    H181002   0.968   6.530  15.494  1.1830 -1.1416  1.0260
19837TIP3    H281003   1.088   6.608  15.446  0.3307 -0.7087 -0.4664
19838TIP3   OH281004   2.773   3.854  14.848  0.4184  0.0543  0.4327
19838TIP3    H181005   2.740   3.884  14.933 -0.9027  0.2724 -0.1293
19838TIP3    H281006   2.739   3.765  14.839  1.9699 -0.6185  0.8468
19839TIP3   OH281007   3.406   2.134  14.002 -0.4877  0.0075 -0.1200
19839TIP3    H181008   3.425   2.224  13.977 -0.6816 -0.0161 -0.3527
19839TIP3    H281009   3.485   2.105  14.049 -0.7405  0.5481  0.6400
19840TIP3   OH281010   1.364   2.058  14.138  0.1158 -0.3350  0.0462
19840TIP3    H181011   1.281   2.106  14.137  0.8737  1.0067 -0.4855
19840TIP3    H281012   1.345   1.980  14.190 -1.5080 -0.1256 -0.1580
19841TIP3   OH281013   1.499   0.775   5.199  0.2954 -0.1508 -0.0471
19841TIP3    H181014   1.531   0.790   5.288 -0.5242  0.5771  0.1372
19841TIP3    H281015   1.571   0.730   5.155  1.1379  0.4628  0.6693
19842TIP3   OH281016   2.855   1.765   3.460 -0.1044  0.4027  0.0806
19842TIP3    H181017   2.772   1.813   3.468 -0.3974 -0.1885  0.6986
19842TIP3    H281018   2.922   1.831   3.473 -0.3396  1.5582 -3.5439
19843TIP3   OH281019   1.270   3.452   5.587  0.3290  0.0128  0.1050
19843TIP3    H181020   1.334   3.410   5.645 -2.4070 -0.3104  3.1334
19843TIP3    H281021   1.278   3.546   5.607 -0.4385 -0.0755  0.8847
19844TIP3   OH281022   5.301   3.838  15.242  0.1609 -0.2597 -0.6987
19844TIP3    H181023   5.383   3.853  15.194 -0.2807 -0.4994 -1.5548
19844TIP3    H281024   5.250   3.782  15.184 -0.8124  0.2988 -0.3930
19845TIP3   OH281025   3.856   0.923  16.070 -0.5589 -0.1010  0.3477
19845TIP3    H181026   3.802   0.979  16.124  0.2949  1.2624 -0.1749
19845TIP3    H281027   3.946   0.938  16.100 -0.1132  0.3450 -1.1053
19846TIP3   OH281028   0.089   6.795   6.581  0.2018 -0.0892 -0.3802
19846TIP3    H181029   0.083   6.702   6.558 -1.3484 -0.2065  0.4089
19846TIP3    H281030   0.182   6.815   6.573  0.7879 -2.0522  0.7269
19847TIP3   OH281031   5.134   3.126  14.868 -0.0049 -0.2749 -0.1238
19847TIP3    H181032   5.100   3.094  14.785  1.7209 -1.5486 -0.3990
19847TIP3    H281033   5.206   3.067  14.889  1.1702  1.4748  1.0643
19848TIP3   OH281034   5.373   1.043   3.497  0.7319  0.6125  0.3675
19848TIP3    H181035   5.310   1.010   3.433  0.0853  1.1263  0.7273
19848TIP3    H281036   5.375   0.975   3.566 -0.0916  0.9937  0.7791
19849TIP3   OH281037   4.202   0.418  12.808  0.6065 -0.1294  0.2151
19849TIP3    H181038   4.198   0.430  12.713 -0.7640 -0.2089  0.2528
19849TIP3    H281039   4.168   0.500  12.844  2.7816  0.6289  0.7005
19850TIP3   OH281040   6.105   2.041  13.591  0.2226  0.1033  0.3348
19850TIP3    H181041   6.119   1.953  13.554 -1.8298 -0.5229  0.9159
19850TIP3    H281042   6.149   2.100  13.530  0.7905 -1.2529 -0.6192
19851TIP3   OH281043   0.849   3.467  13.057 -0.4741 -0.2901 -0.6777
19851TIP3    H181044   0.775   3.484  12.999  0.2044 -0.8088 -1.7402
19851TIP3    H281045   0.863   3.549  13.104 -2.1838 -0.4103  0.1142
19852TIP3   OH281046   1.820   6.470  17.028 -0.5095 -0.0416  0.1845
19852TIP3    H181047   1.761   6.492  17.100 -0.3884 -1.7718  0.8789
19852TIP3    H281048   1.773   6.497  16.949 -2.0150 -0.8740  0.7516
19853TIP3   OH281049   1.634   5.700  16.850 -0.0756 -0.2078 -0.6191
19853TIP3    H181050   1.634   5.665  16.761 -0.2665 -2.1713  0.1005
19853TIP3    H281051   1.597   5.630  16.904  0.4120  0.7658  1.0690
19854TIP3   OH281052   1.757   4.970   1.554  0.1755 -0.0346  0.0537
19854TIP3    H181053   1.677   5.020   1.568 -0.1380  0.1624 -2.0800
19854TIP3    H281054   1.734   4.880   1.578 -0.8245 -0.0397 -0.8520
19855TIP3   OH281055   1.140   0.161   4.290 -0.0932  0.3055 -0.0411
19855TIP3    H181056   1.129   0.092   4.357 -0.9573  0.4760  0.0102
19855TIP3    H281057   1.234   0.169   4.279  0.0220 -1.0789 -0.2331
19856TIP3   OH281058   3.573   0.353  10.529  0.2678 -0.2408  0.1247
19856TIP3    H181059   3.626   0.313  10.597 -0.5189  0.2238  1.0237
19856TIP3    H281060   3.482   0.332  10.553  0.0060 -1.3662 -1.5860
19857TIP3   OH281061   0.762   5.968  11.236  0.1169  0.3166  0.3599
19857TIP3    H181062   0.851   5.973  11.200 -0.2507  1.6084 -0.4281
19857TIP3    H281063   0.707   6.008  11.169 -1.3903 -2.3737 -0.1373
19858TIP3   OH281064   4.532   2.383   2.675  0.4441 -0.4307  0.5374
19858TIP3    H181065   4.535   2.412   2.584 -2.2151 -0.7561  0.2581
19858TIP3    H281066   4.591   2.307   2.679  0.0161 -0.8792 -1.1207
19859TIP3   OH281067   2.954   0.913  15.206  0.0227 -0.1191  0.1855
19859TIP3    H181068   2.966   0.963  15.287  0.7440 -0.6672  0.4270
19859TIP3    H281069   2.859   0.901  15.199 -0.2054  1.5690 -0.0690
19860TIP3   OH281070   1.108   0.941   5.591 -0.1742  0.3578  0.0889
19860TIP3    H181071   1.158   0.876   5.541 -0.1761  0.6856 -0.3474
19860TIP3    H281072   1.046   0.890   5.642  0.3670 -0.0355  0.3666
19861TIP3   OH281073   4.687   2.160  13.398  0.3451  0.0184  0.5046
19861TIP3    H181074   4.651   2.234  13.350 -0.2997  0.2383  1.2919
19861TIP3    H281075   4.617   2.135  13.459 -0.2985 -2.5697 -1.1434
19862TIP3   OH281076   2.819   5.421   6.373 -0.6170  0.1646 -0.0539
19862TIP3    H181077   2.850   5.485   6.309 -0.0499  1.1757  1.1782
19862TIP3    H281078   2.723   5.427   6.367 -0.6723  2.9776  1.6871
19863TIP3   OH281079   1.795   1.451   3.155 -0.7839  0.1841 -0.2561
19863TIP3    H181080   1.815   1.378   3.213 -0.4517 -0.2223 -0.8673
19863TIP3    H281081   1.779   1.525   3.213 -0.4457 -0.2112  0.3460
19864TIP3   OH281082   2.832   2.915  15.900 -0.0369  0.0489  0.1829
19864TIP3    H181083   2.803   2.991  15.950  0.0807 -0.6145  1.2758
19864TIP3    H281084   2.751   2.873  15.872 -0.1103  0.8781 -0.9359
19865TIP3   OH281085   1.028   2.459   2.461  0.2318  0.2480  0.3200
19865TIP3    H181086   1.053   2.403   2.535 -0.8049 -0.3648  0.2226
19865TIP3    H281087   0.976   2.528   2.500 -0.2406 -0.0255  0.1754
19866TIP3   OH281088   6.302   0.456  16.343 -0.2662 -0.6783 -0.4831
19866TIP3    H181089   6.244   0.379  16.344 -0.6774 -0.3731  0.5457
19866TIP3    H281090   6.278   0.505  16.422  1.4768 -0.5865  0.0296
19867TIP3   OH281091   4.230   5.519  14.179 -0.4141  0.3145  0.0507
19867TIP3    H181092   4.148   5.566  14.167 -0.4030  0.1729 -0.6291
19867TIP3    H281093   4.227   5.448  14.114  0.1175  0.1358  0.2128
19868TIP3   OH281094   4.222   6.721  14.579  0.3718 -0.2390  0.6988
19868TIP3    H181095   4.306   6.681  14.560  0.4939 -0.0269  0.7916
19868TIP3    H281096   4.160   6.648  14.582  0.8651 -0.6459  2.5157
19869TIP3   OH281097   0.663   0.466  13.737 -0.5910 -0.7742  0.0432
19869TIP3    H181098   0.748   0.510  13.726 -0.2037 -1.3149  0.7712
19869TIP3    H281099   0.624   0.467  13.650 -0.0284 -0.1337 -0.2133
19870TIP3   OH281100   4.047   2.372  13.560 -0.1525  0.0918 -0.1378
19870TIP3    H181101   4.073   2.436  13.494  0.0040  0.7686  0.5645
19870TIP3    H281102   4.079   2.408  13.643 -0.9828 -0.3801  0.4060
19871TIP3   OH281103   2.472   0.556   3.815 -0.3881  0.6632  0.5455
19871TIP3    H181104   2.481   0.470   3.856 -1.0298  0.4518  0.2686
19871TIP3    H281105   2.452   0.537   3.723  1.0559  1.1292  0.1190
19872TIP3   OH281106   4.289   5.350   1.281 -0.3540 -0.2031  0.1963
19872TIP3    H181107   4.326   5.292   1.348 -0.4605 -1.7789 -1.0380
19872TIP3    H281108   4.195   5.349   1.296 -0.1785  1.9695  1.9097
19873TIP3   OH281109   4.188   0.746   4.354  0.3164 -0.0015 -0.2266
19873TIP3    H181110   4.273   0.776   4.321 -0.1093  1.1418 -0.3432
19873TIP3    H281111   4.194   0.651   4.353  2.2668  0.0164  1.4374
19874TIP3   OH281112   1.824   2.271   5.197 -0.2548  0.2083 -0.2945
19874TIP3    H181113   1.898   2.326   5.222 -0.5162  0.5102 -0.1751
19874TIP3    H281114   1.760   2.332   5.161  0.6158 -0.3321 -3.0037
19875TIP3   OH281115   6.615   2.764   2.586 -0.6388  0.3271  0.2659
19875TIP3    H181116   6.696   2.805   2.556  0.3391 -1.4693  0.2838
19875TIP3    H281117   6.641   2.715   2.664 -1.0408 -2.5185 -1.2321
19876TIP3   OH281118   0.222   4.396  14.141  0.4866  0.2692 -0.3533
19876TIP3    H181119   0.156   4.328  14.157  1.6199 -1.0907 -1.2766
19876TIP3    H281120   0.304   4.359  14.174  1.1302  1.1891 -0.8635
19877TIP3   OH281121   2.731   5.392  11.072  0.2316  0.6264 -0.2625
19877TIP3    H181122   2.646   5.414  11.032 -0.8018  0.0230  1.4655
19877TIP3    H281123   2.772   5.332  11.010 -1.6572 -0.9168 -0.1277
19878TIP3   OH281124   6.317   1.749   1.763  0.1254 -0.5776 -0.0637
19878TIP3    H181125   6.285   1.659   1.764  0.7982 -0.9050 -2.4668
19878TIP3    H281126   6.356   1.760   1.676  2.3575  1.2474  1.0614
19879TIP3   OH281127   5.997   3.389  17.102 -0.1055  0.0102 -0.0764
19879TIP3    H181128   6.073   3.444  17.117  0.1505 -0.4166  0.2077
19879TIP3    H281129   5.951   3.430  17.029  1.0019 -0.3630 -1.0032
19880TIP3   OH281130   1.294   0.091   2.478 -0.6514 -0.3367 -0.4075
19880TIP3    H181131   1.380   0.070   2.442 -0.4311  2.3769 -1.6896
19880TIP3    H281132   1.270   0.014   2.530  3.6897 -0.2142  2.2378
19881TIP3   OH281133   6.141   0.467  16.887 -0.0551 -0.0682  0.0311
19881TIP3    H181134   6.218   0.490  16.939  0.8411 -1.2881 -0.7010
19881TIP3    H281135   6.110   0.384  16.923 -0.6678  0.1146 -0.0625
19882TIP3   OH281136   1.218   3.008  15.021  0.1796 -0.0427  0.2363
19882TIP3    H181137   1.175   2.925  15.001 -0.4652 -0.4088  2.7834
19882TIP3    H281138   1.213   3.015  15.116 -0.1312  3.1345  0.0823
19883TIP3   OH281139   4.770   3.277   6.561 -0.1611 -0.2893 -0.4167
19883TIP3    H181140   4.862   3.281   6.536 -0.1267  1.0115 -0.1323
19883TIP3    H281141   4.754   3.184   6.579  0.4624 -0.9325 -2.7913
19884TIP3   OH281142   5.222   4.069   5.295  0.3149  0.5012  0.0788
19884TIP3    H181143   5.154   4.010   5.326  0.2196  0.8376  0.5099
19884TIP3    H281144   5.297   4.051   5.351  0.2235  0.9262  0.3392
19885TIP3   OH281145   5.133   4.576  13.129 -0.2698  0.0010 -0.0733
19885TIP3    H181146   5.199   4.548  13.066  0.7520 -0.7166  1.2594
19885TIP3    H281147   5.051   4.576  13.079  0.6584  0.5520 -1.6671
19886TIP3   OH281148   6.691   6.542  16.115  0.0648  0.1240 -0.0501
19886TIP3    H181149   6.767   6.566  16.061  0.1161  0.5627  0.2113
19886TIP3    H281150   6.727   6.532  16.203  0.6534 -4.0368 -0.5855
19887TIP3   OH281151   6.482   2.775  14.118  0.3967 -0.4197  0.0789
19887TIP3    H181152   6.526   2.803  14.037 -0.2905  0.7331  0.0890
19887TIP3    H281153   6.554   2.745  14.174  0.9816 -0.2897 -0.5754
19888TIP3   OH281154   0.190   3.812  16.745  0.8097  0.4821 -0.2774
19888TIP3    H181155   0.179   3.904  16.722 -0.9718 -0.2063 -2.4945
19888TIP3    H281156   0.152   3.804  16.832 -1.8378  1.3391 -1.2676
19889TIP3   OH281157   3.086   0.730   0.793 -0.4285  0.0014  0.5340
19889TIP3    H181158   3.150   0.659   0.788 -1.5999 -1.1924  1.7299
19889TIP3    H281159   3.119   0.787   0.863 -1.1345 -1.1476  1.8500
19890TIP3   OH281160   1.299   0.570   1.846  0.2191  0.1360 -0.1338
19890TIP3    H181161   1.273   0.610   1.763  0.4691  1.6718  0.4859
19890TIP3    H281162   1.230   0.595   1.908  0.4819 -0.2367  0.3211
19891TIP3   OH281163   4.138   3.190   1.989  0.4099 -0.6898 -0.1023
19891TIP3    H181164   4.150   3.096   2.006  0.4453 -0.8714 -1.0743
19891TIP3    H281165   4.227   3.224   1.983  0.4001 -0.5049  0.6448
19892TIP3   OH281166   3.916   6.728  14.666  0.4326 -0.3490  0.5827
19892TIP3    H181167   3.824   6.745  14.684  0.0998 -0.1007 -1.2013
19892TIP3    H281168   3.917   6.690  14.578  2.1905  1.5055 -0.2744
19893TIP3   OH281169   1.583   1.698  16.978 -0.2768 -0.1096 -0.0213
19893TIP3    H181170   1.583   1.641  17.056 -1.6566 -1.6078 -1.0592
19893TIP3    H281171   1.657   1.667  16.926 -1.1084 -1.1090 -0.6499
19894TIP3   OH281172   2.143   1.578  11.920  0.2347 -0.2292  0.2440
19894TIP3    H181173   2.095   1.547  11.997 -0.9542  1.2264  0.1360
19894TIP3    H281174   2.187   1.500  11.886  0.7769 -0.9101  2.3603
19895TIP3   OH281175   1.017   5.551   1.833 -0.3841 -0.1517 -0.0532
19895TIP3    H181176   1.013   5.497   1.754  1.8091  1.0614 -1.0801
19895TIP3    H281177   1.079   5.620   1.811 -0.3242  0.6796  2.4839
19896TIP3   OH281178   2.341   4.010  17.050 -0.0248  0.1713 -0.4169
19896TIP3    H181179   2.430   4.040  17.030 -0.8994  1.7826 -2.1928
19896TIP3    H281180   2.345   3.915  17.038  1.6132  0.1068  0.2854
19897TIP3   OH281181   4.328   5.262   6.271  0.0995 -0.4061  0.3501
19897TIP3    H181182   4.235   5.241   6.268 -0.3378  0.5396  3.5943
19897TIP3    H281183   4.372   5.177   6.265 -0.8390 -0.7975 -2.1117
19898TIP3   OH281184   0.939   0.470   6.100 -0.4910  0.5576  0.2572
19898TIP3    H181185   0.902   0.476   6.188  1.9479  2.5876  1.2631
19898TIP3    H281186   0.961   0.377   6.089 -1.4923  0.1580  1.4586
19899TIP3   OH281187   0.582   3.746   5.496  0.7890 -0.3174  0.4872
19899TIP3    H181188   0.543   3.765   5.411 -0.0685 -2.2080  0.3986
19899TIP3    H281189   0.507   3.728   5.553  1.4274 -1.2870  1.0445
19900TIP3   OH281190   1.306   6.823   1.800 -0.6905 -0.5786 -0.5349
19900TIP3    H181191   1.227   6.875   1.785 -1.2492 -1.6990 -1.7289
19900TIP3    H281192   1.356   6.831   1.719 -0.4981 -1.3704 -0.5069
19901TIP3   OH281193   2.554   0.176  13.804 -0.0362  1.0020 -0.2686
19901TIP3    H181194   2.592   0.138  13.725 -1.2068 -0.7605 -0.0469
19901TIP3    H281195   2.591   0.124  13.875 -2.8261 -0.8970 -0.0577
19902TIP3   OH281196   3.317   5.360  11.219 -0.2058 -0.0530  0.0789
19902TIP3    H181197   3.264   5.406  11.284 -1.9337 -1.5819 -0.1439
19902TIP3    H281198   3.398   5.338  11.265  0.5808  2.8874  0.2443
19903TIP3   OH281199   2.409   5.099   4.441 -0.1928 -0.0020  0.2179
19903TIP3    H181200   2.318   5.117   4.465 -0.6521 -0.4234 -1.1261
19903TIP3    H281201   2.408   5.009   4.408  0.9856 -0.4969  1.4220
19904TIP3   OH281202   3.304   6.813   2.576 -0.3017  0.6855 -0.5026
19904TIP3    H181203   3.339   6.820   2.488  1.3451 -0.7483 -0.0036
19904TIP3    H281204   3.353   6.878   2.627  0.1741  0.1121 -0.2266
19905TIP3   OH281205   6.296   2.471  16.244 -0.4307  0.7256 -0.2829
19905TIP3    H181206   6.336   2.396  16.287 -0.9957 -0.3268 -1.5239
19905TIP3    H281207   6.365   2.538  16.243  0.5448 -0.2512 -0.3615
19906TIP3   OH281208   5.678   3.835   1.215 -0.1693 -0.4797 -0.1027
19906TIP3    H181209   5.772   3.828   1.229 -0.3318  0.1011  1.4116
19906TIP3    H281210   5.639   3.795   1.293 -1.2403 -2.8507 -1.7270
19907TIP3   OH281211   2.656   1.724   2.284 -0.5093 -0.1689  0.0523
19907TIP3    H181212   2.672   1.817   2.268  0.6475  0.1909  2.7337
19907TIP3    H281213   2.576   1.704   2.235  0.3788  1.6427 -2.3432
19908TIP3   OH281214   3.058   6.092  11.144  0.3823 -0.3239 -0.7238
19908TIP3    H181215   3.132   6.052  11.097 -0.0590  1.9917 -3.6673
19908TIP3    H281216   3.099   6.153  11.205  0.9082 -1.3859  0.0283
19909TIP3   OH281217   1.439   5.934  12.993  0.4115  0.0631 -0.2724
19909TIP3    H181218   1.405   5.918  12.905  0.1576 -2.5560  0.2235
19909TIP3    H281219   1.373   5.897  13.051  1.0988  0.7385  0.9766
19910TIP3   OH281220   2.429   6.476   5.200  0.1404  0.3870  0.2393
19910TIP3    H181221   2.518   6.442   5.193 -0.5788 -1.1892 -2.6610
19910TIP3    H281222   2.375   6.399   5.218 -0.9452  0.7680 -1.1920
19911TIP3   OH281223   5.657   6.446  11.433  0.1983  0.4206  0.0229
19911TIP3    H181224   5.727   6.403  11.384 -0.8237 -1.1120 -0.1722
19911TIP3    H281225   5.578   6.396  11.411 -0.6024  0.7666  1.8721
19912TIP3   OH281226   1.900   1.151  13.660 -1.0448  0.0659  0.4582
19912TIP3    H181227   1.941   1.111  13.737 -0.7671  0.6697  0.6316
19912TIP3    H281228   1.860   1.078  13.613 -0.2221 -0.4679  0.5632
19913TIP3   OH281229   6.577   4.565   0.788 -0.1303 -0.0512 -1.6153
19913TIP3    H181230   6.552   4.625   0.718  3.9903  2.0948 -1.5900
19913TIP3    H281231   6.617   4.622   0.855 -1.8963 -2.2468  1.5915
19914TIP3   OH281232   2.683   3.101  14.715 -0.0552  0.8485  0.3084
19914TIP3    H181233   2.666   3.088  14.622 -0.0897  1.5120  0.2216
19914TIP3    H281234   2.686   3.012  14.751 -0.1349  0.5924 -0.3047
19915TIP3   OH281235   2.445   5.894   1.747  0.1741  0.3331  0.3685
19915TIP3    H181236   2.528   5.852   1.768 -0.1397 -0.6043 -0.1787
19915TIP3    H281237   2.424   5.861   1.659  0.1880  2.1037 -0.3277
19916TIP3   OH281238   6.376   3.830   0.767 -0.1515  0.3333 -0.5638
19916TIP3    H181239   6.324   3.752   0.788  0.9524  0.1157  1.7906
19916TIP3    H281240   6.363   3.888   0.842 -0.7750  2.3797 -2.1699
19917TIP3   OH281241   4.684   5.049  12.186  0.6191 -0.2593  0.1665
19917TIP3    H181242   4.701   5.071  12.095  2.7634 -1.1296  0.3074
19917TIP3    H281243   4.753   5.092  12.236 -0.2355 -0.1921  1.3642
19918TIP3   OH281244   4.313   6.638   0.873  0.1374 -0.2024 -0.4288
19918TIP3    H181245   4.320   6.716   0.817  0.1696 -0.8020 -1.2712
19918TIP3    H281246   4.310   6.673   0.962  2.2409  0.6863 -0.6554
19919TIP3   OH281247   5.863   0.159  15.872 -0.0500 -0.0342  0.0527
19919TIP3    H181248   5.921   0.136  15.799 -0.9415  0.5876 -0.8665
19919TIP3    H281249   5.824   0.076  15.898 -0.3173 -0.1496 -0.6939
19920TIP3   OH281250   2.923   2.225   1.259 -1.3791  0.3863  0.3706
19920TIP3    H181251   2.835   2.200   1.286 -0.7866  0.2737  2.3595
19920TIP3    H281252   2.980   2.196   1.331  0.3849 -0.1548 -1.1426
19921TIP3   OH281253   0.819   5.342   3.949  1.1374  0.1155  0.2059
19921TIP3    H181254   0.792   5.358   4.040 -2.1793 -0.7598 -0.4954
19921TIP3    H281255   0.745   5.374   3.896  2.2769 -0.8756 -2.1047
19922TIP3   OH281256   3.828   2.511   0.016 -0.5519  0.2304 -0.0661
19922TIP3    H181257   3.796   2.435  -0.032  0.5343 -0.8038  0.7699
19922TIP3    H281258   3.841   2.479   0.105 -1.5849  1.8415  0.7098
19923TIP3   OH281259   6.232   4.110  12.489  0.0894 -1.2641  0.4686
19923TIP3    H181260   6.262   4.098  12.399  0.2780  1.6008  0.0518
19923TIP3    H281261   6.139   4.129  12.481  0.3836  0.4173  0.6766
19924TIP3   OH281262   2.516   4.016  12.844  0.1149  0.7605 -0.4057
19924TIP3    H181263   2.588   4.077  12.856 -0.6064  1.2749  1.6791
19924TIP3    H281264   2.440   4.072  12.827 -0.0358  0.2741 -1.4212
19925TIP3   OH281265   6.487   0.597   3.176  0.1305 -0.3298  0.0065
19925TIP3    H181266   6.533   0.529   3.126  1.1147 -0.0441  0.4955
19925TIP3    H281267   6.499   0.571   3.267 -3.6579 -2.1682  0.1560
19926TIP3   OH281268   0.826   5.013  11.625 -0.0500  0.3827 -0.2344
19926TIP3    H181269   0.755   5.056  11.577  0.8102  3.9217  1.3966
19926TIP3    H281270   0.897   5.076  11.625  1.6909 -1.4355  1.6193
19927TIP3   OH281271   5.065   1.014  12.590 -0.1990 -0.2278  0.0594
19927TIP3    H181272   5.106   0.991  12.673 -0.2717 -0.4886  0.0247
19927TIP3    H281273   5.122   0.975  12.524  0.2181  0.5380 -0.0400
19928TIP3   OH281274   6.384   0.730  13.591  0.6719 -0.9198 -0.1761
19928TIP3    H181275   6.352   0.663  13.532  1.2210 -2.6066  1.3622
19928TIP3    H281276   6.310   0.751  13.647  0.8671 -1.2248  0.2012
19929TIP3   OH281277   0.890   1.025   6.014  0.1884 -0.0978  0.4100
19929TIP3    H181278   0.945   1.076   6.073  2.4707  0.0644 -1.6982
19929TIP3    H281279   0.931   0.939   6.013 -0.3794 -0.3606 -0.2136
19930TIP3   OH281280   4.830   6.195   4.134 -0.2927  0.1731 -0.0472
19930TIP3    H181281   4.814   6.276   4.183  0.8628  0.5561 -0.2732
19930TIP3    H281282   4.894   6.147   4.187  0.5627  0.3465 -0.8843
19931TIP3   OH281283   4.574   5.958   3.234 -0.0207 -0.7751 -0.1518
19931TIP3    H181284   4.642   5.991   3.292  0.8025 -2.7949  0.1249
19931TIP3    H281285   4.491   5.982   3.277  0.4631  1.6886 -0.4814
19932TIP3   OH281286   3.737   3.273   1.401  0.1655 -0.7078 -0.0804
19932TIP3    H181287   3.723   3.185   1.367 -3.3164 -0.8919  1.4083
19932TIP3    H281288   3.756   3.260   1.494 -3.1047  0.0306  0.8221
19933TIP3   OH281289   1.324   5.726  16.989  0.1892  0.1369 -0.4556
19933TIP3    H181290   1.410   5.754  17.019  0.1758 -0.5680  0.2488
19933TIP3    H281291   1.271   5.720  17.069 -1.0126  2.1620 -0.9963
19934TIP3   OH281292   2.823   0.050   2.326 -0.6267 -0.2614 -0.3263
19934TIP3    H181293   2.798   0.142   2.318 -1.2054 -0.2544  1.3466
19934TIP3    H281294   2.916   0.048   2.303 -0.6534  0.6989 -0.5487
19935TIP3   OH281295   2.288   3.867  13.061  0.8544 -0.1935  0.1992
19935TIP3    H181296   2.269   3.773  13.061 -0.7226  0.0832  1.7344
19935TIP3    H281297   2.319   3.885  13.149  0.5676  0.8469  0.0941
19936TIP3   OH281298   4.743   3.005   6.546 -0.3768 -0.5487 -0.6453
19936TIP3    H181299   4.791   2.926   6.570 -0.1723  0.0969  1.1643
19936TIP3    H281300   4.662   3.000   6.597 -0.6640  0.1036 -1.0299
19937TIP3   OH281301   2.423   6.357  15.050 -0.1737  0.3060 -0.2874
19937TIP3    H181302   2.459   6.445  15.057 -0.7706  0.4719  0.8821
19937TIP3    H281303   2.378   6.343  15.133 -1.6778 -0.3899 -1.1781
19938TIP3   OH281304   0.453   5.087   4.307  0.1928 -0.5428  0.0676
19938TIP3    H181305   0.455   5.011   4.365 -1.3436 -0.0262  0.8710
19938TIP3    H281306   0.359   5.104   4.293  0.4990  1.0833 -0.2424
19939TIP3   OH281307   2.650   5.297   3.947  0.3259 -0.3822 -0.7045
19939TIP3    H181308   2.704   5.223   3.919  0.1477 -0.4070 -0.9839
19939TIP3    H281309   2.561   5.272   3.923  0.3543  0.2496 -1.4938
19940TIP3   OH281310   0.727   0.255  14.543 -0.2217 -0.3042 -0.2978
19940TIP3    H181311   0.723   0.246  14.638 -1.5507 -0.5316 -0.3597
19940TIP3    H281312   0.663   0.192  14.510 -2.1937  2.0280 -1.2111
19941TIP3   OH281313   3.195   3.678  13.591 -0.3978 -0.3308 -0.0390
19941TIP3    H181314   3.173   3.771  13.599 -1.7631 -0.6781  0.5953
19941TIP3    H281315   3.259   3.662  13.660  0.3093  0.2585 -0.5439
19942TIP3   OH281316   3.169   5.547  11.414 -0.2906  0.3908 -0.6764
19942TIP3    H181317   3.099   5.538  11.479  1.5820 -0.3786  1.3918
19942TIP3    H281318   3.196   5.639  11.420 -0.6688  0.5217 -0.9772
19943TIP3   OH281319   1.657   5.059  12.802 -0.3596 -0.1468 -0.1146
19943TIP3    H181320   1.644   4.964  12.796 -0.4470 -0.1113 -0.5497
19943TIP3    H281321   1.635   5.091  12.714  1.1744  0.1022 -0.4437
19944TIP3   OH281322   5.420   1.787   6.545 -0.1920 -0.2214 -0.0458
19944TIP3    H181323   5.487   1.729   6.508  0.7714  1.0111 -0.2765
19944TIP3    H281324   5.444   1.795   6.638  0.3500  0.6995 -0.2568
19945TIP3   OH281325   0.182   0.165  17.036  0.6971  0.1173  0.3946
19945TIP3    H181326   0.169   0.083  17.083 -1.4951  0.0081 -0.2789
19945TIP3    H281327   0.094   0.192  17.011  1.0550  3.7963  2.4078
19946TIP3   OH281328   1.112   6.493  11.950 -0.1390 -0.1445  0.8034
19946TIP3    H181329   1.133   6.461  12.037 -0.1537  0.1939  0.9327
19946TIP3    H281330   1.126   6.587  11.955 -0.6530 -0.0539  0.5930
19947TIP3   OH281331   3.995   2.834   5.757 -0.5039 -0.0305  0.3781
19947TIP3    H181332   3.944   2.757   5.731 -0.1570 -0.0452 -0.2931
19947TIP3    H281333   4.008   2.824   5.851 -0.4246 -0.8266  0.2892
19948TIP3   OH281334   5.363   3.621   4.716  0.6525  0.1515  0.0997
19948TIP3    H181335   5.439   3.666   4.678  0.2895  1.1396  0.4957
19948TIP3    H281336   5.306   3.692   4.745  0.4292 -0.5796  1.5148
19949TIP3   OH281337   4.595   6.342  14.585 -0.4739 -0.3270  0.2390
19949TIP3    H181338   4.617   6.286  14.511  1.0147  0.3559  0.1282
19949TIP3    H281339   4.626   6.294  14.662  0.9075  0.3381  0.1352
19950TIP3   OH281340   4.468   3.469  15.240 -0.1104  0.0373 -0.8052
19950TIP3    H181341   4.512   3.384  15.243 -0.6875 -0.2394 -0.0381
19950TIP3    H281342   4.424   3.471  15.155  1.6324  0.4630 -1.7580
19951TIP3   OH281343   0.917   2.770  14.520 -0.1252  0.1786 -0.2906
19951TIP3    H181344   0.976   2.773  14.595 -0.6372  0.4521  0.1065
19951TIP3    H281345   0.895   2.861  14.503 -0.3915  0.0812 -0.4721
19952TIP3   OH281346   3.701   0.549   2.064 -0.0897  0.3548  0.1704
19952TIP3    H181347   3.754   0.618   2.103 -0.8327  0.1363  1.6204
19952TIP3    H281348   3.632   0.532   2.128 -0.1248 -1.5021 -0.3058
19953TIP3   OH281349   4.623   0.035  16.968 -0.1291 -0.3173 -0.0332
19953TIP3    H181350   4.553   0.004  17.026 -0.4515  1.2155  0.4379
19953TIP3    H281351   4.591   0.118  16.934  0.3515 -0.8573 -1.9182
19954TIP3   OH281352   1.979   2.526   2.123 -0.2299 -0.5976 -0.1385
19954TIP3    H181353   2.003   2.470   2.197  0.4725 -1.3158 -0.8956
19954TIP3    H281354   1.886   2.509   2.109 -0.0696 -1.4209 -0.2273
19955TIP3   OH281355   5.760   2.807   0.650  0.1802 -1.0556 -0.2165
19955TIP3    H181356   5.831   2.752   0.618  2.0017  0.0789  1.5994
19955TIP3    H281357   5.787   2.896   0.628 -0.9430 -0.6302  0.0560
19956TIP3   OH281358   0.067   2.838  13.782 -0.3975  0.2837  0.1578
19956TIP3    H181359   0.024   2.812  13.701 -1.1227 -1.1127  0.9433
19956TIP3    H281360  -0.004   2.841  13.846  0.1208  1.6210  0.6882
19957TIP3   OH281361   0.768   3.814  14.059 -0.2264 -0.0968 -0.3236
19957TIP3    H181362   0.803   3.727  14.076  1.4588  0.5066 -0.5729
19957TIP3    H281363   0.845   3.871  14.053 -1.1172  1.0028 -2.5069
19958TIP3   OH281364   5.581   2.266  14.313  0.1001 -0.5532 -0.2271
19958TIP3    H181365   5.586   2.315  14.231 -0.0493  1.6142  0.9622
19958TIP3    H281366   5.491   2.231  14.314 -0.3082  0.4402 -0.4710
19959TIP3   OH281367   1.910   6.351  11.589 -0.9690  0.0718  0.2233
19959TIP3    H181368   1.825   6.312  11.568 -0.1292 -0.9449 -1.4769
19959TIP3    H281369   1.905   6.371  11.682 -2.5736 -1.2374  0.4556
19960TIP3   OH281370   6.462   4.332  13.746 -0.6861 -0.1947  0.1084
19960TIP3    H181371   6.512   4.266  13.796  1.5056  0.0754 -1.5534
19960TIP3    H281372   6.516   4.411  13.751 -1.6867  0.5573 -0.5881
19961TIP3   OH281373   6.056   4.967  15.574 -0.2532 -0.4586  0.5896
19961TIP3    H181374   6.119   4.998  15.639  0.3372 -0.5307  0.0559
19961TIP3    H281375   5.992   5.038  15.566 -1.2129 -1.0502  2.3664
19962TIP3   OH281376   0.246   1.512   5.014 -0.7137 -0.6788 -0.6682
19962TIP3    H181377   0.275   1.584   4.957 -1.6545  0.3768  0.1476
19962TIP3    H281378   0.264   1.433   4.963  2.2556 -0.0598 -0.7950
19963TIP3   OH281379   2.889   5.033   4.951  0.3390 -0.1004  0.0954
19963TIP3    H181380   2.888   5.094   4.877  0.6754 -1.4940 -1.1189
19963TIP3    H281381   2.981   5.011   4.962  0.2010 -0.5727  0.3403
19964TIP3   OH281382   2.435   3.013  11.114 -0.1128 -0.5077 -0.6535
19964TIP3    H181383   2.431   2.932  11.064  1.7476 -1.3779  0.4941
19964TIP3    H281384   2.451   3.081  11.048 -1.8762 -1.0109 -1.6427
19965TIP3   OH281385   1.364   3.246   4.553  0.0470  0.1092 -0.2381
19965TIP3    H181386   1.355   3.327   4.603  0.4031  1.2589 -1.9494
19965TIP3    H281387   1.456   3.222   4.563 -0.3312 -0.8468  1.3208
19966TIP3   OH281388   0.167   4.546   1.147  0.0649 -0.1653 -0.0608
19966TIP3    H181389   0.232   4.512   1.208  0.2413 -0.7316 -0.5515
19966TIP3    H281390   0.126   4.619   1.193  0.7875 -0.0392  0.3981
19967TIP3   OH281391   3.449   3.595  15.893  1.0060 -0.0501 -0.0231
19967TIP3    H181392   3.430   3.601  15.800  0.4121 -0.9515  0.0364
19967TIP3    H281393   3.370   3.559  15.932  1.0514  0.7998  0.9135
19968TIP3   OH281394   4.358   1.008   0.326  0.4180  0.6110  0.8006
19968TIP3    H181395   4.270   1.046   0.334  0.5021  0.5048  2.7504
19968TIP3    H281396   4.350   0.943   0.257 -0.7391  1.4081  0.1542
19969TIP3   OH281397   4.094   0.158  12.855  0.5189 -0.2302  0.5218
19969TIP3    H181398   4.048   0.154  12.771  0.6193 -0.6038  0.4836
19969TIP3    H281399   4.111   0.251  12.868 -0.7891 -0.0143  0.8310
19970TIP3   OH281400   4.215   2.342  11.122 -0.2454  0.6750  0.1375
19970TIP3    H181401   4.271   2.415  11.095  0.9892 -0.3702 -0.2150
19970TIP3    H281402   4.266   2.296  11.188 -2.6337  2.3715  3.4395
19971TIP3   OH281403   4.745   2.174   0.504 -0.6848 -0.1838 -0.0687
19971TIP3    H181404   4.677   2.154   0.440  0.0564  0.7584 -1.1911
19971TIP3    H281405   4.813   2.108   0.488 -1.5216 -1.4888  1.4374
19972TIP3   OH281406   5.044   5.332  13.397  0.0306  0.4830 -0.2537
19972TIP3    H181407   5.082   5.410  13.437 -3.2324  1.5576  1.0860
19972TIP3    H281408   4.954   5.330  13.430 -0.4141 -3.1392 -1.3087
19973TIP3   OH281409   3.480   3.266   3.968  0.5699  0.9163  0.1656
19973TIP3    H181410   3.569   3.260   4.003  0.6275 -0.6964 -0.1871
19973TIP3    H281411   3.425   3.226   4.035  0.4885 -0.7215 -0.8270
19974TIP3   OH281412   6.773   4.813  15.101 -0.0577  0.2000  0.5849
19974TIP3    H181413   6.727   4.894  15.123 -0.6169  0.0564 -0.0154
19974TIP3    H281414   6.703   4.748  15.091  0.3366 -0.1971  0.3977
19975TIP3   OH281415   1.540   4.273   4.647  0.7433 -0.1993 -0.6136
19975TIP3    H181416   1.507   4.189   4.678  0.2876 -0.3789 -1.5405
19975TIP3    H281417   1.596   4.304   4.718 -0.0167 -0.7219  0.2411
19976TIP3   OH281418   5.763   5.922  14.554  0.0060  0.3789 -0.5012
19976TIP3    H181419   5.856   5.904  14.541 -0.1025  0.5488 -1.5854
19976TIP3    H281420   5.759   6.016  14.572  0.1369  0.1810  0.6054
19977TIP3   OH281421   5.557   4.336  14.753 -0.5578 -0.1163 -0.0276
19977TIP3    H181422   5.580   4.252  14.713  2.4630  1.3046 -1.6434
19977TIP3    H281423   5.570   4.400  14.684 -0.8487  1.9048  1.6792
19978TIP3   OH281424   1.186   1.593   5.873  0.7835 -0.4332 -0.4116
19978TIP3    H181425   1.138   1.519   5.836 -1.0549  0.6988 -0.3636
19978TIP3    H281426   1.149   1.605   5.960  1.0843  0.5338 -0.4037
19979TIP3   OH281427   6.707   4.610  15.337 -0.2094  0.1032 -0.3844
19979TIP3    H181428   6.723   4.702  15.358 -0.3321 -0.1541  0.9124
19979TIP3    H281429   6.781   4.585  15.282  2.3465 -0.1826  2.8816
19980TIP3   OH281430   5.729   6.140  14.057 -0.6966 -0.2267 -0.0213
19980TIP3    H181431   5.704   6.231  14.040  1.0735  0.2401 -0.3007
19980TIP3    H281432   5.703   6.124  14.147  0.2486  1.0371  0.5015
19981TIP3   OH281433   5.717   5.468  15.453  0.5580  0.3508  0.5432
19981TIP3    H181434   5.712   5.382  15.412  3.6444  0.1938  0.2759
19981TIP3    H281435   5.662   5.460  15.531  1.5213 -2.2181  1.0632
19982TIP3   OH281436   1.953   3.289   2.790 -0.3663  0.1238 -0.0810
19982TIP3    H181437   2.010   3.364   2.775 -0.4356  0.3245  0.6159
19982TIP3    H281438   1.923   3.264   2.703  0.5309  0.2135 -0.4324
19983TIP3   OH281439   5.885   3.092   3.043  0.2989 -0.2951 -0.2702
19983TIP3    H181440   5.958   3.154   3.037  1.2503 -1.3402  0.1854
19983TIP3    H281441   5.807   3.147   3.036  1.0930  1.0536  0.8308
19984TIP3   OH281442   1.302   1.628   6.231  0.1757  0.3068  0.2376
19984TIP3    H181443   1.335   1.556   6.284 -0.4575 -0.7234 -0.7263
19984TIP3    H281444   1.308   1.704   6.288  2.5971 -0.1279  0.6606
19985TIP3   OH281445   5.100   5.582   4.277 -0.0505 -0.7349 -0.7921
19985TIP3    H181446   5.060   5.536   4.350 -0.6455 -1.8555 -1.7925
19985TIP3    H281447   5.150   5.515   4.230  1.8282  0.3222 -0.4267
19986TIP3   OH281448   2.166   5.958  13.669 -0.1086 -0.0747  0.4455
19986TIP3    H181449   2.119   5.906  13.604  0.0005  0.1081  0.2221
19986TIP3    H281450   2.255   5.963  13.636 -0.3970  1.3147 -0.1795
19987TIP3   OH281451   6.627   4.887  13.490  0.2327  1.0072  0.4917
19987TIP3    H181452   6.624   4.791  13.489  0.2289  0.9211  2.7016
19987TIP3    H281453   6.707   4.907  13.539  0.6053  2.1766 -0.5488
19988TIP3   OH281454   1.723   0.452   2.803 -0.2469 -0.2477 -0.1157
19988TIP3    H181455   1.656   0.384   2.818 -0.9697  0.0466 -1.7364
19988TIP3    H281456   1.771   0.457   2.885 -0.3151 -2.5712  0.1484
19989TIP3   OH281457   2.684   4.036  12.547 -0.8398 -0.2470 -0.5041
19989TIP3    H181458   2.679   4.032  12.642  2.3127 -2.2731 -0.3083
19989TIP3    H281459   2.754   4.098  12.529 -2.8430  1.8582 -1.7120
19990TIP3   OH281460   6.723   3.321  12.304 -0.0025 -0.2456  0.2350
19990TIP3    H181461   6.712   3.378  12.227 -0.8580  0.7940  1.0830
19990TIP3    H281462   6.817   3.320  12.319  0.0879  0.4014 -0.2172
19991TIP3   OH281463   6.062   6.219  10.643 -0.5378  0.4836  0.4127
19991TIP3    H181464   6.085   6.309  10.666 -0.1686  0.7674 -1.0306
19991TIP3    H281465   6.135   6.188  10.590 -1.1177 -0.3407  0.0809
19992TIP3   OH281466   3.470   4.876  13.987  0.2297  0.2313  0.6382
19992TIP3    H181467   3.471   4.943  13.919 -1.5033  1.0279  1.3407
19992TIP3    H281468   3.429   4.800  13.945 -0.2472  0.5074  0.5928
19993TIP3   OH281469   0.819   5.217  14.177  0.2597  0.4089 -0.5615
19993TIP3    H181470   0.805   5.139  14.124  1.7044  0.2673 -0.7752
19993TIP3    H281471   0.736   5.263  14.174 -0.8010 -1.3685  0.0005
19994TIP3   OH281472   0.187   3.223   4.328 -1.1606  0.3625  0.1323
19994TIP3    H181473   0.155   3.313   4.336  0.3925  0.9217  0.5959
19994TIP3    H281474   0.207   3.213   4.235  0.0048  1.0349  0.2814
19995TIP3   OH281475   3.863   0.842   0.887 -0.5580  0.1930  0.0118
19995TIP3    H181476   3.885   0.868   0.976 -0.0945 -0.2759  0.0394
19995TIP3    H281477   3.836   0.923   0.845  1.2032  0.8330 -0.0043
19996TIP3   OH281478   4.431   1.125  11.023  0.4725  0.1529 -0.3870
19996TIP3    H181479   4.394   1.192  10.966 -0.6351 -0.7960 -0.8238
19996TIP3    H281480   4.483   1.070  10.964  0.1088 -0.2689 -0.3208
19997TIP3   OH281481   4.668   2.711  17.062 -0.7564 -0.6890  0.1433
19997TIP3    H181482   4.631   2.635  17.106 -1.8876  0.0854  0.5743
19997TIP3    H281483   4.652   2.696  16.969 -4.2257  0.5621  0.3719
19998TIP3   OH281484   1.192   4.298   2.153  0.0371 -0.6933 -0.2231
19998TIP3    H181485   1.271   4.247   2.135  0.4433 -0.2172  0.1898
19998TIP3    H281486   1.121   4.245   2.116  0.4331 -1.5963  0.2726
19999TIP3   OH281487   4.768   4.983   3.870 -0.2828 -0.0302  0.4769
19999TIP3    H181488   4.806   5.064   3.903 -2.3532  1.4839 -0.6394
19999TIP3    H281489   4.757   4.928   3.948  1.9187  0.3442  1.1332
20000TIP3   OH281490   4.898   1.459  14.453  0.4859  0.1245 -0.4119
20000TIP3    H181491   4.870   1.544  14.420  0.2234  0.0609 -0.3538
20000TIP3    H281492   4.883   1.399  14.379 -0.9754 -0.1890  0.1062
20001TIP3   OH281493   0.699   3.434   2.999 -0.2316 -0.2927  0.0273
20001TIP3    H181494   0.735   3.425   3.087  0.7531 -0.6246 -0.3953
20001TIP3    H281495   0.771   3.466   2.946 -0.6416 -0.6695 -0.7860
20002TIP3   OH281496   6.289   0.171   1.244 -0.2435 -0.0436  0.3354
20002TIP3    H181497   6.340   0.238   1.199 -0.9447 -0.7450 -1.5951
20002TIP3    H281498   6.354   0.112   1.282  0.3705  0.3282 -0.1304
20003TIP3   OH281499   3.234   3.589  12.143 -0.0081 -0.1584 -0.2563
20003TIP3    H181500   3.310   3.620  12.191  0.6521 -1.5684 -0.3289
20003TIP3    H281501   3.181   3.667  12.127  1.2886  0.7987  0.0278
20004TIP3   OH281502   0.201   4.456   0.366  0.2958 -0.6674 -0.3772
20004TIP3    H181503   0.296   4.445   0.372  0.2934 -0.9229 -0.7695
20004TIP3    H281504   0.177   4.504   0.445  0.9196  0.5573 -0.9003
20005TIP3   OH281505   5.696   0.793   5.341  0.1490  0.4407 -0.1741
20005TIP3    H181506   5.762   0.810   5.408  0.7654 -0.7025 -0.4566
20005TIP3    H281507   5.620   0.844   5.368  0.9511  1.3303  0.4707
20006TIP3   OH281508   6.135   4.076   0.970 -0.2224  0.2035 -0.8457
20006TIP3    H181509   6.065   4.012   0.967 -0.0793  0.0516 -0.9792
20006TIP3    H281510   6.205   4.034   1.021 -0.3840  0.5121 -0.3626
20007TIP3   OH281511   3.501   4.139  16.013  0.0619  0.0840 -0.1999
20007TIP3    H181512   3.526   4.059  15.967  1.4508 -0.1150  0.8218
20007TIP3    H281513   3.407   4.130  16.027  0.3149 -1.8259  0.6504
20008TIP3   OH281514   6.029   3.470  10.209  0.0267 -0.5304  0.0819
20008TIP3    H181515   6.108   3.429  10.173  1.0211  1.5955 -0.3314
20008TIP3    H281516   6.052   3.490  10.300 -0.5434 -1.0756  0.3551
20009TIP3   OH281517   2.160   0.080   1.970 -0.2124  0.9110 -0.5600
20009TIP3    H181518   2.192  -0.007   1.945 -1.7453  0.2458 -0.3668
20009TIP3    H281519   2.198   0.095   2.057 -1.0538 -0.2161  0.0251
20010TIP3   OH281520   3.496   2.905   6.341  0.5113 -0.8291 -0.4957
20010TIP3    H181521   3.539   2.990   6.334 -0.8509 -0.0178  0.5654
20010TIP3    H281522   3.513   2.876   6.430  1.0551 -1.7306 -0.8824
20011TIP3   OH281523   3.889   3.360  15.080 -0.2267  0.4430 -0.3187
20011TIP3    H181524   3.836   3.328  15.153 -0.4856  1.2438 -0.1439
20011TIP3    H281525   3.830   3.419  15.033  0.1335  0.4016 -0.8219
20012TIP3   OH281526   2.077   3.930  16.921  0.2502  0.0871  0.4088
20012TIP3    H181527   2.038   3.847  16.949 -0.5093 -0.2452 -1.5138
20012TIP3    H281528   2.171   3.917  16.935  0.4575 -2.1435 -2.2283
20013TIP3   OH281529   1.327   4.916   5.180 -0.4937  0.3667 -0.1997
20013TIP3    H181530   1.397   4.852   5.167 -0.1073  1.1535 -2.3913
20013TIP3    H281531   1.352   4.991   5.127 -1.9599  1.5416  0.6700
20014TIP3   OH281532   3.324   1.602   3.947  0.4788 -0.3442 -0.1662
20014TIP3    H181533   3.281   1.516   3.941 -0.2020 -0.1053  0.8305
20014TIP3    H281534   3.328   1.633   3.857 -0.6619 -0.7708 -0.3865
20015TIP3   OH281535   4.062   1.454   5.291  0.2608 -0.2349 -0.0018
20015TIP3    H181536   4.156   1.441   5.302  0.4741  1.4506  0.5537
20015TIP3    H281537   4.053   1.548   5.276 -1.4083 -0.1969  0.9319
20016TIP3   OH281538   0.348   4.321   6.830  0.0705 -0.7767 -0.0779
20016TIP3    H181539   0.432   4.279   6.813 -0.5987 -2.1509 -0.1406
20016TIP3    H281540   0.290   4.287   6.762 -1.1485 -1.8010  1.3692
20017TIP3   OH281541   3.269   2.895  11.255 -0.0374  0.2905 -0.6317
20017TIP3    H181542   3.331   2.950  11.303  0.4392 -0.7121 -0.0782
20017TIP3    H281543   3.229   2.840  11.321 -0.8347  0.2661 -1.1240
20018TIP3   OH281544   0.937   3.014  11.410  0.2986 -0.1411 -0.2187
20018TIP3    H181545   0.991   2.964  11.349 -1.6662 -2.2113 -0.3733
20018TIP3    H281546   0.851   2.973  11.405 -0.4982  1.0513  2.2955
20019TIP3   OH281547   0.528   1.605   5.843  0.0562 -0.7036 -0.1836
20019TIP3    H181548   0.525   1.677   5.780 -0.8625 -0.9359 -0.4151
20019TIP3    H281549   0.436   1.582   5.859  0.3292 -2.1420 -0.4933
20020TIP3   OH281550   1.523   0.339  15.779 -0.1400  0.3452 -0.3367
20020TIP3    H181551   1.480   0.400  15.719  0.9530 -0.0121 -1.5312
20020TIP3    H281552   1.592   0.392  15.820 -0.7086  0.5149  0.4276
20021TIP3   OH281553   5.993   3.319  15.394 -0.0195  0.2844  0.5267
20021TIP3    H181554   6.015   3.226  15.392  1.3106  0.5851 -0.1025
20021TIP3    H281555   6.070   3.362  15.356 -0.6856  1.6249  0.6555
20022TIP3   OH281556   5.777   0.101  16.761 -0.1329 -0.7837 -0.1869
20022TIP3    H181557   5.713   0.172  16.755 -1.2939 -1.8044 -0.3411
20022TIP3    H281558   5.740   0.042  16.828 -0.3018 -2.3042 -1.5604
20023TIP3   OH281559   2.855   0.462   3.103 -0.6740  0.1253  0.0190
20023TIP3    H181560   2.820   0.401   3.037 -0.5656  0.4455 -0.3364
20023TIP3    H281561   2.824   0.426   3.186 -1.0830 -0.1062 -0.2246
20024TIP3   OH281562   4.512   5.435  15.571  1.1058  0.2079  0.0079
20024TIP3    H181563   4.451   5.493  15.526  1.0576  0.7860  0.8045
20024TIP3    H281564   4.581   5.492  15.603  0.9686 -0.1415  0.9477
20025TIP3   OH281565   3.022   0.429  12.793 -0.0490 -0.2816  1.0585
20025TIP3    H181566   2.944   0.483  12.780 -1.0633 -2.1741 -1.7681
20025TIP3    H281567   3.012   0.393  12.881 -0.1240  2.7329  2.4061
20026TIP3   OH281568   2.488   6.630   5.891  0.0174 -0.1695  0.2928
20026TIP3    H181569   2.555   6.665   5.831 -0.7615 -0.8462 -1.0202
20026TIP3    H281570   2.533   6.558   5.937  0.4174 -0.1288 -0.0224
20027TIP3   OH281571   2.907   2.132  15.972 -0.0499 -0.2955 -0.2465
20027TIP3    H181572   2.937   2.045  15.946 -0.4671  0.0134 -1.8532
20027TIP3    H281573   2.827   2.145  15.922 -0.5358  0.6161  0.7444
20028TIP3   OH281574   6.152   1.251   3.174 -0.0233  0.2807 -0.0134
20028TIP3    H181575   6.190   1.257   3.086 -1.4928  0.5078 -0.6632
20028TIP3    H281576   6.121   1.339   3.193  0.1817  0.2042  0.6995
20029TIP3   OH281577   1.187   6.665  12.489  0.0493  0.1596  0.5599
20029TIP3    H181578   1.111   6.621  12.527 -0.1189  1.4079  1.7570
20029TIP3    H281579   1.150   6.731  12.431  0.1588  1.1824  1.6094
20030TIP3   OH281580   3.283   2.404   5.827 -0.2973 -0.2154 -0.4302
20030TIP3    H181581   3.262   2.477   5.885  0.1471  0.1501 -0.7228
20030TIP3    H281582   3.339   2.346   5.880 -0.4408 -0.2158 -0.2798
20031TIP3   OH281583   6.516   3.385  11.897 -0.6552  0.3004 -0.4761
20031TIP3    H181584   6.451   3.416  11.961 -0.2746  2.3255 -0.9856
20031TIP3    H281585   6.597   3.378  11.947 -0.2482  2.3359 -0.7320
20032TIP3   OH281586   5.926   4.215   0.575  0.3572 -0.2099  0.3627
20032TIP3    H181587   6.019   4.194   0.563  0.3848 -0.5894  1.2308
20032TIP3    H281588   5.889   4.204   0.487  0.8422 -1.5488  0.2898
20033TIP3   OH281589   4.641   6.186  15.771  0.0402 -0.7588  0.6023
20033TIP3    H181590   4.688   6.199  15.689 -1.1795  1.0221  0.1294
20033TIP3    H281591   4.678   6.252  15.830 -2.1533  1.0507  0.0541
20034TIP3   OH281592   0.516   3.625   3.033 -0.1485  0.7016 -0.1045
20034TIP3    H181593   0.593   3.568   3.024  0.1341  1.1304 -0.4448
20034TIP3    H281594   0.443   3.564   3.046  0.1911  0.2701 -0.1784
20035TIP3   OH281595   1.520   5.966  15.233 -0.5721  0.0917 -0.1775
20035TIP3    H181596   1.566   6.022  15.171 -1.5998  1.3280  0.1406
20035TIP3    H281597   1.566   5.980  15.316 -1.7440  1.6812  0.2438
20036TIP3   OH281598   4.014   0.883  13.948  0.2036 -0.0946 -0.0925
20036TIP3    H181599   4.107   0.876  13.966  0.2231 -0.4291 -0.3046
20036TIP3    H281600   3.972   0.879  14.035  0.4120  0.6010  0.0396
20037TIP3   OH281601   4.826   0.713   2.370  0.3889  0.2499  0.1774
20037TIP3    H181602   4.753   0.659   2.341  0.3868  1.0767 -1.4533
20037TIP3    H281603   4.901   0.653   2.371  0.3492  0.1401 -1.3995
20038TIP3   OH281604   5.200   3.407   2.940 -0.0431  0.6975  0.6714
20038TIP3    H181605   5.259   3.339   2.972 -1.0411 -1.0626 -1.0327
20038TIP3    H281606   5.254   3.463   2.885  0.5920  0.7468  1.3369
20039TIP3   OH281607   2.132   4.067  16.370 -0.1509 -0.2439 -0.1883
20039TIP3    H181608   2.221   4.086  16.341 -0.9305  1.4914 -1.6224
20039TIP3    H281609   2.127   4.103  16.459  0.1542  0.9648 -0.6575
20040TIP3   OH281610   2.024   6.618  15.652  0.3634 -0.1198  0.6562
20040TIP3    H181611   2.022   6.622  15.557  1.8423 -0.3436  0.5912
20040TIP3    H281612   1.999   6.528  15.673 -1.0235  0.2269  0.5447
20041TIP3   OH281613   4.968   0.633   3.352  0.3011 -0.5859  1.0218
20041TIP3    H181614   4.973   0.711   3.407  0.6548  0.7474 -0.8148
20041TIP3    H281615   5.057   0.597   3.354  0.4938 -0.1292  0.7519
20042TIP3   OH281616   6.082   5.245   3.470  0.2114 -0.7277  0.1082
20042TIP3    H181617   6.009   5.185   3.460 -1.2509  1.2056 -1.8676
20042TIP3    H281618   6.053   5.307   3.537  0.6478 -0.7566  0.3306
20043TIP3   OH281619   3.510   1.224  12.608  0.0884  0.0715 -0.3812
20043TIP3    H181620   3.590   1.189  12.647 -0.2715  0.0882  0.4016
20043TIP3    H281621   3.535   1.249  12.519  1.0440  0.4370 -0.0245
20044TIP3   OH281622   6.035   3.705   0.017 -0.0695  0.7595 -0.2400
20044TIP3    H181623   6.096   3.777   0.035 -0.8491  1.4234 -0.1698
20044TIP3    H281624   6.090   3.635  -0.018  0.8797  0.9645  0.7718
20045TIP3   OH281625   5.148   4.461  11.971  0.3912 -0.5703  1.1107
20045TIP3    H181626   5.176   4.471  12.062  2.4728 -0.5995  0.5018
20045TIP3    H281627   5.203   4.391  11.937 -1.8215 -2.0628  0.3783
20046TIP3   OH281628   5.044   4.397  10.429 -0.1694 -0.0653 -0.1224
20046TIP3    H181629   5.065   4.308  10.401 -0.9091  0.3963 -2.3371
20046TIP3    H281630   5.125   4.446  10.416 -0.7028  0.3093 -2.3622
20047TIP3   OH281631   0.259   2.525   3.613 -0.1594  0.1619  0.0322
20047TIP3    H181632   0.235   2.543   3.522  1.6599 -0.5854 -0.6499
20047TIP3    H281633   0.207   2.586   3.664  0.3694  2.1706 -1.6778
20048TIP3   OH281634   1.470   6.729  13.355  0.0075 -0.4672 -0.9447
20048TIP3    H181635   1.515   6.812  13.339  0.6461 -0.4832  0.6270
20048TIP3    H281636   1.539   6.663  13.353 -0.0339 -0.6005  0.5605
20049TIP3   OH281637   1.279   4.216  11.673 -0.0044 -0.1546  0.1521
20049TIP3    H181638   1.267   4.162  11.595 -0.9209  0.5765 -0.2413
20049TIP3    H281639   1.357   4.268  11.653  0.1261 -0.4112 -0.0156
20050TIP3   OH281640   4.355   0.160   4.317 -0.0742 -0.2716 -0.4883
20050TIP3    H181641   4.349   0.182   4.224 -1.8538 -0.9952 -0.5762
20050TIP3    H281642   4.264   0.155   4.346  0.4583 -0.2675  1.2497
20051TIP3   OH281643   0.537   0.727  14.394 -0.1019 -0.0528  0.2416
20051TIP3    H181644   0.628   0.753  14.405 -0.2617  1.0889 -0.8811
20051TIP3    H281645   0.540   0.647  14.343  0.2515  1.2201 -1.8555
20052TIP3   OH281646   4.235   1.626   5.935 -0.4316 -0.3033 -0.2162
20052TIP3    H181647   4.164   1.689   5.923  0.5268  0.9369  0.4824
20052TIP3    H281648   4.229   1.600   6.027  0.4195  0.3209  0.0257
20053TIP3   OH281649   0.334   0.380  12.284  0.5422 -0.1614 -0.0722
20053TIP3    H181650   0.257   0.338  12.247  0.5800 -0.2992  0.0084
20053TIP3    H281651   0.308   0.407  12.372  0.6901 -0.5130  0.0835
20054TIP3   OH281652   3.861   6.583   4.038 -0.8892  0.3602 -0.5127
20054TIP3    H181653   3.888   6.555   4.126 -0.5147 -1.3846 -1.1463
20054TIP3    H281654   3.933   6.637   4.007 -1.2492  1.4209  0.4238
20055TIP3   OH281655   3.853   4.785  13.266  0.8002 -0.2932  0.3430
20055TIP3    H181656   3.782   4.726  13.293  1.1342 -0.3801  1.0350
20055TIP3    H281657   3.865   4.844  13.340  0.6774  0.4608 -0.2252
20056TIP3   OH281658   1.205   0.705   6.419  0.5521 -0.0597  0.5072
20056TIP3    H181659   1.250   0.648   6.481  1.5435 -0.9476 -0.9468
20056TIP3    H281660   1.113   0.679   6.425  0.8860 -1.3439  0.3919
20057TIP3   OH281661   4.766   2.288  11.148  0.1258 -0.2793  0.3433
20057TIP3    H181662   4.834   2.312  11.084 -1.1511  1.7357 -0.3606
20057TIP3    H281663   4.696   2.249  11.095  0.6160 -2.2461  1.0517
20058TIP3   OH281664   4.833   4.202  16.242 -1.0751 -0.0201  0.4851
20058TIP3    H181665   4.795   4.208  16.154  0.8288 -0.8556 -0.4675
20058TIP3    H281666   4.774   4.143  16.289 -2.4865  0.9607 -0.0121
20059TIP3   OH281667   5.774   2.081  11.200 -0.2531 -0.7205  0.9739
20059TIP3    H181668   5.842   2.147  11.190 -0.3758 -0.6326  0.7113
20059TIP3    H281669   5.821   1.998  11.210 -0.1123 -0.7359  0.2450
20060TIP3   OH281670   4.023   6.672   4.571 -0.3360 -0.1363  0.2937
20060TIP3    H181671   4.061   6.707   4.652 -0.7499 -0.4148  0.6146
20060TIP3    H281672   3.950   6.617   4.601  0.6941 -1.8303 -0.1406
20061TIP3   OH281673   1.852   2.685   5.231 -0.3932  0.4793 -0.1320
20061TIP3    H181674   1.873   2.759   5.289 -0.5371 -2.1682  3.6655
20061TIP3    H281675   1.768   2.708   5.192  0.6200  3.2293 -0.8857
20062TIP3   OH281676   5.201   6.029  16.250 -0.3190 -0.1336  0.2134
20062TIP3    H181677   5.217   6.091  16.179 -0.0337 -0.2971  0.1343
20062TIP3    H281678   5.224   6.077  16.329 -0.5775  0.0283  0.1934
20063TIP3   OH281679   4.814   3.022   4.282  0.1196  0.1451 -0.3955
20063TIP3    H181680   4.855   3.002   4.366  0.2886 -1.2157 -0.7823
20063TIP3    H281681   4.722   3.036   4.303 -0.0863 -1.4561 -0.1243
20064TIP3   OH281682   5.255   2.371  17.114 -0.2097 -0.6735  0.3460
20064TIP3    H181683   5.195   2.435  17.077 -0.2249 -2.3658 -2.9639
20064TIP3    H281684   5.201   2.319  17.174 -1.4696 -0.6020 -0.6756
20065TIP3   OH281685   2.614   6.077  11.213 -0.4501 -0.3100  0.4730
20065TIP3    H181686   2.673   6.048  11.143  0.4545  0.1097  1.0342
20065TIP3    H281687   2.569   6.153  11.175  2.0551  1.6880  1.1916
20066TIP3   OH281688   3.793   5.178   5.343 -0.1752  0.4525  0.0808
20066TIP3    H181689   3.808   5.121   5.268 -0.2154  0.5708 -0.0171
20066TIP3    H281690   3.827   5.263   5.316  0.0709  0.4278  0.3003
20067TIP3   OH281691   5.674   2.871   5.696  0.2661 -0.8811 -0.5819
20067TIP3    H181692   5.608   2.879   5.764 -0.3940 -0.0221 -1.2981
20067TIP3    H281693   5.719   2.956   5.696 -0.1145 -0.6672 -1.5701
20068TIP3   OH281694   2.709   3.052   0.616 -0.2671 -0.1606 -0.1118
20068TIP3    H181695   2.684   2.966   0.650 -2.5637  0.3740 -0.2975
20068TIP3    H281696   2.804   3.046   0.605 -0.3500 -2.6714 -0.1554
20069TIP3   OH281697   4.188   4.569   0.796  0.0017  0.5216  0.6634
20069TIP3    H181698   4.157   4.523   0.719 -0.3940 -0.0981  1.1842
20069TIP3    H281699   4.283   4.562   0.792  0.0577  1.5505 -0.4027
20070TIP3   OH281700   1.919   1.732   3.532  0.0341 -0.1362  0.0869
20070TIP3    H181701   1.840   1.785   3.519 -0.2499 -0.4663  0.4296
20070TIP3    H281702   1.980   1.763   3.465 -0.1115  0.6448  0.3051
20071TIP3   OH281703   6.791   5.933   2.694  0.2943  0.1516  0.1791
20071TIP3    H181704   6.833   5.947   2.779 -0.7522 -0.6745  0.8567
20071TIP3    H281705   6.862   5.908   2.636  0.7848 -1.0348  1.2492
20072TIP3   OH281706   1.109   6.818   0.166  0.0284  0.2073 -0.3546
20072TIP3    H181707   1.021   6.837   0.198 -0.7644 -1.3626 -1.5161
20072TIP3    H281708   1.102   6.734   0.121  2.7270 -1.4666  1.9740
20073TIP3   OH281709   1.328   4.515  13.965  0.1257 -0.0857  0.1209
20073TIP3    H181710   1.400   4.453  13.959  1.0210  0.9877 -0.4568
20073TIP3    H281711   1.341   4.559  14.049 -1.1565 -1.4262  1.0671
20074TIP3   OH281712   5.267   3.990  12.848 -0.1354  0.2606 -0.0721
20074TIP3    H181713   5.305   4.046  12.915 -0.2520 -1.6923  1.7093
20074TIP3    H281714   5.199   3.940  12.894 -0.8030 -0.5400 -1.8369
20075TIP3   OH281715   3.375   3.885   4.253  0.6522  0.2577  0.0486
20075TIP3    H181716   3.308   3.830   4.295  0.4703  0.2018 -0.3120
20075TIP3    H281717   3.329   3.964   4.227  0.9517  0.6603  0.7157
20076TIP3   OH281718   5.221   6.026   0.208  0.4861  0.0793  0.7184
20076TIP3    H181719   5.247   5.954   0.151 -1.3230  0.1607 -0.3014
20076TIP3    H281720   5.144   5.994   0.254 -0.2285  1.2638  0.3997
20077TIP3   OH281721   6.154   6.068   0.337  0.1774  0.3807  0.5286
20077TIP3    H181722   6.141   6.155   0.374  1.4885  0.1719  1.5602
20077TIP3    H281723   6.206   6.083   0.258  0.7964  0.5128  0.9521
20078TIP3   OH281724   6.202   5.371  10.773 -0.5129  0.3183 -0.0335
20078TIP3    H181725   6.283   5.413  10.803 -0.2459  1.0166 -1.6115
20078TIP3    H281726   6.232   5.299  10.717 -0.9748  0.6303 -0.6959
20079TIP3   OH281727   0.253   3.299   0.526  0.1259  0.7388  0.1633
20079TIP3    H181728   0.189   3.228   0.524 -1.4391  2.0909 -1.2503
20079TIP3    H281729   0.256   3.326   0.618 -0.2052 -0.3196  0.4964
20080TIP3   OH281730   4.702   1.837  11.088  0.3219  0.1348  0.2415
20080TIP3    H181731   4.714   1.742  11.078 -0.5025  0.2299 -2.2556
20080TIP3    H281732   4.742   1.874  11.010 -0.0673  1.8083  0.8078
20081TIP3   OH281733   1.686   3.652  13.700  0.3784  0.0219  0.3733
20081TIP3    H181734   1.599   3.629  13.669  0.2346  1.9616 -0.8712
20081TIP3    H281735   1.716   3.719  13.638  2.8230 -0.7161  0.6760
20082TIP3   OH281736   1.847   4.152   4.679  0.2637 -0.1649 -0.3407
20082TIP3    H181737   1.937   4.184   4.688 -0.1886  0.7552  1.2107
20082TIP3    H281738   1.795   4.210   4.735 -1.0552 -1.7484  0.1414
20083TIP3   OH281739   1.983   6.657  15.029 -0.0697  0.6897 -0.7572
20083TIP3    H181740   2.070   6.624  15.004 -0.4476 -0.1267 -1.0275
20083TIP3    H281741   1.976   6.636  15.122 -0.8260 -1.2593 -1.1979
20084TIP3   OH281742   4.429   5.503   4.112 -0.1244 -0.1883  0.1145
20084TIP3    H181743   4.515   5.509   4.153  0.7011 -0.6967 -1.4385
20084TIP3    H281744   4.384   5.583   4.139  0.9736  0.2751  0.6576
20085TIP3   OH281745   2.588   3.730  15.925 -0.1724  0.4225 -0.0105
20085TIP3    H181746   2.676   3.699  15.902  0.4175  1.4794  0.6898
20085TIP3    H281747   2.551   3.661  15.979 -0.4771 -0.8150 -1.7291
20086TIP3   OH281748   2.016   0.710   5.742 -0.5911 -0.4161  0.3723
20086TIP3    H181749   2.095   0.762   5.748 -0.8058 -0.0956  0.4574
20086TIP3    H281750   2.022   0.648   5.815 -0.4062 -0.4110  0.3603
20087TIP3   OH281751   1.374   6.007   5.444 -0.8119  0.4596 -0.2444
20087TIP3    H181752   1.462   5.972   5.460 -0.9165  0.1638 -0.3006
20087TIP3    H281753   1.388   6.099   5.421 -0.4734  0.2711 -0.8114
20088TIP3   OH281754   3.046   2.818  17.045  0.0328 -0.2203 -0.3123
20088TIP3    H181755   3.035   2.735  17.091  2.5181  0.0865  0.9621
20088TIP3    H281756   2.980   2.815  16.975 -0.9840 -2.5501  0.6399
20089TIP3   OH281757   2.681   3.619  14.994  0.0847 -0.4264  0.1209
20089TIP3    H181758   2.616   3.680  15.028  0.3311 -0.5269  0.7876
20089TIP3    H281759   2.630   3.543  14.967 -0.5241  0.9546 -2.9925
20090TIP3   OH281760   2.862   3.476  12.171 -0.7815  0.0039 -0.2040
20090TIP3    H181761   2.780   3.479  12.122 -1.5051 -0.3506  0.9382
20090TIP3    H281762   2.875   3.565  12.202  0.1160  0.4262 -1.6764
20091TIP3   OH281763   3.393   6.819  13.231  0.2659 -0.7523 -0.2415
20091TIP3    H181764   3.351   6.765  13.299 -0.9018 -0.2179 -0.5176
20091TIP3    H281765   3.413   6.758  13.161  0.6246 -1.1413  0.1904
20092TIP3   OH281766   2.512   6.710  11.281  0.0874  0.2204  0.4627
20092TIP3    H181767   2.541   6.620  11.267 -1.9096 -0.2546 -1.1069
20092TIP3    H281768   2.463   6.732  11.202  0.2461  2.5908  0.9484
20093TIP3   OH281769   6.000   3.981   6.960  0.4882 -0.1361 -0.0020
20093TIP3    H181770   6.077   4.036   6.945  0.8808 -0.5444  0.4970
20093TIP3    H281771   6.021   3.897   6.919 -0.4060  0.2875 -1.4131
20094TIP3   OH281772   1.066   0.927  14.949 -0.5524 -0.9760 -0.6831
20094TIP3    H181773   1.118   0.875  14.888  1.4059 -0.6643  0.6314
20094TIP3    H281774   1.036   1.002  14.898  0.7561 -0.8899 -1.3496
20095TIP3   OH281775   3.218   3.248  13.733  0.0550  0.3580 -0.2386
20095TIP3    H181776   3.274   3.223  13.806  0.4093 -0.1898 -0.6865
20095TIP3    H281777   3.215   3.170  13.677 -2.7707 -0.3263  0.7276
20096TIP3   OH281778   0.177   2.567   3.332 -0.2343 -0.3838 -0.2666
20096TIP3    H181779   0.091   2.607   3.334 -0.6632 -1.2877  1.3211
20096TIP3    H281780   0.179   2.517   3.250 -0.6586  0.7812 -0.9976
20097TIP3   OH281781   4.030   1.768  13.765  0.2284  0.5144  0.1174
20097TIP3    H181782   4.113   1.749  13.722  0.3250  3.2104 -1.1074
20097TIP3    H281783   3.981   1.820  13.701 -2.4401 -0.9713  0.8013
20098TIP3   OH281784   5.748   6.428  16.594 -0.1317  0.2428  0.1716
20098TIP3    H181785   5.767   6.462  16.507  0.6686 -2.0611 -0.6264
20098TIP3    H281786   5.653   6.421  16.596 -0.2709  1.8280  0.1274
20099TIP3   OH281787   4.727   4.951   5.278 -0.0203  0.8844  0.1137
20099TIP3    H181788   4.772   4.990   5.203  0.0860  0.1696 -0.1962
20099TIP3    H281789   4.797   4.916   5.333 -0.1896 -0.3549 -0.4385
20100TIP3   OH281790   4.553   1.111   2.329  0.0767 -0.5874  0.3171
20100TIP3    H181791   4.620   1.067   2.276  1.5394  0.4579  1.2301
20100TIP3    H281792   4.507   1.039   2.373  2.1661 -1.3046  1.4783
20101TIP3   OH281793   5.328   6.158   6.092 -0.3382  0.1311  0.0935
20101TIP3    H181794   5.306   6.151   6.185 -2.3089 -1.8719 -0.4314
20101TIP3    H281795   5.409   6.108   6.083 -1.2102 -1.4077  0.4550
20102TIP3   OH281796   2.523   5.118   6.011 -0.3870  0.0823  0.0828
20102TIP3    H181797   2.458   5.186   6.026  0.3536  0.8666 -0.1773
20102TIP3    H281798   2.562   5.103   6.098  0.7734  1.3907 -0.1737
20103TIP3   OH281799   4.727   4.893  17.082 -0.0801  0.2725  0.2873
20103TIP3    H181800   4.786   4.906  17.007 -3.1226 -0.8730 -2.5920
20103TIP3    H281801   4.692   4.980  17.099  1.1468  0.6696  0.9298
20104TIP3   OH281802   1.704   3.500   0.138 -0.0500  0.2802 -0.0480
20104TIP3    H181803   1.736   3.589   0.153 -3.3584  1.8768 -1.5378
20104TIP3    H281804   1.773   3.458   0.086  0.6126  2.7878 -1.3351
20105TIP3   OH281805   4.772   5.547   4.672 -0.1308 -0.1454 -0.0184
20105TIP3    H181806   4.680   5.533   4.653 -0.4089  1.3941  0.1218
20105TIP3    H281807   4.773   5.587   4.759  0.5320  1.4299 -0.7162
20106TIP3   OH281808   5.546   3.665  11.511  0.2761 -0.0787 -0.1371
20106TIP3    H181809   5.538   3.618  11.428  0.9052  0.6387 -0.6243
20106TIP3    H281810   5.456   3.692  11.532 -0.1507 -1.8219  0.3665
20107TIP3   OH281811   0.617   4.734   3.396 -0.6340  0.3206  0.1321
20107TIP3    H181812   0.614   4.639   3.384 -1.2656  0.3635 -0.1053
20107TIP3    H281813   0.708   4.753   3.419  0.2787  0.0067 -2.7777
20108TIP3   OH281814   0.383   6.452  14.307  0.2083 -0.2544  0.1297
20108TIP3    H181815   0.404   6.541  14.280  0.9335  0.0128  1.4722
20108TIP3    H281816   0.287   6.451  14.313  0.1072  0.0073 -1.2183
20109TIP3   OH281817   3.394   0.358   5.404 -0.0491 -0.7450  0.2822
20109TIP3    H181818   3.381   0.441   5.450 -0.0308 -0.6360  0.0881
20109TIP3    H281819   3.429   0.382   5.319  0.9257 -1.0081  0.5998
20110TIP3   OH281820   0.147   1.608   0.370  0.3424  0.3110  0.1511
20110TIP3    H181821   0.061   1.636   0.401 -0.5618 -0.8498 -1.2118
20110TIP3    H281822   0.158   1.520   0.405  0.5472  0.0873 -0.4620
20111TIP3   OH281823   4.021   5.303   1.300 -0.2288  0.2560  0.9216
20111TIP3    H181824   3.970   5.368   1.252 -0.8231  1.1828  2.7583
20111TIP3    H281825   3.963   5.227   1.307  0.3402 -0.4130 -0.9112
20112TIP3   OH281826   5.077   0.726   3.616 -0.4492 -0.7523 -0.1512
20112TIP3    H181827   5.117   0.803   3.575 -2.1133 -0.2978 -1.0375
20112TIP3    H281828   5.150   0.667   3.633  0.8920  1.0602  0.6653
20113TIP3   OH281829   1.852   0.467   3.346  0.0304 -0.2973  0.1566
20113TIP3    H181830   1.896   0.519   3.280  0.0663  0.2452  0.6045
20113TIP3    H281831   1.846   0.379   3.308 -1.6766  0.4296 -1.3774
20114TIP3   OH281832   0.768   6.012  13.207 -0.1041 -0.1437  0.3415
20114TIP3    H181833   0.740   5.943  13.267  0.6947 -0.4696  0.3459
20114TIP3    H281834   0.778   6.090  13.262  1.0174 -0.5357  0.7193
20115TIP3   OH281835   3.050   5.623   3.110 -0.3131  0.2028 -0.7643
20115TIP3    H181836   3.087   5.707   3.138  0.2720 -0.2922 -0.0340
20115TIP3    H281837   2.998   5.594   3.185  1.9271 -1.5332  0.2572
20116TIP3   OH281838   3.727   6.645   4.342  0.3158  0.1751  0.6224
20116TIP3    H181839   3.639   6.681   4.360  0.6399  0.1914  2.3284
20116TIP3    H281840   3.786   6.719   4.359  0.8020 -0.4299  1.6233
20117TIP3   OH281841   4.768   2.812   2.873 -0.0238  0.8943 -0.0991
20117TIP3    H181842   4.823   2.817   2.951 -2.6785  2.3899  1.8118
20117TIP3    H281843   4.755   2.903   2.846  0.0130  0.4591 -1.7333
20118TIP3   OH281844   3.373   5.490  15.512 -0.2416 -0.4737 -0.1817
20118TIP3    H181845   3.380   5.402  15.548  0.8015  0.3599  1.8051
20118TIP3    H281846   3.457   5.531  15.530 -0.2298  0.5746 -2.2165
20119TIP3   OH281847   2.986   6.601  11.606  0.0410 -0.1567 -0.4357
20119TIP3    H181848   2.910   6.556  11.642  1.6267 -2.3312  0.3997
20119TIP3    H281849   3.021   6.652  11.680 -0.5484  0.8183 -0.8101
20120TIP3   OH281850   0.463   2.548   6.191 -0.0496  0.1111 -0.1420
20120TIP3    H181851   0.533   2.546   6.126 -0.3620  0.4771 -0.4938
20120TIP3    H281852   0.483   2.624   6.245 -0.7411  0.8397 -0.8870
20121TIP3   OH281853   1.605   5.199   0.118 -0.2017 -0.3483  0.0787
20121TIP3    H181854   1.541   5.270   0.111 -0.8183 -0.8014  0.8968
20121TIP3    H281855   1.675   5.223   0.056 -1.0635  0.2494 -0.6898
20122TIP3   OH281856   0.251   1.180  16.271  0.0182  0.4767 -0.1762
20122TIP3    H181857   0.345   1.195  16.264  0.3274 -0.7384  0.9716
20122TIP3    H281858   0.238   1.090  16.244 -0.8672  0.7291 -0.6263
20123TIP3   OH281859   1.121   1.236  16.388 -0.2575  0.5945  0.1470
20123TIP3    H181860   1.183   1.299  16.424  0.5820  0.6337 -1.3069
20123TIP3    H281861   1.161   1.150  16.404  0.9356  0.6820 -2.0775
20124TIP3   OH281862   3.930   4.890   3.636 -0.4860  0.3962  0.4674
20124TIP3    H181863   3.882   4.937   3.704 -0.7446  0.1914  0.4286
20124TIP3    H281864   3.978   4.958   3.589 -0.6605  0.5908  0.5697
20125TIP3   OH281865   2.097   4.298  11.507  0.2166  0.1082 -0.1884
20125TIP3    H181866   2.088   4.331  11.596 -0.7252  0.1213 -0.2755
20125TIP3    H281867   2.040   4.354  11.455 -0.7492 -1.1006 -0.4840
20126TIP3   OH281868   4.835   1.716   4.035 -0.1905 -0.0222 -0.0235
20126TIP3    H181869   4.919   1.711   3.989  0.5212  0.1515  1.2292
20126TIP3    H281870   4.792   1.633   4.014  1.4551 -1.3213  1.4888
20127TIP3   OH281871   0.233   2.216   0.587 -0.0167  1.0323 -0.1185
20127TIP3    H181872   0.209   2.136   0.635  1.0187  0.6437 -0.2337
20127TIP3    H281873   0.273   2.272   0.653 -0.5264  1.3731 -0.0902
20128TIP3   OH281874   5.749   6.522   5.305  0.0631 -0.6228 -0.0208
20128TIP3    H181875   5.810   6.563   5.244  0.5231  0.3608  1.0629
20128TIP3    H281876   5.664   6.528   5.262  0.3087  0.4359 -0.3961
20129TIP3   OH281877   5.928   0.766   1.927 -0.5558 -0.5272 -0.0796
20129TIP3    H181878   5.886   0.743   2.010 -1.3861 -0.0363 -0.3419
20129TIP3    H281879   5.922   0.687   1.874 -0.7026 -0.6162  0.0689
20130TIP3   OH281880   3.743   2.193  11.726 -0.4010  0.1933 -0.1806
20130TIP3    H181881   3.783   2.275  11.755  0.4520 -0.2776  0.0108
20130TIP3    H281882   3.816   2.130  11.724 -1.1625 -0.7294  0.3356
20131TIP3   OH281883   1.676   1.229   4.965  0.6818 -0.0548  0.5593
20131TIP3    H181884   1.699   1.315   4.928  0.1852  0.3229  1.1021
20131TIP3    H281885   1.619   1.250   5.040  0.5286 -0.8619  0.6752
20132TIP3   OH281886   3.971   1.303   6.175  0.7578 -0.0677  0.6098
20132TIP3    H181887   3.972   1.299   6.271 -0.7453  1.4057  0.7372
20132TIP3    H281888   3.974   1.396   6.155  3.7219 -0.3834 -0.9168
20133TIP3   OH281889   0.510   5.890   5.410 -0.0208 -0.2050  0.0610
20133TIP3    H181890   0.441   5.902   5.346  1.1342  1.0050 -1.0286
20133TIP3    H281891   0.532   5.797   5.405 -0.4172 -0.2577 -0.8167
20134TIP3   OH281892   3.146   5.868   4.137 -0.0498 -0.2014  0.0978
20134TIP3    H181893   3.090   5.802   4.178 -1.4776  1.1797  0.4773
20134TIP3    H281894   3.107   5.952   4.162  1.7609  0.8131 -0.2853
20135TIP3   OH281895   5.272   1.430  11.494  0.1928 -0.2894 -0.3365
20135TIP3    H181896   5.184   1.397  11.476  0.9670 -1.7457 -1.7273
20135TIP3    H281897   5.258   1.519  11.526 -1.7541 -0.3303 -0.9243
20136TIP3   OH281898   6.444   4.275   4.675 -0.4805  0.5129 -0.4375
20136TIP3    H181899   6.468   4.270   4.582 -0.5855 -0.4504 -0.4191
20136TIP3    H281900   6.361   4.227   4.681 -1.6899  2.5168 -0.2421
20137TIP3   OH281901   6.174   5.687  15.610  0.5022 -0.9829 -0.2868
20137TIP3    H181902   6.085   5.675  15.577  1.0337  0.4135 -2.4676
20137TIP3    H281903   6.223   5.614  15.574  0.9000  0.0755 -1.9915
20138TIP3   OH281904   0.403   1.274  13.831 -0.0591  0.4634  0.1768
20138TIP3    H181905   0.412   1.365  13.859  2.1127  1.4223 -3.0754
20138TIP3    H281906   0.479   1.230  13.868 -0.2907  0.3334  0.4998
20139TIP3   OH281907   1.944   5.813  15.137  0.2224  0.1747 -0.2717
20139TIP3    H181908   1.943   5.721  15.112  1.9373  0.1941 -0.5237
20139TIP3    H281909   1.995   5.856  15.068  0.3059  1.1415  0.3741
20140TIP3   OH281910   0.176   4.098   1.092 -0.3224  0.0004 -0.2284
20140TIP3    H181911   0.264   4.137   1.090 -0.6560  0.7632 -2.6164
20140TIP3    H281912   0.122   4.163   1.136 -0.2174  0.7934 -1.2387
20141TIP3   OH281913   6.212   6.807  14.665 -0.1129  0.6666 -0.3460
20141TIP3    H181914   6.173   6.734  14.616  0.7285 -2.1209  2.7833
20141TIP3    H281915   6.304   6.784  14.672  0.1363  1.9399  0.8960
20142TIP3   OH281916   0.326   5.913   5.844  0.3544 -0.2036  0.2208
20142TIP3    H181917   0.405   5.888   5.796  0.3779  0.6258 -0.1929
20142TIP3    H281918   0.254   5.899   5.782  0.3526  0.5610  0.0289
20143TIP3   OH281919   0.289   5.360   4.065 -0.1402  0.1698  0.3136
20143TIP3    H181920   0.236   5.286   4.097 -1.4405  1.3806  1.0800
20143TIP3    H281921   0.377   5.325   4.059 -0.7088 -1.4317  0.7243
20144TIP3   OH281922   6.168   0.330   3.986 -0.4682 -0.3034  0.4212
20144TIP3    H181923   6.124   0.366   4.063 -0.6092  1.3196 -0.3582
20144TIP3    H281924   6.251   0.378   3.982 -1.6940  1.8740 -2.0268
20145TIP3   OH281925   2.589   2.852   2.675  0.0712  0.5419  0.0180
20145TIP3    H181926   2.608   2.939   2.710  0.4022  0.8613 -0.9114
20145TIP3    H281927   2.648   2.844   2.600 -3.1121  1.4550 -2.8606
20146TIP3   OH281928   6.313   3.945  13.560  0.5210 -0.8148  0.0566
20146TIP3    H181929   6.360   4.002  13.499  1.6761  0.4615  2.0409
20146TIP3    H281930   6.275   4.005  13.625  1.4258 -2.2243  1.9829
20147TIP3   OH281931   2.957   2.346  15.020  0.1409  0.7406  0.9511
20147TIP3    H181932   2.896   2.359  14.948  0.5135 -0.1839  0.4466
20147TIP3    H281933   2.985   2.435  15.044 -0.7210  1.1144  0.6106
20148TIP3   OH281934   2.970   2.469   2.936  0.2349 -0.0842 -0.0253
20148TIP3    H181935   2.952   2.430   3.021  2.4586  0.8917  0.9784
20148TIP3    H281936   2.915   2.547   2.933 -0.2153 -0.3900  0.3024
20149TIP3   OH281937   3.821   2.567   2.382  0.9526  0.0165  0.3784
20149TIP3    H181938   3.761   2.507   2.425  0.8996  0.5562  1.0723
20149TIP3    H281939   3.768   2.644   2.361  1.1729  0.0963  0.1124
20150TIP3   OH281940   6.330   3.421   1.526  0.2005 -0.0954 -0.0251
20150TIP3    H181941   6.407   3.372   1.497 -0.4007 -1.3434  0.4042
20150TIP3    H281942   6.292   3.456   1.445  2.1001  1.9651 -0.1148
20151TIP3   OH281943   5.445   1.554  11.321 -0.1762  0.3597  0.2515
20151TIP3    H181944   5.412   1.643  11.327 -0.6126  0.2976 -1.0009
20151TIP3    H281945   5.369   1.501  11.297  0.8126  0.2831 -3.1487
20152TIP3   OH281946   5.440   3.426   2.252 -0.6569 -0.1385 -0.0369
20152TIP3    H181947   5.428   3.413   2.346  1.6536 -0.5213  0.2722
20152TIP3    H281948   5.458   3.339   2.218  3.0318  0.4420  0.0155
20153TIP3   OH281949   0.605   6.154   1.712  0.5792 -0.0923 -0.1683
20153TIP3    H181950   0.638   6.077   1.758 -0.6846 -0.2352  0.5527
20153TIP3    H281951   0.592   6.125   1.622  0.6841 -0.5436 -0.0405
20154TIP3   OH281952   1.426   3.727   1.993 -0.2714  0.2597  0.2992
20154TIP3    H181953   1.356   3.735   2.058 -0.2908  2.3703  0.1141
20154TIP3    H281954   1.497   3.682   2.039 -0.6430  0.8581  1.5003
20155TIP3   OH281955   6.306   0.223  13.688 -0.1631  0.5706  0.1455
20155TIP3    H181956   6.275   0.235  13.598 -1.2505  2.1148  0.6689
20155TIP3    H281957   6.300   0.129  13.704 -0.4196  0.3333 -1.2244
20156TIP3   OH281958   3.321   6.431  16.938 -0.6583  0.1614 -0.4262
20156TIP3    H181959   3.262   6.502  16.911 -1.0809 -0.4988 -1.2773
20156TIP3    H281960   3.409   6.463  16.915 -0.5600  1.4700  1.5351
20157TIP3   OH281961   5.779   0.298  11.869 -0.5582  0.5510  0.0693
20157TIP3    H181962   5.759   0.291  11.963  0.3287  0.4189  0.2603
20157TIP3    H281963   5.718   0.364  11.837  0.6704  2.3693  1.2447
20158TIP3   OH281964   6.167   0.047  10.365  0.0962 -0.7701 -0.1778
20158TIP3    H181965   6.183  -0.023  10.301  0.8667 -1.1942  0.4531
20158TIP3    H281966   6.173   0.003  10.450 -0.3238 -0.1018  0.2025
20159TIP3   OH281967   3.630   1.693  11.440  0.0633 -0.1455  0.1322
20159TIP3    H181968   3.723   1.714  11.446  0.0134  0.0763  0.1139
20159TIP3    H281969   3.620   1.651  11.354  0.4050 -1.4655  0.7054
20160TIP3   OH281970   0.559   1.809  17.132  0.1957  0.5289 -0.7269
20160TIP3    H181971   0.594   1.832  17.046  2.4207  1.5940  0.3899
20160TIP3    H281972   0.465   1.827  17.125  0.3238  0.6140 -2.9007
20161TIP3   OH281973   5.529   3.817   4.593 -0.3613 -0.4247  0.9997
20161TIP3    H181974   5.546   3.811   4.499 -0.7096  1.3515  0.7912
20161TIP3    H281975   5.605   3.865   4.627 -0.6648 -0.2931  1.4838
20162TIP3   OH281976   1.957   6.783   5.148  0.2264  0.1683 -0.0094
20162TIP3    H181977   2.043   6.759   5.181  1.8637  0.3247 -3.6530
20162TIP3    H281978   1.948   6.735   5.066 -1.5421  2.8544 -1.5601
20163TIP3   OH281979   2.139   0.143  12.627 -0.6464 -0.0792  0.4353
20163TIP3    H181980   2.202   0.183  12.688  0.2981 -2.1664  0.9107
20163TIP3    H281981   2.111   0.063  12.671 -1.5487 -0.5762 -0.9992
20164TIP3   OH281982   2.347   2.925   5.760  0.1789 -0.9056 -0.2169
20164TIP3    H181983   2.302   2.870   5.824  0.4372 -1.1866 -0.2718
20164TIP3    H281984   2.440   2.915   5.781  0.1850  0.2478  0.3563
20165TIP3   OH281985   3.218   0.178   5.333 -0.1131 -0.3752  0.2729
20165TIP3    H181986   3.299   0.225   5.353 -0.3017  0.0148  0.1387
20165TIP3    H281987   3.148   0.241   5.353 -0.3448 -0.3779 -0.5036
20166TIP3   OH281988   3.301   1.739   0.569 -0.1824 -0.9164  0.3351
20166TIP3    H181989   3.223   1.742   0.514  0.0339 -1.5136 -0.0251
20166TIP3    H281990   3.295   1.815   0.625 -1.0162 -0.9526  0.2993
20167TIP3   OH281991   2.872   0.308  17.225  0.4156  1.0078  0.4572
20167TIP3    H181992   2.925   0.298  17.304 -0.9744 -0.0394  1.2828
20167TIP3    H281993   2.845   0.219  17.202  3.2626  0.7902 -3.0369
20168TIP3   OH281994   4.711   1.692  13.206  0.1768 -0.2116  0.2509
20168TIP3    H181995   4.684   1.784  13.195  1.1770  0.1382  0.6030
20168TIP3    H281996   4.762   1.672  13.128  0.1944 -0.3792  0.3052
20169TIP3   OH281997   3.373   4.087   1.227 -0.0910  0.1332  0.0818
20169TIP3    H181998   3.449   4.029   1.222 -0.6580 -0.6529  0.4739
20169TIP3    H281999   3.397   4.153   1.292  0.3110 -0.0160  0.0849
20170TIP3   OH282000   0.624   4.305  11.047 -0.2725  0.1124  0.0135
20170TIP3    H182001   0.569   4.381  11.025  0.3615  0.9014  1.0638
20170TIP3    H282002   0.562   4.234  11.061 -1.0923  1.0449  1.4405
20171TIP3   OH282003   3.495   5.497  12.874 -0.0955  0.0708  0.1352
20171TIP3    H182004   3.495   5.443  12.796  1.7572  2.4953 -1.7286
20171TIP3    H282005   3.580   5.542  12.872 -0.4490  1.0724  2.9560
20172TIP3   OH282006   3.769   3.863   3.240 -0.3158  0.0924  0.2912
20172TIP3    H182007   3.772   3.953   3.273  0.0400  0.2569 -0.1693
20172TIP3    H282008   3.859   3.832   3.246 -0.3990 -0.1566  0.2518
20173TIP3   OH282009   0.563   3.552   3.876  0.4972 -0.2975 -0.3115
20173TIP3    H182010   0.470   3.559   3.856  0.1237  0.7360  1.5637
20173TIP3    H282011   0.606   3.609   3.812 -0.3556  0.8161  0.0881
20174TIP3   OH282012   3.248   2.774   3.663  0.6721 -0.7231 -0.2733
20174TIP3    H182013   3.303   2.747   3.590  2.4615  1.8453 -0.0011
20174TIP3    H282014   3.281   2.723   3.737  2.5023  0.4518 -0.2096
20175TIP3   OH282015   4.625   3.177   5.979  0.1265 -0.3839  0.1377
20175TIP3    H182016   4.696   3.224   6.023 -1.3238  1.3705  0.7340
20175TIP3    H282017   4.618   3.219   5.893  1.1350 -1.9669 -0.7725
20176TIP3   OH282018   5.350   4.983   5.297  0.4400  0.1108 -0.2266
20176TIP3    H182019   5.307   4.967   5.381  1.0291  1.4748  0.3699
20176TIP3    H282020   5.347   5.078   5.287  3.4845  0.3080 -0.0300
20177TIP3   OH282021   0.824   0.313  10.606  0.0326 -0.2529 -0.1200
20177TIP3    H182022   0.857   0.401  10.590 -0.6231 -0.0723 -0.5347
20177TIP3    H282023   0.824   0.271  10.520  2.7152 -1.5378  0.4147
20178TIP3   OH282024   0.859   5.539  11.845 -0.4554  0.2344  0.7167
20178TIP3    H182025   0.900   5.583  11.919  1.6313 -1.2810  0.5420
20178TIP3    H282026   0.793   5.601  11.814 -0.7786  1.2813  3.2457
20179TIP3   OH282027   3.787   3.621   2.093  0.3181  0.5333 -0.7385
20179TIP3    H182028   3.823   3.546   2.046 -0.9428 -0.2649 -0.4853
20179TIP3    H282029   3.706   3.642   2.047  0.1149  1.0450 -0.1637
20180TIP3   OH282030   0.214   2.303  11.281 -0.3126 -0.5255 -0.7304
20180TIP3    H182031   0.277   2.235  11.253  0.0891 -0.6113  0.3522
20180TIP3    H282032   0.132   2.256  11.294 -0.2296 -0.6649 -0.7118
20181TIP3   OH282033   5.809   6.504  12.572  0.3116  0.3502  0.1484
20181TIP3    H182034   5.797   6.583  12.626  0.6848 -0.6295  1.7221
20181TIP3    H282035   5.721   6.482  12.542  0.1366  1.0696  0.1113
20182TIP3   OH282036   2.310   1.050  13.183 -0.2184 -0.1770  0.6904
20182TIP3    H182037   2.271   1.009  13.260  0.2309 -0.7027  0.6480
20182TIP3    H282038   2.364   0.981  13.144 -0.6000  0.0209 -0.2136
20183TIP3   OH282039   3.654   2.065  12.311 -0.2182 -0.2677 -0.4263
20183TIP3    H182040   3.687   2.045  12.399  0.4420 -1.9332 -1.0127
20183TIP3    H282041   3.561   2.039  12.315 -0.3451  0.2233 -0.0625
20184TIP3   OH282042   4.425   3.927   1.545 -0.3245 -0.6256  0.0556
20184TIP3    H182043   4.433   3.939   1.451 -0.5356  1.1463  0.2152
20184TIP3    H282044   4.514   3.942   1.578 -0.8959  2.8837  0.4226
20185TIP3   OH282045   3.510   4.418   5.188  0.2184 -0.2648  0.3541
20185TIP3    H182046   3.489   4.346   5.246 -0.4479 -0.6536 -0.3485
20185TIP3    H282047   3.605   4.412   5.175  0.3325 -0.3383  1.1578
20186TIP3   OH282048   2.475   1.492   5.033 -0.3057 -0.2179 -0.5250
20186TIP3    H182049   2.465   1.571   4.981  0.0881  0.3699  0.2718
20186TIP3    H282050   2.393   1.485   5.082 -0.4715 -0.4821 -0.8426
20187TIP3   OH282051   5.781   6.500  16.863 -0.7417 -0.2091  0.1136
20187TIP3    H182052   5.780   6.492  16.767 -2.4417 -1.0039  0.1685
20187TIP3    H282053   5.848   6.439  16.891 -1.2515 -1.0733 -0.5082
20188TIP3   OH282054   5.808   4.431  13.947 -0.3593  0.1971  0.1189
20188TIP3    H182055   5.724   4.415  13.904 -0.2134 -0.2257 -0.0163
20188TIP3    H282056   5.789   4.424  14.041 -0.3453 -0.5921  0.0729
20189TIP3   OH282057   3.109   3.368  11.648 -0.0630  0.6037  0.5152
20189TIP3    H182058   3.083   3.293  11.595 -0.8448  0.8673  0.5060
20189TIP3    H282059   3.058   3.359  11.729  0.5545  0.6130  0.9110
20190TIP3   OH282060   4.091   2.835   1.604  0.1529  0.3623 -0.8924
20190TIP3    H182061   4.148   2.881   1.665  1.1416  0.1561 -1.6278
20190TIP3    H282062   4.147   2.816   1.529 -1.0370  0.6845 -1.9102
20191TIP3   OH282063   3.345   0.358  16.775 -0.2437  0.6147  0.2815
20191TIP3    H182064   3.324   0.450  16.756 -0.4720  0.8643  1.6271
20191TIP3    H282065   3.440   0.353  16.766 -0.2817  0.8525 -0.3020
20192TIP3   OH282066   6.537   4.598  13.422 -0.2935  0.0959 -0.0695
20192TIP3    H182067   6.467   4.532  13.426 -1.1180  0.9588  0.1941
20192TIP3    H282068   6.496   4.675  13.382 -0.1500  1.3612  2.0481
20193TIP3   OH282069   1.824   4.044   1.081  0.4233 -0.0401 -0.4774
20193TIP3    H182070   1.816   3.995   1.163  2.4537  1.1454  0.4973
20193TIP3    H282071   1.840   3.976   1.015  2.4098 -0.8082  0.7156
20194TIP3   OH282072   3.578   3.643  17.074 -0.4300 -0.3203 -0.5928
20194TIP3    H182073   3.664   3.685  17.077  0.0450 -1.2962 -0.1708
20194TIP3    H282074   3.520   3.704  17.120 -0.1331  0.6926 -1.5164
20195TIP3   OH282075   2.831   2.624  12.167 -0.4168  0.0368 -0.3036
20195TIP3    H182076   2.743   2.641  12.134 -0.9259 -0.0783  0.9225
20195TIP3    H282077   2.828   2.654  12.258  0.4134 -1.1898  0.1503
20196TIP3   OH282078   4.179   0.531  12.565  0.0909  0.0968  0.0928
20196TIP3    H182079   4.238   0.601  12.592  0.2318 -0.4383  1.2451
20196TIP3    H282080   4.155   0.552  12.475  1.6458  0.5983 -0.2299
20197TIP3   OH282081   1.967   0.229   5.939  0.2886 -0.0942 -0.0214
20197TIP3    H182082   1.937   0.155   5.991  1.0982  1.8314  3.4423
20197TIP3    H282083   1.888   0.281   5.923  0.3874  0.6198  1.6443
20198TIP3   OH282084   6.242   5.842   5.543 -0.5034  0.5922  0.3782
20198TIP3    H182085   6.165   5.868   5.594 -2.7308 -1.6439 -1.5341
20198TIP3    H282086   6.205   5.803   5.464  2.6322 -1.4882 -0.2206
20199TIP3   OH282087   4.010   6.328   0.131 -0.5890 -0.0826 -0.3989
20199TIP3    H182088   4.053   6.290   0.208  1.5061  2.3660 -0.2152
20199TIP3    H282089   3.997   6.420   0.154 -0.6447  0.5378 -2.6748
20200TIP3   OH282090   2.022   5.051  14.074 -0.0186  0.8978  0.4707
20200TIP3    H182091   1.952   5.022  14.015 -1.5451  1.0492  2.1320
20200TIP3    H282092   2.005   5.005  14.156  1.6405  1.2207  1.0296
20201TIP3   OH282093   3.935   5.645   5.380 -0.2114 -0.2104  0.4471
20201TIP3    H182094   3.871   5.685   5.439 -1.0508  0.9861 -1.1960
20201TIP3    H282095   3.977   5.719   5.337  0.6400 -1.0418 -0.1828
20202TIP3   OH282096   6.171   0.994   3.690 -0.1209  0.3019 -0.3910
20202TIP3    H182097   6.144   0.927   3.627 -0.3125  1.0930 -1.1776
20202TIP3    H282098   6.181   0.947   3.773 -0.8707 -0.5820 -0.7819
20203TIP3   OH282099   1.172   6.323   4.810  0.0777 -0.5548 -0.2850
20203TIP3    H182100   1.205   6.237   4.838 -1.9061 -1.4930 -0.6146
20203TIP3    H282101   1.081   6.323   4.840 -0.0784  1.2721 -0.7011
20204TIP3   OH282102   1.803   6.306   1.956  0.0260  0.2314 -0.4220
20204TIP3    H182103   1.812   6.275   2.045 -2.7155 -0.3251 -0.2392
20204TIP3    H282104   1.813   6.401   1.962  0.9720  0.1029  0.2486
20205TIP3   OH282105   2.473   5.721   0.361  0.2712  0.4708  0.2103
20205TIP3    H182106   2.513   5.710   0.275 -0.0747  0.8828 -0.0056
20205TIP3    H282107   2.421   5.641   0.373 -1.4384  1.3429 -0.9309
20206TIP3   OH282108   4.943   4.920   1.016 -0.0278 -0.6283  0.4464
20206TIP3    H182109   4.978   4.850   1.070  1.5543 -0.3590 -0.1480
20206TIP3    H282110   4.957   4.890   0.926  3.1706  1.4059  0.0673
20207TIP3   OH282111   3.318   5.716  13.501 -0.8478 -0.0736  0.0793
20207TIP3    H182112   3.248   5.716  13.567  0.0963  0.0477  1.1101
20207TIP3    H282113   3.344   5.624  13.495  0.4780  0.1693  1.4588
20208TIP3   OH282114   3.645   1.314   1.542  0.7097 -0.1486 -0.0326
20208TIP3    H182115   3.583   1.358   1.484 -1.0021 -1.7633  0.4707
20208TIP3    H282116   3.723   1.300   1.488  0.1828  0.7780 -1.0841
20209TIP3   OH282117   3.145   1.140   4.149  0.4294 -0.5926  0.0908
20209TIP3    H182118   3.091   1.120   4.225  1.1899 -1.0306  0.5310
20209TIP3    H282119   3.208   1.069   4.144  0.8925 -0.1597 -0.4832
20210TIP3   OH282120   5.420   0.409   4.274  0.1006  0.3523  0.5894
20210TIP3    H182121   5.470   0.328   4.264 -0.7250 -0.3189  1.7468
20210TIP3    H282122   5.413   0.423   4.368  0.3903  1.8876  0.4087
20211TIP3   OH282123   1.430   5.744   3.197 -0.3906 -0.5688  0.1661
20211TIP3    H182124   1.338   5.752   3.171 -0.4537 -0.2461  0.4745
20211TIP3    H282125   1.476   5.724   3.116 -0.5010  1.0356 -0.3275
20212TIP3   OH282126   5.890   0.577   3.724  0.0624  0.0437  0.0499
20212TIP3    H182127   5.922   0.585   3.814 -0.4430  0.5626  0.1891
20212TIP3    H282128   5.966   0.598   3.670  0.3953 -0.3626  0.3472
20213TIP3   OH282129   1.060   4.567  16.083 -0.3245 -0.4234 -0.1064
20213TIP3    H182130   1.141   4.572  16.032 -0.5704  1.1051 -0.3853
20213TIP3    H282131   1.074   4.494  16.142  0.8586 -0.8218 -0.8411
20214TIP3   OH282132   2.143   0.188  15.553 -0.1904  0.1745  0.1106
20214TIP3    H182133   2.090   0.112  15.579  0.8693 -0.7076 -0.2162
20214TIP3    H282134   2.174   0.224  15.636 -1.8837  1.1788  0.3594
20215TIP3   OH282135   3.075   6.425  12.351  0.0600  0.7318 -0.6752
20215TIP3    H182136   3.089   6.336  12.320 -0.3437  0.8238 -1.1240
20215TIP3    H282137   3.110   6.481  12.281  2.0168  0.9321  0.3821
20216TIP3   OH282138   2.229   0.789  12.274 -0.6225  0.3796  0.2326
20216TIP3    H182139   2.195   0.865  12.227 -0.1105  0.1430 -0.5347
20216TIP3    H282140   2.316   0.775  12.237 -0.1863  0.2087  1.2885
20217TIP3   OH282141   4.496   0.742   5.200 -0.1735  0.3492 -0.2109
20217TIP3    H182142   4.537   0.693   5.271  0.5564  2.0461  0.5827
20217TIP3    H282143   4.487   0.678   5.129  0.7615 -0.9101  0.7577
20218TIP3   OH282144   1.727   4.325   4.848  0.4430  0.1397  0.0404
20218TIP3    H182145   1.745   4.417   4.866 -0.5594  0.1650  0.9858
20218TIP3    H282146   1.711   4.286   4.933  1.6629 -1.1141 -0.2739
20219TIP3   OH282147   1.944   3.575  16.124 -0.5915 -0.1191  0.6161
20219TIP3    H182148   1.909   3.505  16.069  0.3537 -0.9035  0.9924
20219TIP3    H282149   1.947   3.651  16.066  3.0686 -1.5693 -1.4210
20220TIP3   OH282150   0.027   2.502  16.594 -0.4856 -0.4861 -0.0241
20220TIP3    H182151   0.006   2.595  16.593 -2.0613 -0.7935  0.9531
20220TIP3    H282152   0.115   2.497  16.556 -0.2400  1.4120  0.1915
20221TIP3   OH282153   1.768   1.775  11.416  0.5411 -0.2654 -0.2163
20221TIP3    H182154   1.691   1.807  11.463  1.4540  1.1724  0.3699
20221TIP3    H282155   1.783   1.688  11.451 -0.4651 -0.3288  0.0953
20222TIP3   OH282156   4.563   2.480   0.595  0.7161  0.7564 -0.1746
20222TIP3    H182157   4.569   2.510   0.686 -0.3980  0.7947 -0.1009
20222TIP3    H282158   4.512   2.548   0.551  1.1559  0.6856 -0.8111
20223TIP3   OH282159   5.766   2.119  15.461 -0.2468  0.4062  0.0039
20223TIP3    H182160   5.681   2.075  15.469  0.0310 -0.3259 -0.8946
20223TIP3    H282161   5.818   2.082  15.532 -0.3091 -0.0279 -0.1734
20224TIP3   OH282162   3.320   3.985  11.920 -0.2109  0.0226  0.7488
20224TIP3    H182163   3.394   4.045  11.923 -0.2162  0.1413 -0.9269
20224TIP3    H282164   3.247   4.037  11.888 -0.6661 -0.4559  0.9829
20225TIP3   OH282165   5.671   0.720   3.800  0.1505 -0.0944 -0.1312
20225TIP3    H182166   5.696   0.793   3.857 -0.4561 -1.2455  1.7218
20225TIP3    H282167   5.751   0.669   3.789  0.3775  0.3836 -0.7070
20226TIP3   OH282168   5.118   4.175   4.208  0.0812  0.0515  0.5922
20226TIP3    H182169   5.100   4.095   4.257  0.2503 -0.5015 -0.2313
20226TIP3    H282170   5.067   4.243   4.253 -0.9837 -0.7336  0.6078
20227TIP3   OH282171   2.446   2.139   3.184  0.2898 -0.3212 -0.4596
20227TIP3    H182172   2.385   2.212   3.174  2.8299  1.7626 -2.1804
20227TIP3    H282173   2.437   2.088   3.104 -0.9698 -1.5958  0.4331
20228TIP3   OH282174   1.053   1.414  13.456 -0.0343  0.5153 -0.0971
20228TIP3    H182175   1.007   1.355  13.397  0.0353  0.7695 -0.4134
20228TIP3    H282176   0.985   1.447  13.515  0.0824 -0.5527  0.6557
20229TIP3   OH282177   2.055   0.084  14.926  0.3424 -0.5815  0.1990
20229TIP3    H182178   2.050   0.109  14.833 -3.2391  1.8532  0.8450
20229TIP3    H282179   2.027  -0.007  14.927  1.1814 -0.8938 -1.1510
20230TIP3   OH282180   1.448   5.265  14.865 -0.1244  0.3083  0.3150
20230TIP3    H182181   1.479   5.351  14.837 -0.8195  0.4703  0.0069
20230TIP3    H282182   1.440   5.273  14.960 -0.0971  0.5583  0.2993
20231TIP3   OH282183   5.850   4.953   2.082  0.2583 -0.2262 -0.3095
20231TIP3    H182184   5.830   5.034   2.034  1.0799  0.1327 -0.0707
20231TIP3    H282185   5.809   4.965   2.167 -0.0377 -0.2676 -0.4480
20232TIP3   OH282186   5.241   6.310   4.369  0.1782 -0.1758 -0.7563
20232TIP3    H182187   5.259   6.317   4.275  1.6521 -0.8391 -0.5673
20232TIP3    H282188   5.146   6.314   4.376 -0.0009 -0.7868 -2.3492
20233TIP3   OH282189   0.257   4.786  17.204  0.0748 -0.3803 -0.3454
20233TIP3    H182190   0.296   4.702  17.229 -0.0832 -0.6091 -0.8590
20233TIP3    H282191   0.164   4.766  17.191  0.2276 -0.3755 -1.5651
20234CLA    CLA82192   5.699   6.221  17.228 -0.2523  0.4043  0.0091
20235LIG     O182193   3.963   3.748  14.833  0.4692  0.0385 -0.3042
20235LIG     O282194   3.773   3.682  14.723  0.1228  0.0717 -0.3214
20235LIG     O382195   3.546   3.538  14.043 -0.1885  0.7353  0.9184
20235LIG     O482196   3.903   3.364  13.976  0.1000  0.4334 -0.5299
20235LIG      N82197   3.980   3.490  14.635 -0.4433  0.5957 -0.0354
20235LIG     C182198   3.984   3.637  14.617 -0.0905  0.1717 -0.2394
20235LIG     C282199   3.851   3.420  14.616 -1.3459 -0.7987 -0.9207
20235LIG     C382200   4.069   3.434  14.536  0.1739  0.3590  0.3051
20235LIG     C482201   4.040   3.461  14.772 -0.2549 -0.8266 -0.5175
20235LIG     C582202   3.906   3.734  14.705 -0.1250 -0.2570  0.2310
20235LIG     C682203   3.801   3.430  14.480 -0.2907  0.5384 -0.7201
20235LIG     C782204   3.804   3.315  14.393 -0.0382  0.3134  0.1513
20235LIG     C882205   3.729   3.538  14.425 -1.1695  0.8763 -0.4489
20235LIG     C982206   3.772   3.328  14.255  0.1790  0.6966  0.2769
20235LIG    C1082207   3.674   3.540  14.299  0.5972 -0.0663 -0.0966
20235LIG    C1182208   4.059   3.854  14.839 -0.1697  0.2870  0.3241
20235LIG    C1282209   3.675   3.780  14.749 -0.4863  0.3269  0.6988
20235LIG    C1382210   3.693   3.438  14.204  0.2112  0.0585 -0.4819
20235LIG    C1482211   4.071   3.872  14.991  0.6202 -0.2591  0.6984
20235LIG    C1582212   3.536   3.717  14.731  0.4773 -0.3501 -0.5840
20235LIG    C1682213   3.633   3.455  14.069  0.5287 -0.5972  0.2322
20235LIG    C1782214   3.659   3.345  13.969  0.3734 -0.5189 -0.1083
20235LIG    C1882215   3.788   3.301  13.928  0.7537 -0.1492 -0.3253
20235LIG    C1982216   3.551   3.311  13.897  0.6331 -0.9080 -0.4276
20235LIG    C2082217   3.800   3.228  13.813  0.3527 -0.0756 -0.8210
20235LIG    C2182218   3.692   3.190  13.744  0.7320  0.4042 -0.7010
20235LIG    C2282219   3.561   3.232  13.784 -0.0812  0.7590 -0.2126
20235LIG    C2382220   3.698   3.117  13.610 -0.4169  0.2971  0.1209
20235LIG     H182221   3.951   3.658  14.517 -0.5160  0.2217 -0.0904
20235LIG     H282222   4.085   3.674  14.620  0.4660 -0.8941 -3.1674
20235LIG     H382223   3.784   3.469  14.685 -1.2946 -1.7122 -0.1978
20235LIG     H482224   3.845   3.317  14.647 -0.8862 -0.1988  1.3264
20235LIG     H582225   4.037   3.444  14.433 -0.3484  0.3184  0.4599
20235LIG     H682226   4.084   3.330  14.556  0.8370  0.5142  0.6374
20235LIG     H782227   4.169   3.471  14.549 -1.0363  3.7485  1.1560
20235LIG     H882228   4.139   3.499  14.790  0.1145 -1.7873 -0.4460
20235LIG     H982229   4.037   3.355  14.791  1.1410 -0.6262  1.1271
20235LIG    H1082230   3.991   3.509  14.856 -0.0882  0.3577 -1.0763
20235LIG    H1182231   3.907   3.835  14.659  0.4530 -0.5867 -0.5028
20235LIG    H1282232   3.835   3.220  14.435  0.0658  0.4024  0.2754
20235LIG    H1382233   3.712   3.609  14.505 -1.2165  1.8075 -1.2567
20235LIG    H1482234   3.770   3.242  14.189  0.8204  1.7797 -1.1952
20235LIG    H1582235   3.625   3.631  14.267  2.2612  1.5295  1.6473
20235LIG    H1682236   4.035   3.950  14.790  0.1286  0.2263  0.0542
20235LIG    H1782237   4.155   3.834  14.787 -0.9663 -1.3029 -0.6217
20235LIG    H1882238   3.696   3.858  14.673 -0.1400  0.1883  0.6493
20235LIG    H1982239   3.699   3.819  14.850  1.3643 -0.4734  0.6090
20235LIG    H2082240   4.158   3.940  14.991 -1.6381  2.8491  0.8216
20235LIG    H2182241   4.085   3.781  15.054 -3.0583 -1.2246  0.3989
20235LIG    H2282242   3.984   3.925  15.035  1.0970  0.4316  0.8094
20235LIG    H2382243   3.462   3.796  14.704 -0.2705 -1.4656 -1.9638
20235LIG    H2482244   3.498   3.650  14.810  2.5634 -1.4539 -0.4689
20235LIG    H2582245   3.550   3.656  14.639 -1.1099 -0.5697 -0.7067
20235LIG    H2682246   3.450   3.344  13.919  0.9694 -0.1184 -0.0604
20235LIG    H2782247   3.899   3.214  13.773  0.1607  0.8356 -1.6690
20235LIG    H2882248   3.478   3.207  13.720  0.0534  0.1517 -0.1563
20235LIG    H2982249   3.597   3.094  13.572 -0.7727 -0.6439  1.5368
20235LIG    H3082250   3.758   3.024  13.621  0.0693  0.4093 -1.3300
20235LIG    H3182251   3.751   3.184  13.540  0.4817 -0.6593 -0.1467
20235LIG    H3282252   3.980   3.306  13.973  1.2599  1.9095 -0.2822
   6.82582   6.82582  17.24209
